      -----------------------------------------------------------      
     |                   =====================                   |     
     |                           x T B                           |     
     |                   =====================                   |     
     |                         S. Grimme                         |     
     |          Mulliken Center for Theoretical Chemistry        |     
     |                    University of Bonn                     |     
      -----------------------------------------------------------      

   * xtb version 6.7.1 (edcfbbe) compiled by 'conda@3ef47c1a292c' on 2024-11-25

   xtb is free software: you can redistribute it and/or modify it under
   the terms of the GNU Lesser General Public License as published by
   the Free Software Foundation, either version 3 of the License, or
   (at your option) any later version.
   
   xtb is distributed in the hope that it will be useful,
   but WITHOUT ANY WARRANTY; without even the implied warranty of
   MERCHANTABILITY or FITNESS FOR A PARTICULAR PURPOSE.  See the
   GNU Lesser General Public License for more details.
   
   Cite this work as:
   * C. Bannwarth, E. Caldeweyher, S. Ehlert, A. Hansen, P. Pracht,
     J. Seibert, S. Spicher, S. Grimme, WIREs Comput. Mol. Sci., 2020, 11,
     e01493. DOI: 10.1002/wcms.1493
   
   for GFN2-xTB:
   * C. Bannwarth, S. Ehlert and S. Grimme., J. Chem. Theory Comput., 2019,
     15, 1652-1671. DOI: 10.1021/acs.jctc.8b01176
   for GFN1-xTB:
   * S. Grimme, C. Bannwarth, P. Shushkov, J. Chem. Theory Comput., 2017,
     13, 1989-2009. DOI: 10.1021/acs.jctc.7b00118
   for GFN0-xTB:
   * P. Pracht, E. Caldeweyher, S. Ehlert, S. Grimme, ChemRxiv, 2019, preprint.
     DOI: 10.26434/chemrxiv.8326202.v1
   for GFN-FF:
   * S. Spicher and S. Grimme, Angew. Chem. Int. Ed., 2020, 59, 15665-15673.
     DOI: 10.1002/anie.202004239
   
   for ALPB and GBSA implicit solvation:
   * S. Ehlert, M. Stahn, S. Spicher, S. Grimme, J. Chem. Theory Comput.,
     2021, 17, 4250-4261. DOI: 10.1021/acs.jctc.1c00471
   
   for ddCOSMO and CPCM-X implicit solvation:
   * M. Stahn, S. Ehlert, S. Grimme, J. Phys. Chem. A,
     2023, XX, XXXX-XXXX. DOI: 10.1021/acs.jpca.3c04382
   
   for DFT-D4:
   * E. Caldeweyher, C. Bannwarth and S. Grimme, J. Chem. Phys., 2017,
     147, 034112. DOI: 10.1063/1.4993215
   * E. Caldeweyher, S. Ehlert, A. Hansen, H. Neugebauer, S. Spicher,
     C. Bannwarth and S. Grimme, J. Chem. Phys., 2019, 150, 154122.
     DOI: 10.1063/1.5090222
   * E. Caldeweyher, J.-M. Mewes, S. Ehlert and S. Grimme, Phys. Chem. Chem. Phys.
     2020, 22, 8499-8512. DOI: 10.1039/D0CP00502A
   
   for sTDA-xTB:
   * S. Grimme and C. Bannwarth, J. Chem. Phys., 2016, 145, 054103.
     DOI: 10.1063/1.4959605
   
   in the mass-spec context:
   * V. Asgeirsson, C. Bauer and S. Grimme, Chem. Sci., 2017, 8, 4879.
     DOI: 10.1039/c7sc00601b
   * J. Koopman and S. Grimme, ACS Omega 2019, 4, 12, 15120-15133.
     DOI: 10.1021/acsomega.9b02011
   
   for metadynamics refer to:
   * S. Grimme, J. Chem. Theory Comput., 2019, 155, 2847-2862
     DOI: 10.1021/acs.jctc.9b00143
   
   for SPH calculations refer to:
   * S. Spicher and S. Grimme, J. Chem. Theory Comput., 2021, 17, 1701-1714
     DOI: 10.1021/acs.jctc.0c01306
   
   for ONIOM refer to:
   * C. Plett, A. Katbashev, S. Ehlert, S. Grimme, M. Bursch,
     Phys. Chem. Chem. Phys., 2023, 25, 17860-17868. DOI: 10.1039/D3CP02178E
   
   for DIPRO refer to:
   * J. Kohn, N. Gildemeister, S. Grimme, D. Fazzi, A. Hansen,
     J. Chem. Phys., 2023, just accepted.
   
   for PTB refer to:
   * S. Grimme, M. Mueller, A. Hansen, J. Chem. Phys., 2023, 158, 124111.
     DOI: 10.1063/5.0137838
   
   with help from (in alphabetical order)
   P. Atkinson, C. Bannwarth, F. Bohle, G. Brandenburg, E. Caldeweyher
   M. Checinski, S. Dohm, S. Ehlert, S. Ehrlich, I. Gerasimov, C. Hölzer
   A. Katbashev, J. Kohn, J. Koopman, C. Lavigne, S. Lehtola, F. März, M. Müller,
   F. Musil, H. Neugebauer, J. Pisarek, C. Plett, P. Pracht, F. Pultar,
   J. Seibert, P. Shushkov, S. Spicher, M. Stahn, M. Steiner, T. Strunk,
   J. Stückrath, T. Rose, and J. Unsleber
   
 * started run on 2024/12/20 at 01:52:14.245     
   ID    Z sym.   atoms
    1    9 F      1, 5, 6, 8-12, 14-17
    2    6 C      2-4, 13
    3    5 B      7

           -------------------------------------------------
          |                Calculation Setup                |
           -------------------------------------------------

          program call               : xtb A001.xyz --opt --namespace A001 --charge -1
          calculation namespace      : A001
          coordinate file            : A001.xyz
          omp threads                :                     8


           -------------------------------------------------
          |                 G F N 2 - x T B                 |
           -------------------------------------------------

        Reference                      10.1021/acs.jctc.8b01176
      * Hamiltonian:
        H0-scaling (s, p, d)           1.850000    2.230000    2.230000
        zeta-weighting                 0.500000
      * Dispersion:
        s8                             2.700000
        a1                             0.520000
        a2                             5.000000
        s9                             5.000000
      * Repulsion:
        kExp                           1.500000    1.000000
        rExp                           1.000000
      * Coulomb:
        alpha                          2.000000
        third order                    shell-resolved
        anisotropic                    true
        a3                             3.000000
        a5                             4.000000
        cn-shift                       1.200000
        cn-exp                         4.000000
        max-rad                        5.000000


          ...................................................
          :                      SETUP                      :
          :.................................................:
          :  # basis functions                  68          :
          :  # atomic orbitals                  68          :
          :  # shells                           34          :
          :  # electrons                       104          :
          :  max. iterations                   250          :
          :  Hamiltonian                  GFN2-xTB          :
          :  restarted?                      false          :
          :  GBSA solvation                  false          :
          :  PC potential                    false          :
          :  electronic temp.          300.0000000     K    :
          :  accuracy                    1.0000000          :
          :  -> integral cutoff          0.2500000E+02      :
          :  -> integral neglect         0.1000000E-07      :
          :  -> SCF convergence          0.1000000E-05 Eh   :
          :  -> wf. convergence          0.1000000E-03 e    :
          :  Broyden damping             0.4000000          :
          :  net charge                         -1          :
          :  unpaired electrons                  0          :
          ...................................................

 iter      E             dE          RMSdq      gap      omega  full diag
   1    -66.7220595 -0.667221E+02  0.699E+00   11.80       0.0  T
   2    -66.9622520 -0.240192E+00  0.385E+00   10.46       1.0  T
   3    -66.9723590 -0.101070E-01  0.172E+00    9.96       1.0  T
   4    -66.9758026 -0.344362E-02  0.418E-01    9.41       1.0  T
   5    -66.9770798 -0.127722E-02  0.242E-01    9.44       1.0  T
   6    -66.9772222 -0.142431E-03  0.854E-02    9.49       1.0  T
   7    -66.9773242 -0.101958E-03  0.153E-02    9.48       1.6  T
   8    -66.9773278 -0.364031E-05  0.413E-03    9.49       5.9  T
   9    -66.9773280 -0.123754E-06  0.210E-03    9.49      11.6  T
  10    -66.9773280 -0.517713E-07  0.351E-04    9.49      69.0  T
  11    -66.9773280 -0.943885E-09  0.150E-04    9.49     161.5  T

   *** convergence criteria satisfied after 11 iterations ***

         #    Occupation            Energy/Eh            Energy/eV
      -------------------------------------------------------------
         1        2.0000           -0.8146947             -22.1690
       ...           ...                  ...                  ...
        46        2.0000           -0.3398701              -9.2483
        47        2.0000           -0.3251362              -8.8474
        48        2.0000           -0.3202149              -8.7135
        49        2.0000           -0.3175465              -8.6409
        50        2.0000           -0.3136296              -8.5343
        51        2.0000           -0.2861600              -7.7868
        52        2.0000           -0.2750396              -7.4842 (HOMO)
        53                          0.0736536               2.0042 (LUMO)
        54                          0.0829265               2.2565
        55                          0.1114864               3.0337
        56                          0.1230752               3.3490
        57                          0.1664658               4.5298
       ...                                ...                  ...
        68                          0.4738428              12.8939
      -------------------------------------------------------------
                  HL-Gap            0.3486931 Eh            9.4884 eV
             Fermi-level           -0.1006930 Eh           -2.7400 eV

 SCC (total)                   0 d,  0 h,  0 min,  0.014 sec
 SCC setup                      ...        0 min,  0.000 sec (  0.927%)
 Dispersion                     ...        0 min,  0.000 sec (  0.587%)
 classical contributions        ...        0 min,  0.000 sec (  0.346%)
 integral evaluation            ...        0 min,  0.001 sec (  8.779%)
 iterations                     ...        0 min,  0.010 sec ( 72.008%)
 molecular gradient             ...        0 min,  0.002 sec ( 16.533%)
 printout                       ...        0 min,  0.000 sec (  0.718%)

         :::::::::::::::::::::::::::::::::::::::::::::::::::::
         ::                     SUMMARY                     ::
         :::::::::::::::::::::::::::::::::::::::::::::::::::::
         :: total energy             -66.798906424077 Eh    ::
         :: gradient norm              0.487435574487 Eh/a0 ::
         :: HOMO-LUMO gap              9.488423180689 eV    ::
         ::.................................................::
         :: SCC energy               -66.977261465717 Eh    ::
         :: -> isotropic ES            0.296414925179 Eh    ::
         :: -> anisotropic ES         -0.012339471963 Eh    ::
         :: -> anisotropic XC         -0.070917941123 Eh    ::
         :: -> dispersion             -0.016682415757 Eh    ::
         :: repulsion energy           0.178355041640 Eh    ::
         :: add. restraining           0.000000000000 Eh    ::
         :: total charge              -1.000000000000 e     ::
         :::::::::::::::::::::::::::::::::::::::::::::::::::::

      ----------------------------------------------------------- 
     |                   =====================                   |
     |                        A N C O P T                        |
     |                   =====================                   |
     |               Approximate Normal Coordinate               |
     |                Rational Function Optimizer                |
      ----------------------------------------------------------- 
      ----------------------------------------------------------- 
     |                   =====================                   |
     |                        A N C O P T                        |
     |                   =====================                   |
     |               Approximate Normal Coordinate               |
     |                Rational Function Optimizer                |
      ----------------------------------------------------------- 

          ...................................................
          :                      SETUP                      :
          :.................................................:
          :   optimization level            normal          :
          :   max. optcycles                   200          :
          :   ANC micro-cycles                  20          :
          :   degrees of freedom                45          :
          :.................................................:
          :   RF solver                   davidson          :
          :   write xtbopt.log                true          :
          :   linear?                        false          :
          :   energy convergence         0.5000000E-05 Eh   :
          :   grad. convergence          0.1000000E-02 Eh/α :
          :   maxmium RF displ.          1.0000000          :
          :   Hlow (freq-cutoff)         0.1000000E-01      :
          :   Hmax (freq-cutoff)         5.0000000          :
          :   S6 in model hess.         20.0000000          :
          ...................................................

generating ANC from exact Hessian ...
Using Lindh-Hessian (1995)
 Shifting diagonal of input Hessian by    0.0000000000000000     
 Lowest  eigenvalues of input Hessian
    0.000000    0.000000    0.000000    0.000000    0.000000    0.000000
    0.011506    0.016923    0.027060    0.029481    0.037605    0.054889
    0.062767    0.072078    0.080907    0.083506    0.086131    0.091669
 Highest eigenvalues
    1.654216    1.740336    1.796095    1.849335    1.870515    1.937300


........................................................................
.............................. CYCLE    1 ..............................
........................................................................

 iter      E             dE          RMSdq      gap      omega  full diag
   1    -66.9773280 -0.669773E+02  0.752E-05    9.49       0.0  T
   2    -66.9773280 -0.118860E-09  0.345E-05    9.49     703.2  T
   3    -66.9773280 -0.123208E-10  0.130E-05    9.49    1868.7  T
     SCC iter.                  ...        0 min,  0.002 sec
     gradient                   ...        0 min,  0.002 sec
 * total energy  :   -66.7989064 Eh     change       -0.2712852E-09 Eh
   gradient norm :     0.4874296 Eh/α   predicted     0.0000000E+00 (-100.00%)
   displ. norm   :     0.5898219 α      lambda       -0.2692187E+00
   maximum displ.:     0.3396913 α      in ANC's #31, #23, #28, ...

........................................................................
.............................. CYCLE    2 ..............................
........................................................................

 iter      E             dE          RMSdq      gap      omega  full diag
   1    -67.1244570 -0.671245E+02  0.900E-01    9.18       0.0  T
   2    -67.1247104 -0.253473E-03  0.542E-01    9.18       1.0  T
   3    -67.1247419 -0.314181E-04  0.730E-02    9.22       1.0  T
   4    -67.1247705 -0.286537E-04  0.332E-02    9.21       1.0  T
   5    -67.1247724 -0.191516E-05  0.109E-02    9.21       2.2  T
   6    -67.1247725 -0.811501E-07  0.362E-03    9.21       6.7  T
   7    -67.1247725 -0.371447E-07  0.628E-04    9.21      38.6  T
   8    -67.1247725 -0.533333E-09  0.182E-04    9.21     133.2  T
     SCC iter.                  ...        0 min,  0.006 sec
     gradient                   ...        0 min,  0.002 sec
 * total energy  :   -66.9515699 Eh     change       -0.1526635E+00 Eh
   gradient norm :     0.1347454 Eh/α   predicted    -0.1814386E+00 (  18.85%)
   displ. norm   :     0.3804428 α      lambda       -0.3749280E-01
   maximum displ.:     0.1416379 α      in ANC's #5, #6, #23, ...

........................................................................
.............................. CYCLE    3 ..............................
........................................................................

 iter      E             dE          RMSdq      gap      omega  full diag
   1    -67.1424425 -0.671424E+02  0.281E-01    8.83       0.0  T
   2    -67.1425448 -0.102297E-03  0.178E-01    8.86       1.0  T
   3    -67.1425468 -0.201259E-05  0.625E-02    8.90       1.0  T
   4    -67.1425629 -0.161376E-04  0.212E-02    8.90       1.1  T
   5    -67.1425636 -0.653478E-06  0.302E-03    8.90       8.0  T
   6    -67.1425636 -0.235586E-07  0.126E-03    8.90      19.2  T
   7    -67.1425636 -0.373527E-08  0.308E-04    8.90      78.8  T
   8    -67.1425636 -0.144183E-09  0.952E-05    8.90     254.9  T
     SCC iter.                  ...        0 min,  0.006 sec
     gradient                   ...        0 min,  0.002 sec
 * total energy  :   -66.9798134 Eh     change       -0.2824346E-01 Eh
   gradient norm :     0.0722694 Eh/α   predicted    -0.2145968E-01 ( -24.02%)
   displ. norm   :     0.4063424 α      lambda       -0.2201852E-01
   maximum displ.:     0.1754990 α      in ANC's #5, #13, #6, ...

........................................................................
.............................. CYCLE    4 ..............................
........................................................................

 iter      E             dE          RMSdq      gap      omega  full diag
   1    -67.1503000 -0.671503E+02  0.240E-01    8.42       0.0  T
   2    -67.1504325 -0.132521E-03  0.153E-01    8.44       1.0  T
   3    -67.1504457 -0.132132E-04  0.717E-02    8.47       1.0  T
   4    -67.1504561 -0.103686E-04  0.208E-02    8.48       1.2  T
   5    -67.1504567 -0.654274E-06  0.270E-03    8.48       9.0  T
   6    -67.1504568 -0.171274E-07  0.113E-03    8.48      21.4  T
   7    -67.1504568 -0.346346E-08  0.304E-04    8.48      79.7  T
   8    -67.1504568 -0.104478E-09  0.823E-05    8.48     294.6  T
     SCC iter.                  ...        0 min,  0.006 sec
     gradient                   ...        0 min,  0.002 sec
 * total energy  :   -66.9953142 Eh     change       -0.1550083E-01 Eh
   gradient norm :     0.0386635 Eh/α   predicted    -0.1282704E-01 ( -17.25%)
   displ. norm   :     0.3529110 α      lambda       -0.8710315E-02
   maximum displ.:     0.1966265 α      in ANC's #5, #13, #8, ...

........................................................................
.............................. CYCLE    5 ..............................
........................................................................

 iter      E             dE          RMSdq      gap      omega  full diag
   1    -67.1541379 -0.671541E+02  0.163E-01    8.27       0.0  T
   2    -67.1541929 -0.549948E-04  0.101E-01    8.27       1.0  T
   3    -67.1541979 -0.495531E-05  0.470E-02    8.30       1.0  T
   4    -67.1542033 -0.546004E-05  0.119E-02    8.30       2.0  T
   5    -67.1542036 -0.237320E-06  0.165E-03    8.30      14.7  T
   6    -67.1542036 -0.447044E-08  0.752E-04    8.30      32.3  T
   7    -67.1542036 -0.890211E-09  0.189E-04    8.30     128.1  T
     SCC iter.                  ...        0 min,  0.005 sec
     gradient                   ...        0 min,  0.002 sec
 * total energy  :   -67.0015934 Eh     change       -0.6279179E-02 Eh
   gradient norm :     0.0300295 Eh/α   predicted    -0.4897574E-02 ( -22.00%)
   displ. norm   :     0.3186160 α      lambda       -0.4399946E-02
   maximum displ.:     0.2004403 α      in ANC's #5, #8, #13, ...

........................................................................
.............................. CYCLE    6 ..............................
........................................................................

 iter      E             dE          RMSdq      gap      omega  full diag
   1    -67.1574479 -0.671574E+02  0.115E-01    8.29       0.0  T
   2    -67.1574616 -0.137126E-04  0.704E-02    8.28       1.0  T
   3    -67.1574615  0.123589E-06  0.248E-02    8.30       1.0  T
   4    -67.1574647 -0.319048E-05  0.558E-03    8.29       4.3  T
   5    -67.1574648 -0.570465E-07  0.129E-03    8.29      18.8  T
   6    -67.1574648 -0.529775E-08  0.631E-04    8.29      38.5  T
   7    -67.1574648 -0.261579E-09  0.975E-05    8.29     248.7  T
     SCC iter.                  ...        0 min,  0.005 sec
     gradient                   ...        0 min,  0.002 sec
 * total energy  :   -67.0047795 Eh     change       -0.3186190E-02 Eh
   gradient norm :     0.0234105 Eh/α   predicted    -0.2423297E-02 ( -23.94%)
   displ. norm   :     0.2732564 α      lambda       -0.2354589E-02
   maximum displ.:     0.1777244 α      in ANC's #5, #8, #31, ...

........................................................................
.............................. CYCLE    7 ..............................
........................................................................

 iter      E             dE          RMSdq      gap      omega  full diag
   1    -67.1605413 -0.671605E+02  0.832E-02    8.39       0.0  T
   2    -67.1605450 -0.367964E-05  0.509E-02    8.39       1.0  T
   3    -67.1605457 -0.691091E-06  0.819E-03    8.39       3.0  T
   4    -67.1605462 -0.508717E-06  0.269E-03    8.39       9.0  T
   5    -67.1605462 -0.996721E-08  0.924E-04    8.39      26.2  T
   6    -67.1605462 -0.218573E-08  0.412E-04    8.39      58.9  T
     SCC iter.                  ...        0 min,  0.004 sec
     gradient                   ...        0 min,  0.002 sec
 * total energy  :   -67.0064593 Eh     change       -0.1679737E-02 Eh
   gradient norm :     0.0159625 Eh/α   predicted    -0.1265203E-02 ( -24.68%)
   displ. norm   :     0.2139204 α      lambda       -0.1133627E-02
   maximum displ.:     0.1370511 α      in ANC's #5, #31, #8, ...

........................................................................
.............................. CYCLE    8 ..............................
........................................................................

 iter      E             dE          RMSdq      gap      omega  full diag
   1    -67.1627873 -0.671628E+02  0.669E-02    8.51       0.0  T
   2    -67.1627957 -0.837720E-05  0.416E-02    8.51       1.0  T
   3    -67.1627965 -0.814367E-06  0.182E-02    8.50       1.3  T
   4    -67.1627975 -0.100824E-05  0.465E-03    8.50       5.2  T
   5    -67.1627975 -0.491363E-07  0.901E-04    8.50      26.9  T
   6    -67.1627975 -0.270215E-08  0.391E-04    8.50      62.0  T
     SCC iter.                  ...        0 min,  0.004 sec
     gradient                   ...        0 min,  0.002 sec
 * total energy  :   -67.0072457 Eh     change       -0.7864638E-03 Eh
   gradient norm :     0.0105448 Eh/α   predicted    -0.5927546E-03 ( -24.63%)
   displ. norm   :     0.1500389 α      lambda       -0.4511269E-03
   maximum displ.:     0.0925340 α      in ANC's #5, #31, #8, ...

........................................................................
.............................. CYCLE    9 ..............................
........................................................................

 iter      E             dE          RMSdq      gap      omega  full diag
   1    -67.1638053 -0.671638E+02  0.520E-02    8.58       0.0  T
   2    -67.1638153 -0.100206E-04  0.335E-02    8.58       1.0  T
   3    -67.1638167 -0.141845E-05  0.179E-02    8.58       1.4  T
   4    -67.1638171 -0.411453E-06  0.485E-03    8.57       5.0  T
   5    -67.1638172 -0.505247E-07  0.850E-04    8.57      28.5  T
   6    -67.1638172 -0.269824E-08  0.321E-04    8.57      75.5  T
     SCC iter.                  ...        0 min,  0.004 sec
     gradient                   ...        0 min,  0.002 sec
 * total energy  :   -67.0075494 Eh     change       -0.3036676E-03 Eh
   gradient norm :     0.0071376 Eh/α   predicted    -0.2306426E-03 ( -24.05%)
   displ. norm   :     0.0914198 α      lambda       -0.1548221E-03
   maximum displ.:     0.0503265 α      in ANC's #5, #31, #4, ...

........................................................................
.............................. CYCLE   10 ..............................
........................................................................

 iter      E             dE          RMSdq      gap      omega  full diag
   1    -67.1640316 -0.671640E+02  0.336E-02    8.60       0.0  T
   2    -67.1640368 -0.513673E-05  0.223E-02    8.60       1.1  T
   3    -67.1640375 -0.747954E-06  0.125E-02    8.60       1.9  T
   4    -67.1640377 -0.147646E-06  0.324E-03    8.60       7.5  T
   5    -67.1640377 -0.232353E-07  0.597E-04    8.60      40.6  T
   6    -67.1640377 -0.140835E-08  0.210E-04    8.60     115.7  T
     SCC iter.                  ...        0 min,  0.004 sec
     gradient                   ...        0 min,  0.002 sec
 * total energy  :   -67.0076541 Eh     change       -0.1046904E-03 Eh
   gradient norm :     0.0047873 Eh/α   predicted    -0.7805829E-04 ( -25.44%)
   displ. norm   :     0.0643547 α      lambda       -0.7069479E-04
   maximum displ.:     0.0329739 α      in ANC's #1, #4, #5, ...

........................................................................
.............................. CYCLE   11 ..............................
........................................................................

 iter      E             dE          RMSdq      gap      omega  full diag
   1    -67.1639257 -0.671639E+02  0.224E-02    8.60       0.0  T
   2    -67.1639274 -0.167993E-05  0.149E-02    8.60       1.6  T
   3    -67.1639276 -0.231013E-06  0.779E-03    8.59       3.1  T
   4    -67.1639277 -0.916398E-07  0.176E-03    8.59      13.8  T
   5    -67.1639277 -0.810992E-08  0.335E-04    8.59      72.4  T
   6    -67.1639277 -0.461128E-09  0.141E-04    8.59     171.6  T
     SCC iter.                  ...        0 min,  0.004 sec
     gradient                   ...        0 min,  0.002 sec
 * total energy  :   -67.0077056 Eh     change       -0.5149130E-04 Eh
   gradient norm :     0.0036218 Eh/α   predicted    -0.3549261E-04 ( -31.07%)
   displ. norm   :     0.0789847 α      lambda       -0.6648923E-04
   maximum displ.:     0.0486028 α      in ANC's #1, #4, #2, ...

........................................................................
.............................. CYCLE   12 ..............................
........................................................................

 iter      E             dE          RMSdq      gap      omega  full diag
   1    -67.1636459 -0.671636E+02  0.246E-02    8.58       0.0  T
   2    -67.1636467 -0.850563E-06  0.158E-02    8.58       1.5  T
   3    -67.1636468 -0.104857E-06  0.519E-03    8.58       4.7  T
   4    -67.1636470 -0.135208E-06  0.122E-03    8.58      19.9  T
   5    -67.1636470 -0.539207E-08  0.271E-04    8.58      89.5  T
   6    -67.1636470 -0.251106E-09  0.141E-04    8.58     172.2  T
     SCC iter.                  ...        0 min,  0.004 sec
     gradient                   ...        0 min,  0.002 sec
 * total energy  :   -67.0077548 Eh     change       -0.4923929E-04 Eh
   gradient norm :     0.0040023 Eh/α   predicted    -0.3345140E-04 ( -32.06%)
   displ. norm   :     0.1056723 α      lambda       -0.7407459E-04
   maximum displ.:     0.0669473 α      in ANC's #1, #4, #2, ...

........................................................................
.............................. CYCLE   13 ..............................
........................................................................

 iter      E             dE          RMSdq      gap      omega  full diag
   1    -67.1632942 -0.671633E+02  0.313E-02    8.56       0.0  T
   2    -67.1632950 -0.762421E-06  0.194E-02    8.56       1.2  T
   3    -67.1632953 -0.269913E-06  0.309E-03    8.55       7.8  T
   4    -67.1632953 -0.444679E-07  0.926E-04    8.56      26.2  T
   5    -67.1632953 -0.316362E-08  0.270E-04    8.56      90.0  T
     SCC iter.                  ...        0 min,  0.003 sec
     gradient                   ...        0 min,  0.002 sec
 * total energy  :   -67.0078097 Eh     change       -0.5482841E-04 Eh
   gradient norm :     0.0053638 Eh/α   predicted    -0.3745132E-04 ( -31.69%)
   displ. norm   :     0.1279132 α      lambda       -0.8376905E-04
   maximum displ.:     0.0810672 α      in ANC's #1, #4, #2, ...

........................................................................
.............................. CYCLE   14 ..............................
........................................................................

 iter      E             dE          RMSdq      gap      omega  full diag
   1    -67.1630394 -0.671630E+02  0.379E-02    8.53       0.0  T
   2    -67.1630410 -0.156358E-05  0.233E-02    8.54       1.0  T
   3    -67.1630412 -0.245169E-06  0.721E-03    8.54       3.4  T
   4    -67.1630415 -0.280500E-06  0.155E-03    8.54      15.7  T
   5    -67.1630415 -0.580164E-08  0.412E-04    8.54      58.8  T
   6    -67.1630415 -0.610271E-09  0.162E-04    8.54     149.7  T
     SCC iter.                  ...        0 min,  0.004 sec
     gradient                   ...        0 min,  0.002 sec
 * total energy  :   -67.0078713 Eh     change       -0.6167820E-04 Eh
   gradient norm :     0.0061448 Eh/α   predicted    -0.4256994E-04 ( -30.98%)
   displ. norm   :     0.1334131 α      lambda       -0.9158814E-04
   maximum displ.:     0.0843123 α      in ANC's #1, #4, #2, ...

........................................................................
.............................. CYCLE   15 ..............................
........................................................................

 iter      E             dE          RMSdq      gap      omega  full diag
   1    -67.1630912 -0.671631E+02  0.404E-02    8.53       0.0  T
   2    -67.1630938 -0.263791E-05  0.249E-02    8.53       1.0  T
   3    -67.1630941 -0.324957E-06  0.101E-02    8.53       2.4  T
   4    -67.1630945 -0.398601E-06  0.221E-03    8.53      11.0  T
   5    -67.1630945 -0.106253E-07  0.476E-04    8.53      51.0  T
   6    -67.1630945 -0.104914E-08  0.189E-04    8.53     128.5  T
     SCC iter.                  ...        0 min,  0.004 sec
     gradient                   ...        0 min,  0.002 sec
 * total energy  :   -67.0079384 Eh     change       -0.6706841E-04 Eh
   gradient norm :     0.0054079 Eh/α   predicted    -0.4661082E-04 ( -30.50%)
   displ. norm   :     0.1246467 α      lambda       -0.8798601E-04
   maximum displ.:     0.0773663 α      in ANC's #1, #4, #5, ...

........................................................................
.............................. CYCLE   16 ..............................
........................................................................

 iter      E             dE          RMSdq      gap      omega  full diag
   1    -67.1634654 -0.671635E+02  0.377E-02    8.54       0.0  T
   2    -67.1634679 -0.250109E-05  0.233E-02    8.54       1.0  T
   3    -67.1634682 -0.346453E-06  0.935E-03    8.54       2.6  T
   4    -67.1634685 -0.327119E-06  0.257E-03    8.54       9.4  T
   5    -67.1634686 -0.169800E-07  0.444E-04    8.54      54.6  T
   6    -67.1634686 -0.673893E-09  0.216E-04    8.54     112.5  T
     SCC iter.                  ...        0 min,  0.004 sec
     gradient                   ...        0 min,  0.002 sec
 * total energy  :   -67.0080012 Eh     change       -0.6276930E-04 Eh
   gradient norm :     0.0037118 Eh/α   predicted    -0.4467454E-04 ( -28.83%)
   displ. norm   :     0.1085563 α      lambda       -0.6233621E-04
   maximum displ.:     0.0661754 α      in ANC's #1, #5, #4, ...

........................................................................
.............................. CYCLE   17 ..............................
........................................................................

 iter      E             dE          RMSdq      gap      omega  full diag
   1    -67.1638664 -0.671639E+02  0.311E-02    8.56       0.0  T
   2    -67.1638677 -0.125252E-05  0.191E-02    8.56       1.3  T
   3    -67.1638680 -0.314686E-06  0.520E-03    8.56       4.7  T
   4    -67.1638681 -0.926346E-07  0.198E-03    8.56      12.3  T
   5    -67.1638681 -0.172272E-07  0.306E-04    8.56      79.2  T
   6    -67.1638681 -0.924985E-10  0.133E-04    8.56     181.7  T
     SCC iter.                  ...        0 min,  0.004 sec
     gradient                   ...        0 min,  0.003 sec
 * total energy  :   -67.0080457 Eh     change       -0.4456294E-04 Eh
   gradient norm :     0.0031073 Eh/α   predicted    -0.3153556E-04 ( -29.23%)
   displ. norm   :     0.1036366 α      lambda       -0.4610994E-04
   maximum displ.:     0.0664373 α      in ANC's #1, #5, #4, ...

........................................................................
.............................. CYCLE   18 ..............................
........................................................................

 iter      E             dE          RMSdq      gap      omega  full diag
   1    -67.1641352 -0.671641E+02  0.287E-02    8.57       0.0  T
   2    -67.1641361 -0.913356E-06  0.177E-02    8.57       1.4  T
   3    -67.1641364 -0.295674E-06  0.385E-03    8.57       6.3  T
   4    -67.1641365 -0.356856E-07  0.134E-03    8.57      18.2  T
   5    -67.1641365 -0.974484E-08  0.245E-04    8.57      99.1  T
   6    -67.1641365 -0.174083E-09  0.120E-04    8.57     202.9  T
     SCC iter.                  ...        0 min,  0.004 sec
     gradient                   ...        0 min,  0.002 sec
 * total energy  :   -67.0080794 Eh     change       -0.3360897E-04 Eh
   gradient norm :     0.0031007 Eh/α   predicted    -0.2330075E-04 ( -30.67%)
   displ. norm   :     0.1109204 α      lambda       -0.3865694E-04
   maximum displ.:     0.0757237 α      in ANC's #1, #4, #5, ...

........................................................................
.............................. CYCLE   19 ..............................
........................................................................

 iter      E             dE          RMSdq      gap      omega  full diag
   1    -67.1641117 -0.671641E+02  0.310E-02    8.57       0.0  T
   2    -67.1641128 -0.102936E-05  0.194E-02    8.57       1.2  T
   3    -67.1641130 -0.245491E-06  0.480E-03    8.57       5.1  T
   4    -67.1641132 -0.130640E-06  0.154E-03    8.57      15.7  T
   5    -67.1641132 -0.781448E-08  0.268E-04    8.57      90.4  T
   6    -67.1641132 -0.303217E-09  0.138E-04    8.57     175.7  T
     SCC iter.                  ...        0 min,  0.004 sec
     gradient                   ...        0 min,  0.002 sec
 * total energy  :   -67.0081066 Eh     change       -0.2728498E-04 Eh
   gradient norm :     0.0029006 Eh/α   predicted    -0.1956738E-04 ( -28.29%)
   displ. norm   :     0.0661510 α      lambda       -0.3146252E-04
   maximum displ.:     0.0456084 α      in ANC's #1, #4, #5, ...

........................................................................
.............................. CYCLE   20 ..............................
........................................................................

 iter      E             dE          RMSdq      gap      omega  full diag
   1    -67.1646806 -0.671647E+02  0.220E-02    8.58       0.0  T
   2    -67.1646816 -0.946726E-06  0.137E-02    8.58       1.8  T
   3    -67.1646817 -0.809744E-07  0.530E-03    8.58       4.6  T
   4    -67.1646818 -0.948647E-07  0.115E-03    8.58      21.2  T
   5    -67.1646818 -0.303380E-08  0.339E-04    8.58      71.5  T
   6    -67.1646818 -0.565777E-09  0.128E-04    8.58     189.0  T
     SCC iter.                  ...        0 min,  0.004 sec
     gradient                   ...        0 min,  0.002 sec
 * total energy  :   -67.0081211 Eh     change       -0.1444288E-04 Eh
   gradient norm :     0.0032609 Eh/α   predicted    -0.1579858E-04 (   9.39%)
   displ. norm   :     0.1576042 α      lambda       -0.4045345E-04
   maximum displ.:     0.1090873 α      in ANC's #1, #4, #5, ...
 * RMSD in coord.:     0.6928691 α      energy gain  -0.2092147E+00 Eh

generating ANC from exact Hessian ...
Using Lindh-Hessian (1995)
 Shifting diagonal of input Hessian by    5.9770722625909177E-003
 Lowest  eigenvalues of input Hessian
    0.000000    0.000000    0.000000    0.000000    0.000000    0.000000
    0.010000    0.011390    0.012879    0.017745    0.019728    0.026069
    0.034482    0.036595    0.044713    0.056560    0.060041    0.062221
 Highest eigenvalues
    1.540384    1.559153    1.610556    1.660323    1.740425    1.848569


........................................................................
.............................. CYCLE   21 ..............................
........................................................................

 iter      E             dE          RMSdq      gap      omega  full diag
   1    -67.1634993 -0.671635E+02  0.476E-02    8.55       0.0  T
   2    -67.1635019 -0.264876E-05  0.301E-02    8.55       1.0  T
   3    -67.1635023 -0.388838E-06  0.802E-03    8.55       3.0  T
   4    -67.1635028 -0.430733E-06  0.153E-03    8.55      15.9  T
   5    -67.1635028 -0.410424E-08  0.439E-04    8.55      55.2  T
   6    -67.1635028 -0.910333E-09  0.210E-04    8.55     115.6  T
     SCC iter.                  ...        0 min,  0.004 sec
     gradient                   ...        0 min,  0.002 sec
 * total energy  :   -67.0081238 Eh     change       -0.2695587E-05 Eh
   gradient norm :     0.0042252 Eh/α   predicted     0.0000000E+00 (-100.00%)
   displ. norm   :     0.0236671 α      lambda       -0.2836299E-04
   maximum displ.:     0.0130543 α      in ANC's #3, #2, #1, ...

........................................................................
.............................. CYCLE   22 ..............................
........................................................................

 iter      E             dE          RMSdq      gap      omega  full diag
   1    -67.1639995 -0.671640E+02  0.121E-02    8.57       0.0  T
   2    -67.1639999 -0.337282E-06  0.760E-03    8.57       3.2  T
   3    -67.1639999 -0.205268E-07  0.325E-03    8.57       7.5  T
   4    -67.1639999 -0.230062E-07  0.711E-04    8.57      34.1  T
   5    -67.1639999 -0.120353E-08  0.161E-04    8.57     151.0  T
     SCC iter.                  ...        0 min,  0.004 sec
     gradient                   ...        0 min,  0.002 sec
 * total energy  :   -67.0081452 Eh     change       -0.2145319E-04 Eh
   gradient norm :     0.0023028 Eh/α   predicted    -0.1419001E-04 ( -33.86%)
   displ. norm   :     0.0339852 α      lambda       -0.1965744E-04
   maximum displ.:     0.0187497 α      in ANC's #2, #1, #3, ...

........................................................................
.............................. CYCLE   23 ..............................
........................................................................

 iter      E             dE          RMSdq      gap      omega  full diag
   1    -67.1644858 -0.671645E+02  0.135E-02    8.58       0.0  T
   2    -67.1644864 -0.595419E-06  0.845E-03    8.58       2.9  T
   3    -67.1644865 -0.609337E-07  0.419E-03    8.58       5.8  T
   4    -67.1644865 -0.265883E-07  0.114E-03    8.58      21.3  T
   5    -67.1644865 -0.289629E-08  0.196E-04    8.58     123.5  T
   6    -67.1644865 -0.283990E-09  0.905E-05    8.58     267.9  T
     SCC iter.                  ...        0 min,  0.004 sec
     gradient                   ...        0 min,  0.002 sec
 * total energy  :   -67.0081561 Eh     change       -0.1087421E-04 Eh
   gradient norm :     0.0007243 Eh/α   predicted    -0.9841839E-05 (  -9.49%)
   displ. norm   :     0.0193901 α      lambda       -0.1899635E-05
   maximum displ.:     0.0137455 α      in ANC's #2, #1, #3, ...

........................................................................
.............................. CYCLE   24 ..............................
........................................................................

 iter      E             dE          RMSdq      gap      omega  full diag
   1    -67.1644709 -0.671645E+02  0.540E-03    8.58       0.0  T
   2    -67.1644709 -0.612198E-07  0.344E-03    8.58       7.0  T
   3    -67.1644709 -0.713844E-08  0.137E-03    8.58      17.7  T
   4    -67.1644709 -0.470709E-08  0.466E-04    8.58      52.0  T
   5    -67.1644709 -0.665864E-09  0.654E-05    8.58     371.0  T
     SCC iter.                  ...        0 min,  0.004 sec
     gradient                   ...        0 min,  0.002 sec
 * total energy  :   -67.0081581 Eh     change       -0.2038441E-05 Eh
   gradient norm :     0.0005111 Eh/α   predicted    -0.9515215E-06 ( -53.32%)
   displ. norm   :     0.0217739 α      lambda       -0.1670791E-05
   maximum displ.:     0.0160380 α      in ANC's #2, #1, #5, ...

   *** GEOMETRY OPTIMIZATION CONVERGED AFTER 24 ITERATIONS ***

------------------------------------------------------------------------
 total energy gain   :        -0.2092517 Eh     -131.3074 kcal/mol
 total RMSD          :         0.6858314 a0        0.3629 Å
 total power (kW/mol):       -22.8912630 (step)-2709.8046 (real)
------------------------------------------------------------------------

 ANCopt (total)                0 d,  0 h,  0 min,  0.203 sec
 optimizer setup                ...        0 min,  0.000 sec (  0.033%)
 model hessian                  ...        0 min,  0.013 sec (  6.450%)
 ANC generation                 ...        0 min,  0.000 sec (  0.223%)
 coordinate transformation      ...        0 min,  0.000 sec (  0.067%)
 single point calculation       ...        0 min,  0.184 sec ( 90.892%)
 optimization log               ...        0 min,  0.001 sec (  0.637%)
 hessian update                 ...        0 min,  0.000 sec (  0.151%)
 rational function              ...        0 min,  0.002 sec (  1.138%)

================
 final structure:
================
17
 xtb: 6.7.1 (edcfbbe)
F            1.00919374571481        0.29653044436562        0.22278218266653
C            2.31115667495779        0.04577394662216        0.04763943285441
C            2.70143278035019       -1.39228382369832        0.47428052409104
C            2.19842983760648       -2.53775169523506       -0.42230324158435
F            2.80591220714342       -2.34195178712961       -1.64322942456803
F            2.79538733888504       -3.67034693713332        0.06693178827575
B            0.49528668857925       -2.68960057765319       -0.55598770742787
F           -0.04838943981880       -2.62914423287047        0.70840204986245
F            0.04774799341469       -1.62680251901015       -1.31744759653079
F            0.19247211184348       -3.88181212913620       -1.16176226882814
F            4.06789951705884       -1.39668548253873        0.54855873140443
F            2.28784358279155       -1.55736718000166        1.74683838083281
C            2.72895686762320        0.48988876649823       -1.38003923102889
F            2.66630447716230        1.83195781367586       -1.44196192343467
F            3.99364609800767        0.16864382684848       -1.65006190688658
F            1.96417253890234        0.03331014340366       -2.35035021484624
F            2.95942697977777        0.90315142299273        0.88940042514815

 Bond Distances (Angstroems)
 ---------------------------
F1-C2=1.3374         C2-F1=1.3374         C2-C3=1.5500         C2-C13=1.5524        C2-F17=1.3653        C3-C2=1.5500         
C3-C4=1.5391         C3-F11=1.3685        C3-F12=1.3482        C4-C3=1.5391         C4-F5=1.3777         C4-F6=1.3706         
C4-B7=1.7151         F5-C4=1.3777         F6-C4=1.3706         B7-C4=1.7151         B7-F8=1.3777         B7-F9=1.3819         
B7-F10=1.3711        F8-B7=1.3777         F9-B7=1.3819         F10-B7=1.3711        F11-C3=1.3685        F12-C3=1.3482        
C13-C2=1.5524        C13-F14=1.3450       C13-F15=1.3325       C13-F16=1.3171       F14-C13=1.3450       F15-C13=1.3325       
F16-C13=1.3171       F17-C2=1.3653        
 C  B  Rav=1.7151 sigma=0.0000  Rmin=1.7151  Rmax=1.7151     1
 C  C  Rav=1.5472 sigma=0.0058  Rmin=1.5391  Rmax=1.5524     3
 F  B  Rav=1.3769 sigma=0.0044  Rmin=1.3711  Rmax=1.3819     3
 F  C  Rav=1.3514 sigma=0.0192  Rmin=1.3171  Rmax=1.3777     9

 selected bond angles (degree)
 --------------------
C3-C2-F1=112.52                C13-C2-F1=109.20               C13-C2-C3=116.79               F17-C2-F1=105.29               
F17-C2-C3=107.06               F17-C2-C13=105.04              C4-C3-C2=116.61                F11-C3-C2=105.63               
F11-C3-C4=110.83               F12-C3-C2=107.23               F12-C3-C4=111.00               F12-C3-F11=104.76              
F5-C4-C3=105.45                F6-C4-C3=105.35                F6-C4-F5=103.99                B7-C4-C3=115.84                
B7-C4-F5=112.42                B7-C4-F6=112.78                F8-B7-C4=108.45                F9-B7-C4=107.24                
F9-B7-F8=110.13                F10-B7-C4=109.31               F10-B7-F8=110.88               F10-B7-F9=110.72               

 selected dihedral angles (degree)
 ---------------------------------
C4-C3-C2-F1= 70.63            C4-C3-C2-C13=303.18           C4-C3-C2-F17=185.84           F11-C3-C2-F1=194.21           
F11-C3-C2-C13= 66.75          F11-C3-C2-F17=309.42          F12-C3-C2-F1=305.53           F12-C3-C2-C13=178.07          
F12-C3-C2-F17= 60.74          F5-C4-C3-C2= 63.53            F5-C4-C3-F11=302.68           F5-C4-C3-F12=186.71           
F6-C4-C3-C2=173.16            F6-C4-C3-F11= 52.31           F6-C4-C3-F12=296.34           B7-C4-C3-C2=298.55            
B7-C4-C3-F11=177.69           B7-C4-C3-F12= 61.72           F8-B7-C4-C3=312.45            F8-B7-C4-F5=191.12            
F8-B7-C4-F6= 73.94            F9-B7-C4-C3= 71.36            F9-B7-C4-F5=310.03            F9-B7-C4-F6=192.85            
F10-B7-C4-C3=191.44           F10-B7-C4-F5= 70.12           F10-B7-C4-F6=312.93           
           -------------------------------------------------
          |                Final Singlepoint                |
           -------------------------------------------------

          ...................................................
          :                      SETUP                      :
          :.................................................:
          :  # basis functions                  68          :
          :  # atomic orbitals                  68          :
          :  # shells                           34          :
          :  # electrons                       104          :
          :  max. iterations                   250          :
          :  Hamiltonian                  GFN2-xTB          :
          :  restarted?                      false          :
          :  GBSA solvation                  false          :
          :  PC potential                    false          :
          :  electronic temp.          300.0000000     K    :
          :  accuracy                    1.0000000          :
          :  -> integral cutoff          0.2500000E+02      :
          :  -> integral neglect         0.1000000E-07      :
          :  -> SCF convergence          0.1000000E-05 Eh   :
          :  -> wf. convergence          0.1000000E-03 e    :
          :  Broyden damping             0.4000000          :
          :  net charge                         -1          :
          :  unpaired electrons                  0          :
          ...................................................

 iter      E             dE          RMSdq      gap      omega  full diag
   1    -67.1644709 -0.671645E+02  0.335E-05    8.58       0.0  T
   2    -67.1644709 -0.108002E-11  0.192E-05    8.58    1261.5  T
   3    -67.1644709  0.852651E-13  0.558E-06    8.58    4347.9  T

   *** convergence criteria satisfied after 3 iterations ***

         #    Occupation            Energy/Eh            Energy/eV
      -------------------------------------------------------------
         1        2.0000           -0.8185194             -22.2730
       ...           ...                  ...                  ...
        46        2.0000           -0.3639800              -9.9044
        47        2.0000           -0.3396939              -9.2435
        48        2.0000           -0.3379371              -9.1957
        49        2.0000           -0.3308273              -9.0023
        50        2.0000           -0.3286330              -8.9426
        51        2.0000           -0.3279296              -8.9234
        52        2.0000           -0.2935820              -7.9888 (HOMO)
        53                          0.0219056               0.5961 (LUMO)
        54                          0.0289069               0.7866
        55                          0.0477164               1.2984
        56                          0.0762098               2.0738
        57                          0.1050057               2.8574
       ...                                ...                  ...
        68                          0.5248017              14.2806
      -------------------------------------------------------------
                  HL-Gap            0.3154876 Eh            8.5849 eV
             Fermi-level           -0.1358382 Eh           -3.6963 eV

 SCC (total)                   0 d,  0 h,  0 min,  0.006 sec
 SCC setup                      ...        0 min,  0.000 sec (  1.101%)
 Dispersion                     ...        0 min,  0.000 sec (  0.792%)
 classical contributions        ...        0 min,  0.000 sec (  0.153%)
 integral evaluation            ...        0 min,  0.001 sec ( 16.592%)
 iterations                     ...        0 min,  0.002 sec ( 39.824%)
 molecular gradient             ...        0 min,  0.002 sec ( 40.041%)
 printout                       ...        0 min,  0.000 sec (  1.250%)

         :::::::::::::::::::::::::::::::::::::::::::::::::::::
         ::                     SUMMARY                     ::
         :::::::::::::::::::::::::::::::::::::::::::::::::::::
         :: total energy             -67.008158143051 Eh    ::
         :: gradient norm              0.000510639072 Eh/a0 ::
         :: HOMO-LUMO gap              8.584854866732 eV    ::
         ::.................................................::
         :: SCC energy               -67.164387254397 Eh    ::
         :: -> isotropic ES            0.287324620980 Eh    ::
         :: -> anisotropic ES         -0.007356793521 Eh    ::
         :: -> anisotropic XC         -0.069303918814 Eh    ::
         :: -> dispersion             -0.015621601972 Eh    ::
         :: repulsion energy           0.156229111345 Eh    ::
         :: add. restraining           0.000000000000 Eh    ::
         :: total charge              -1.000000000000 e     ::
         :::::::::::::::::::::::::::::::::::::::::::::::::::::

           -------------------------------------------------
          |                Property Printout                |
           -------------------------------------------------

    * Orbital Energies and Occupations

         #    Occupation            Energy/Eh            Energy/eV
      -------------------------------------------------------------
         1        2.0000           -0.8185194             -22.2730
       ...           ...                  ...                  ...
        40        2.0000           -0.3996978             -10.8763
        41        2.0000           -0.3968429             -10.7986
        42        2.0000           -0.3883160             -10.5666
        43        2.0000           -0.3818988             -10.3920
        44        2.0000           -0.3790042             -10.3132
        45        2.0000           -0.3770927             -10.2612
        46        2.0000           -0.3639800              -9.9044
        47        2.0000           -0.3396939              -9.2435
        48        2.0000           -0.3379371              -9.1957
        49        2.0000           -0.3308273              -9.0023
        50        2.0000           -0.3286330              -8.9426
        51        2.0000           -0.3279296              -8.9234
        52        2.0000           -0.2935820              -7.9888 (HOMO)
        53                          0.0219056               0.5961 (LUMO)
        54                          0.0289069               0.7866
        55                          0.0477164               1.2984
        56                          0.0762098               2.0738
        57                          0.1050057               2.8574
        58                          0.1343059               3.6546
        59                          0.1723107               4.6888
        60                          0.1822657               4.9597
        61                          0.1903150               5.1787
        62                          0.2308096               6.2806
        63                          0.2406450               6.5483
       ...                                ...                  ...
        68                          0.5248017              14.2806
      -------------------------------------------------------------
                  HL-Gap            0.3154876 Eh            8.5849 eV
             Fermi-level           -0.1358382 Eh           -3.6963 eV

     #   Z          covCN         q      C6AA      α(0)
     1   9 F        0.789    -0.165    10.882     3.897
     2   6 C        3.520     0.312    16.988     6.076
     3   6 C        3.522     0.320    16.873     6.052
     4   6 C        3.403     0.198    20.436     6.976
     5   9 F        0.788    -0.253    11.793     4.056
     6   9 F        0.788    -0.227    11.523     4.010
     7   5 B        3.024     0.592    13.572     6.145
     8   9 F        0.721    -0.388    13.383     4.320
     9   9 F        0.721    -0.397    13.497     4.338
    10   9 F        0.722    -0.372    13.180     4.287
    11   9 F        0.789    -0.211    11.352     3.980
    12   9 F        0.790    -0.186    11.091     3.934
    13   6 C        3.329     0.487    17.370     6.615
    14   9 F        0.793    -0.186    11.093     3.934
    15   9 F        0.791    -0.175    10.982     3.915
    16   9 F        0.791    -0.152    10.749     3.873
    17   9 F        0.791    -0.196    11.195     3.952

 Mol. C6AA /au·bohr⁶  :       3748.817618
 Mol. C8AA /au·bohr⁸  :      79439.528592
 Mol. α(0) /au        :         80.361039


Wiberg/Mayer (AO) data.
largest (>0.10) Wiberg bond orders for each atom

 ---------------------------------------------------------------------------
     #   Z sym  total        # sym  WBO       # sym  WBO       # sym  WBO
 ---------------------------------------------------------------------------
     1   9 F    1.101 --     2 C    0.986
     2   6 C    3.880 --     1 F    0.986    17 F    0.948     3 C    0.918
                            13 C    0.901
     3   6 C    3.858 --    12 F    0.969    11 F    0.938     4 C    0.932
                             2 C    0.918
     4   6 C    3.649 --     6 F    0.946     3 C    0.932     5 F    0.927
                             7 B    0.722
     5   9 F    1.015 --     4 C    0.927
     6   9 F    1.039 --     4 C    0.946
     7   5 B    3.337 --    10 F    0.876     8 F    0.857     9 F    0.846
                             4 C    0.722
     8   9 F    0.944 --     7 B    0.857
     9   9 F    0.933 --     7 B    0.846
    10   9 F    0.965 --     7 B    0.876
    11   9 F    1.051 --     3 C    0.938
    12   9 F    1.080 --     3 C    0.969
    13   6 C    3.870 --    16 F    0.994    15 F    0.968    14 F    0.951
                             2 C    0.901
    14   9 F    1.081 --    13 C    0.951
    15   9 F    1.098 --    13 C    0.968
    16   9 F    1.128 --    13 C    0.994
    17   9 F    1.059 --     2 C    0.948
 ---------------------------------------------------------------------------

Topologies differ in total number of bonds
Writing topology from bond orders to xtbtopo.mol

molecular dipole:
                 x           y           z       tot (Debye)
 q only:       -2.457       4.217       0.803
   full:       -2.293       4.274       0.820      12.503
molecular quadrupole (traceless):
                xx          xy          yy          xz          yz          zz
 q only:        0.503      11.203     -15.808       1.667      -5.952      15.305
  q+dip:        1.571      10.406     -16.635       1.731      -6.209      15.064
   full:        1.764      10.237     -16.845       1.649      -6.161      15.081

           -------------------------------------------------
          |                Geometry Summary                 |
           -------------------------------------------------

      molecular mass/u    :      286.8348096
   center of mass at/Å    :        2.0736404      -1.1622158      -0.4310395
  moments of inertia/u·Å² :        0.7158629E+03   0.1234036E+04   0.1327003E+04
rotational constants/cm⁻¹ :        0.2354869E-01   0.1366057E-01   0.1270353E-01

 * 12 selected distances

     #   Z          #   Z                                           value/Å
     1   9 F        2   6 C                                       1.3374085
     4   6 C        5   9 F                                       1.3776914
     4   6 C        6   9 F                                       1.3705771
     7   5 B        8   9 F                                       1.3776504
     7   5 B        9   9 F                                       1.3819016 (max)
     7   5 B       10   9 F                                       1.3711412
     3   6 C       11   9 F                                       1.3684913
     3   6 C       12   9 F                                       1.3482256
    13   6 C       14   9 F                                       1.3449570
    13   6 C       15   9 F                                       1.3324976
    13   6 C       16   9 F                                       1.3171419 (min)
     2   6 C       17   9 F                                       1.3652518

 * 2 distinct bonds (by element types)

   Z      Z             #   av. dist./Å        max./Å        min./Å
   5 B    9 F           3     1.3768977     1.3819016     1.3711412
   6 C    9 F           9     1.3513602     1.3776914     1.3171419


optimized geometry written to: xtbopt.xyz


           -------------------------------------------------
          | TOTAL ENERGY              -67.008158143051 Eh   |
          | GRADIENT NORM               0.000510639072 Eh/α |
          | HOMO-LUMO GAP               8.584854866732 eV   |
           -------------------------------------------------

------------------------------------------------------------------------
 * finished run on 2024/12/20 at 01:52:14.483     
------------------------------------------------------------------------
 total:
 * wall-time:     0 d,  0 h,  0 min,  0.239 sec
 *  cpu-time:     0 d,  0 h,  0 min,  1.891 sec
 * ratio c/w:     7.927 speedup
 SCF:
 * wall-time:     0 d,  0 h,  0 min,  0.014 sec
 *  cpu-time:     0 d,  0 h,  0 min,  0.112 sec
 * ratio c/w:     7.928 speedup
 ANC optimizer:
 * wall-time:     0 d,  0 h,  0 min,  0.209 sec
 *  cpu-time:     0 d,  0 h,  0 min,  1.668 sec
 * ratio c/w:     7.980 speedup

