10
 energy: -38.475417218210 gnorm: 0.121378809889 xtb: 6.7.1 (edcfbbe)
F            1.02582000000000        0.08602000000000        0.09901000000000
C            2.39808000000000        0.04353000000000        0.11540000000000
C            2.88817000000000       -0.00599000000000        1.56353000000000
O            3.61537000000000       -0.98551000000000        1.90435000000000
O            2.51820000000000        0.95394000000000        2.31119000000000
C            2.89778000000000       -1.13970000000000       -0.66835000000000
F            2.43673000000000       -1.05751000000000       -1.95964000000000
F            4.24704000000000       -1.20610000000000       -0.78863000000000
F            2.45320000000000       -2.34011000000000       -0.22032000000000
F            2.81276000000000        1.21566000000000       -0.46711000000000
10
 energy: -38.484644294524 gnorm: 0.063751699827 xtb: 6.7.1 (edcfbbe)
F            1.03593980704581        0.06834715446926        0.06959097644314
C            2.40407021769859        0.04477460019282        0.13678678712752
C            2.89916125533680        0.00278381604206        1.61572876998412
O            3.60893041261284       -0.96873571227012        1.91749721731134
O            2.53039566979915        0.94451697528103        2.33088543008875
C            2.88805764203378       -1.13434176427689       -0.68834705457960
F            2.43824098504005       -1.06920403269273       -1.97820095041832
F            4.22447305147249       -1.19722233568260       -0.79150330712769
F            2.45202517890249       -2.31771000220546       -0.22997078616305
F            2.81185578005801        1.19102130114262       -0.49303708266622
10
 energy: -38.488236376744 gnorm: 0.028324558109 xtb: 6.7.1 (edcfbbe)
F            1.03953427963001        0.05824985636212        0.04769328417270
C            2.40534022064471        0.04608194990464        0.14340231979224
C            2.91177847308784        0.01062063600557        1.67119590531203
O            3.60709329499123       -0.96094646772429        1.92724079905403
O            2.53323995325637        0.94697477927389        2.34476620546779
C            2.88520387043458       -1.13751282070521       -0.70368540249150
F            2.43761912807539       -1.07160018817997       -1.98494288068444
F            4.21065305875435       -1.19689295614228       -0.79998792894550
F            2.45276944192134       -2.30817386216160       -0.24306990590192
F            2.80991827920418        1.17742907336713       -0.51318239577543
10
 energy: -38.489292921156 gnorm: 0.018890644931 xtb: 6.7.1 (edcfbbe)
F            1.03654218793170        0.05684162941701        0.03886396223187
C            2.40271189389515        0.04718511569649        0.13730346947491
C            2.91999002508404        0.01309709999306        1.70204703356428
O            3.61058614369307       -0.96347252034384        1.93323339751334
O            2.53124343294222        0.95572569001281        2.35593595830139
C            2.88478460075262       -1.14055762821807       -0.71108763567016
F            2.43729176839806       -1.07333442445899       -1.98943160134861
F            4.20916302858872       -1.19883000853580       -0.80575365210453
F            2.45246403678405       -2.30936153825397       -0.24920854129866
F            2.80837288193038        1.17693658469130       -0.52247239066383
10
 energy: -38.489871227805 gnorm: 0.009802713709 xtb: 6.7.1 (edcfbbe)
F            1.03022205366946        0.05875138190902        0.03324053743488
C            2.39793776401220        0.04836745233854        0.12460340156477
C            2.92883821717586        0.01262024018128        1.72905698608532
O            3.61515558416986       -0.96628658874030        1.94201580904987
O            2.53069313973973        0.96130004373267        2.36529492602466
C            2.88354827470429       -1.14163752711727       -0.71714382803071
F            2.43789728377924       -1.07786760873237       -1.99657963758439
F            4.21106168139933       -1.20010301281844       -0.80953436497726
F            2.45130263428351       -2.31256737436465       -0.25202645775474
F            2.80649336706653        1.18165299361153       -0.52949737181241
10
 energy: -38.490007660819 gnorm: 0.004807567185 xtb: 6.7.1 (edcfbbe)
F            1.02635578201178        0.06051362227812        0.03129116339083
C            2.39542858187549        0.04821248848998        0.11634395413608
C            2.93352176871538        0.01132290664185        1.74115768935902
O            3.61789278143387       -0.96680675231877        1.94968738213368
O            2.53222728241668        0.96131724254101        2.37025655400311
C            2.88116176508105       -1.13968032554324       -0.72077901611094
F            2.43953313588751       -1.08425371869641       -2.00412087423609
F            4.21152895578593       -1.19902297350329       -0.81006069780447
F            2.45002463278837       -2.31259157157518       -0.25198010311378
F            2.80547531400394        1.18521908168592       -0.53236605175744
10
 energy: -38.490038691959 gnorm: 0.001793888595 xtb: 6.7.1 (edcfbbe)
F            1.02476859131030        0.06144799296306        0.03101635409797
C            2.39481322799113        0.04715591596012        0.11238061812440
C            2.93560398490467        0.01033600854108        1.74602039455320
O            3.61955268318610       -0.96651865613451        1.95530179411722
O            2.53342901018343        0.96053626628149        2.37225193749103
C            2.87909345147314       -1.13753791516357       -0.72300939625968
F            2.44109181538904       -1.08946255407170       -2.00970934621212
F            4.21081482356831       -1.19740136654952       -0.81000164467721
F            2.44888894967954       -2.31123215815388       -0.25184556683101
F            2.80509346231434        1.18690646632743       -0.53297514440382
10
 energy: -38.490042943651 gnorm: 0.000609775327 xtb: 6.7.1 (edcfbbe)
F            1.02489068730367        0.06177768780724        0.03217322123868
C            2.39552117547066        0.04573350769637        0.11145150014138
C            2.93628113655190        0.01006637616464        1.74665178096580
O            3.62008417733368       -0.96602259112563        1.95871349003013
O            2.53315738397334        0.96021421081854        2.37164414778845
C            2.87807380807115       -1.13643351574647       -0.72410785663417
F            2.44178774263941       -1.09213777998248       -2.01242603681548
F            4.20989364565195       -1.19628249483875       -0.81047938374219
F            2.44816977517351       -2.31000187516490       -0.25217124516701
F            2.80529046783072        1.18731647437145       -0.53201961780560
