16
 energy: -35.624139102233 gnorm: 0.058114311400 xtb: 6.7.1 (edcfbbe)
O            1.12328000000000        0.26801000000000        0.06496000000000
C            2.34898000000000        0.20690000000000        0.07521000000000
N            3.21477000000000        1.23774000000000        0.08704000000000
S            4.72562000000000        0.70423000000000        0.09875000000000
O            5.48755000000000        0.89343000000000       -1.13095000000000
O            5.46346000000000        0.88031000000000        1.34500000000000
C            4.37236000000000       -1.00378000000000        0.08640000000000
C            5.23466000000000       -2.07861000000000        0.08739000000000
C            4.65245000000000       -3.34764000000000        0.07629000000000
C            3.24946000000000       -3.49403000000000        0.06487000000000
C            2.41068000000000       -2.37127000000000        0.06385000000000
C            3.00213000000000       -1.12038000000000        0.07462000000000
H            6.30695000000000       -1.92544000000000        0.09641000000000
H            5.28704000000000       -4.22963000000000        0.07654000000000
H            2.81273000000000       -4.48905000000000        0.05666000000000
H            1.33040000000000       -2.46449000000000        0.05496000000000
16
 energy: -35.631348247390 gnorm: 0.031436969753 xtb: 6.7.1 (edcfbbe)
O            1.12382842022282        0.29910605539404        0.06520751066626
C            2.35159852185004        0.21206476433562        0.07535867764943
N            3.21533201770839        1.23283384983937        0.08714540039722
S            4.73255168309880        0.70795092762533        0.09875132459854
O            5.48141926549215        0.97937512079364       -1.12377842333935
O            5.45771242867701        0.96614689449800        1.33832444903958
C            4.38637092531680       -1.02562021023797        0.08639319668152
C            5.22818254494358       -2.11113289564872        0.08727547754635
C            4.63881630345649       -3.36951092424071        0.07613005802653
C            3.25163233377697       -3.50331710093797        0.06477330462080
C            2.42163221441896       -2.38798882727978        0.06380298417891
C            3.01310030552683       -1.13599617247103        0.07467552998472
H            6.29796097098996       -1.96776884904991        0.09630892956675
H            5.26193875827688       -4.25507300620552        0.07628435444052
H            2.81593828657133       -4.49424024971891        0.05650193684253
H            1.34450501967299       -2.48052937669547        0.05484528909968
16
 energy: -35.633881718204 gnorm: 0.021220821922 xtb: 6.7.1 (edcfbbe)
O            1.12630742938643        0.31546565502860        0.06549207559314
C            2.35337462227353        0.21627575660066        0.07549638429443
N            3.21342006321506        1.22511467244192        0.08726324915982
S            4.74021255464961        0.71682156654989        0.09876707710506
O            5.47302750438616        1.06577401919963       -1.11430709491874
O            5.44988198700706        1.05244947786495        1.32921099631513
C            4.40218334357511       -1.04310689185555        0.08640922261567
C            5.22636258448241       -2.14173228484328        0.08723120079211
C            4.62934575762868       -3.39504798513643        0.07600041907233
C            3.24911497681453       -3.51582091162480        0.06458581837337
C            2.43000407876531       -2.39786497636561        0.06372800941352
C            3.02545718741199       -1.14656049030615        0.07473765083579
H            6.29743567934301       -2.01230938359178        0.09634714151804
H            5.24451056820577       -4.28480095484267        0.07616055953685
H            2.80809977988608       -4.50382661144600        0.05615200013061
H            1.35378188296925       -2.48453065767337        0.05472529016287
16
 energy: -35.634194766930 gnorm: 0.014033215622 xtb: 6.7.1 (edcfbbe)
O            1.12634340539458        0.30941600017151        0.06565351056455
C            2.35314040479311        0.21648075224632        0.07560340297684
N            3.21215179691488        1.22262859132122        0.08733678468072
S            4.74358390397225        0.72426681314369        0.09875881885469
O            5.46887203398342        1.08963287375531       -1.11005287643097
O            5.44612916546998        1.07638152078544        1.32480103365849
C            4.40848591650708       -1.04568142330461        0.08646376911851
C            5.22747312039053       -2.14941980992323        0.08731988930124
C            4.62769768274589       -3.40270014774174        0.07602032971211
C            3.24625173834421       -3.52012534826468        0.06444783575850
C            2.43268478020509       -2.39725915657120        0.06366208674947
C            3.03136182774044       -1.14758100582969        0.07477834869950
H            6.30039205285572       -2.02929255824554        0.09650639401326
H            5.24127509919273       -4.29391460545109        0.07622756902703
H            2.80072855571438       -4.50687382246552        0.05586888981783
H            1.35594851577572       -2.47965867362618        0.05460421349823
16
 energy: -35.634344690788 gnorm: 0.003912524927 xtb: 6.7.1 (edcfbbe)
O            1.12614502406108        0.29674428675170        0.06583843892923
C            2.35312996001079        0.21524363835454        0.07569184789172
N            3.21112827748159        1.22051730465389        0.08746493391503
S            4.74664349252480        0.73211376232226        0.09875261099120
O            5.46384245307900        1.10395143110344       -1.10673825036543
O            5.44158938485393        1.09076168082569        1.32116357755523
C            4.41450090602640       -1.04633500008852        0.08651838470087
C            5.22905214483503       -2.15379974792830        0.08743086620715
C            4.62637558177571       -3.40672619286586        0.07606467078296
C            3.24337065426751       -3.52212619221730        0.06431543642610
C            2.43510047287591       -2.39449506541788        0.06355890330488
C            3.03776758654391       -1.14731755574766        0.07479145496054
H            6.30380706118741       -2.04420872754912        0.09671686171536
H            5.23892452189786       -4.29894499259595        0.07637478051980
H            2.79354004419615       -4.50727485649063        0.05561919777943
H            1.35760243438291       -2.47180377311031        0.05443628468593
16
 energy: -35.634364615085 gnorm: 0.001906433262 xtb: 6.7.1 (edcfbbe)
O            1.12645226470331        0.29085849301095        0.06590219968999
C            2.35376165066601        0.21399962898515        0.07574236894156
N            3.21095163480472        1.21997491845278        0.08755953416737
S            4.74709350787502        0.73392242592357        0.09874574276205
O            5.46130316971875        1.10493202266844       -1.10702940404425
O            5.43929201549598        1.09176711264667        1.32123597998098
C            4.41661192329000       -1.04611131860186        0.08654794280951
C            5.22996271573454       -2.15413268006186        0.08749517256899
C            4.62582884199339       -3.40647577641733        0.07610399034027
C            3.24267326080518       -3.52150869218750        0.06427884674607
C            2.43566542656205       -2.39301530345518        0.06349182257146
C            3.04011247043052       -1.14697317542607        0.07477755495163
H            6.30501414013136       -2.04783188221185        0.09681101921695
H            5.23793909096540       -4.29901843681859        0.07645090164617
H            2.79192675415826       -4.50604005165666        0.05555501766092
H            1.35793113266551       -2.46804728485065        0.05433130999033
16
 energy: -35.634374250604 gnorm: 0.001558036594 xtb: 6.7.1 (edcfbbe)
O            1.12722702317072        0.28514908075415        0.06598323564467
C            2.35504153620367        0.21225902600833        0.07580032629538
N            3.21087240935929        1.21958454956656        0.08774708289804
S            4.74705783278598        0.73489213269416        0.09873715985087
O            5.45761036859015        1.10486032079747       -1.10890227457320
O            5.43598279533185        1.09170741156578        1.32276822559171
C            4.41916097433259       -1.04582772332697        0.08658097777076
C            5.23127484017358       -2.15437228276431        0.08757326436335
C            4.62516051058527       -3.40582248663389        0.07615884245969
C            3.24219375291790       -3.52036945926669        0.06423276838778
C            2.43610294836283       -2.39145261558693        0.06339222107403
C            3.04270033618956       -1.14660991455170        0.07474033578511
H            6.30639756476392       -2.05096674235714        0.09695181204405
H            5.23657128122990       -4.29885925873090        0.07658296708075
H            2.79094587828078       -4.50441200156040        0.05548915432651
H            1.35821994772203       -2.46346003660752        0.05416390100051
16
 energy: -35.634376791807 gnorm: 0.000450795248 xtb: 6.7.1 (edcfbbe)
O            1.12746277410783        0.28620267641363        0.06598845804288
C            2.35529049274003        0.21220085381703        0.07582902296230
N            3.21094393927200        1.21968754149156        0.08783317695633
S            4.74697441809198        0.73451430279471        0.09873521600161
O            5.45688003422514        1.10522848599765       -1.10981178733770
O            5.43541188044185        1.09211680427485        1.32355888541069
C            4.41942271153310       -1.04586968987512        0.08659952151708
C            5.23135730508998       -2.15469310562296        0.08761139600253
C            4.62514803255023       -3.40610522576608        0.07618153220827
C            3.24229111287974       -3.52048938726264        0.06421469035812
C            2.43614680735150       -2.39163562363320        0.06335537361170
C            3.04276454137701       -1.14667862034972        0.07472576712420
H            6.30643716171603       -2.05098055375518        0.09700394590281
H            5.23645318889840       -4.29922161136035        0.07660875299593
H            2.79120215758225       -4.50470131371418        0.05545577754826
H            1.35833344214292       -2.46327553344997        0.05411027069499
