16
 energy: -35.634376792063 gnorm: 0.000451844726 xtb: 6.7.1 (edcfbbe)
O            1.12746277410783        0.28620267641363        0.06598845804288
C            2.35529049274003        0.21220085381703        0.07582902296230
N            3.21094393927200        1.21968754149156        0.08783317695633
S            4.74697441809198        0.73451430279471        0.09873521600161
O            5.45688003422514        1.10522848599765       -1.10981178733770
O            5.43541188044185        1.09211680427485        1.32355888541069
C            4.41942271153310       -1.04586968987512        0.08659952151708
C            5.23135730508998       -2.15469310562296        0.08761139600253
C            4.62514803255023       -3.40610522576608        0.07618153220827
C            3.24229111287974       -3.52048938726264        0.06421469035812
C            2.43614680735150       -2.39163562363320        0.06335537361170
C            3.04276454137701       -1.14667862034972        0.07472576712420
H            6.30643716171603       -2.05098055375518        0.09700394590281
H            5.23645318889840       -4.29922161136035        0.07660875299593
H            2.79120215758225       -4.50470131371418        0.05545577754826
H            1.35833344214292       -2.46327553344997        0.05411027069499
