      -----------------------------------------------------------      
     |                   =====================                   |     
     |                           x T B                           |     
     |                   =====================                   |     
     |                         S. Grimme                         |     
     |          Mulliken Center for Theoretical Chemistry        |     
     |                    University of Bonn                     |     
      -----------------------------------------------------------      

   * xtb version 6.7.1 (edcfbbe) compiled by 'conda@3ef47c1a292c' on 2024-11-25

   xtb is free software: you can redistribute it and/or modify it under
   the terms of the GNU Lesser General Public License as published by
   the Free Software Foundation, either version 3 of the License, or
   (at your option) any later version.
   
   xtb is distributed in the hope that it will be useful,
   but WITHOUT ANY WARRANTY; without even the implied warranty of
   MERCHANTABILITY or FITNESS FOR A PARTICULAR PURPOSE.  See the
   GNU Lesser General Public License for more details.
   
   Cite this work as:
   * C. Bannwarth, E. Caldeweyher, S. Ehlert, A. Hansen, P. Pracht,
     J. Seibert, S. Spicher, S. Grimme, WIREs Comput. Mol. Sci., 2020, 11,
     e01493. DOI: 10.1002/wcms.1493
   
   for GFN2-xTB:
   * C. Bannwarth, S. Ehlert and S. Grimme., J. Chem. Theory Comput., 2019,
     15, 1652-1671. DOI: 10.1021/acs.jctc.8b01176
   for GFN1-xTB:
   * S. Grimme, C. Bannwarth, P. Shushkov, J. Chem. Theory Comput., 2017,
     13, 1989-2009. DOI: 10.1021/acs.jctc.7b00118
   for GFN0-xTB:
   * P. Pracht, E. Caldeweyher, S. Ehlert, S. Grimme, ChemRxiv, 2019, preprint.
     DOI: 10.26434/chemrxiv.8326202.v1
   for GFN-FF:
   * S. Spicher and S. Grimme, Angew. Chem. Int. Ed., 2020, 59, 15665-15673.
     DOI: 10.1002/anie.202004239
   
   for ALPB and GBSA implicit solvation:
   * S. Ehlert, M. Stahn, S. Spicher, S. Grimme, J. Chem. Theory Comput.,
     2021, 17, 4250-4261. DOI: 10.1021/acs.jctc.1c00471
   
   for ddCOSMO and CPCM-X implicit solvation:
   * M. Stahn, S. Ehlert, S. Grimme, J. Phys. Chem. A,
     2023, XX, XXXX-XXXX. DOI: 10.1021/acs.jpca.3c04382
   
   for DFT-D4:
   * E. Caldeweyher, C. Bannwarth and S. Grimme, J. Chem. Phys., 2017,
     147, 034112. DOI: 10.1063/1.4993215
   * E. Caldeweyher, S. Ehlert, A. Hansen, H. Neugebauer, S. Spicher,
     C. Bannwarth and S. Grimme, J. Chem. Phys., 2019, 150, 154122.
     DOI: 10.1063/1.5090222
   * E. Caldeweyher, J.-M. Mewes, S. Ehlert and S. Grimme, Phys. Chem. Chem. Phys.
     2020, 22, 8499-8512. DOI: 10.1039/D0CP00502A
   
   for sTDA-xTB:
   * S. Grimme and C. Bannwarth, J. Chem. Phys., 2016, 145, 054103.
     DOI: 10.1063/1.4959605
   
   in the mass-spec context:
   * V. Asgeirsson, C. Bauer and S. Grimme, Chem. Sci., 2017, 8, 4879.
     DOI: 10.1039/c7sc00601b
   * J. Koopman and S. Grimme, ACS Omega 2019, 4, 12, 15120-15133.
     DOI: 10.1021/acsomega.9b02011
   
   for metadynamics refer to:
   * S. Grimme, J. Chem. Theory Comput., 2019, 155, 2847-2862
     DOI: 10.1021/acs.jctc.9b00143
   
   for SPH calculations refer to:
   * S. Spicher and S. Grimme, J. Chem. Theory Comput., 2021, 17, 1701-1714
     DOI: 10.1021/acs.jctc.0c01306
   
   for ONIOM refer to:
   * C. Plett, A. Katbashev, S. Ehlert, S. Grimme, M. Bursch,
     Phys. Chem. Chem. Phys., 2023, 25, 17860-17868. DOI: 10.1039/D3CP02178E
   
   for DIPRO refer to:
   * J. Kohn, N. Gildemeister, S. Grimme, D. Fazzi, A. Hansen,
     J. Chem. Phys., 2023, just accepted.
   
   for PTB refer to:
   * S. Grimme, M. Mueller, A. Hansen, J. Chem. Phys., 2023, 158, 124111.
     DOI: 10.1063/5.0137838
   
   with help from (in alphabetical order)
   P. Atkinson, C. Bannwarth, F. Bohle, G. Brandenburg, E. Caldeweyher
   M. Checinski, S. Dohm, S. Ehlert, S. Ehrlich, I. Gerasimov, C. Hölzer
   A. Katbashev, J. Kohn, J. Koopman, C. Lavigne, S. Lehtola, F. März, M. Müller,
   F. Musil, H. Neugebauer, J. Pisarek, C. Plett, P. Pracht, F. Pultar,
   J. Seibert, P. Shushkov, S. Spicher, M. Stahn, M. Steiner, T. Strunk,
   J. Stückrath, T. Rose, and J. Unsleber
   
 * started run on 2024/12/20 at 01:52:15.486     
   ID    Z sym.   atoms
    1    9 F      1, 4, 5, 7-9, 11-14
    2    6 C      2, 3, 10
    3    5 B      6

           -------------------------------------------------
          |                Calculation Setup                |
           -------------------------------------------------

          program call               : xtb A006.xyz --opt --namespace A006 --charge -1
          calculation namespace      : A006
          coordinate file            : A006.xyz
          omp threads                :                     8


           -------------------------------------------------
          |                 G F N 2 - x T B                 |
           -------------------------------------------------

        Reference                      10.1021/acs.jctc.8b01176
      * Hamiltonian:
        H0-scaling (s, p, d)           1.850000    2.230000    2.230000
        zeta-weighting                 0.500000
      * Dispersion:
        s8                             2.700000
        a1                             0.520000
        a2                             5.000000
        s9                             5.000000
      * Repulsion:
        kExp                           1.500000    1.000000
        rExp                           1.000000
      * Coulomb:
        alpha                          2.000000
        third order                    shell-resolved
        anisotropic                    true
        a3                             3.000000
        a5                             4.000000
        cn-shift                       1.200000
        cn-exp                         4.000000
        max-rad                        5.000000


          ...................................................
          :                      SETUP                      :
          :.................................................:
          :  # basis functions                  56          :
          :  # atomic orbitals                  56          :
          :  # shells                           28          :
          :  # electrons                        86          :
          :  max. iterations                   250          :
          :  Hamiltonian                  GFN2-xTB          :
          :  restarted?                      false          :
          :  GBSA solvation                  false          :
          :  PC potential                    false          :
          :  electronic temp.          300.0000000     K    :
          :  accuracy                    1.0000000          :
          :  -> integral cutoff          0.2500000E+02      :
          :  -> integral neglect         0.1000000E-07      :
          :  -> SCF convergence          0.1000000E-05 Eh   :
          :  -> wf. convergence          0.1000000E-03 e    :
          :  Broyden damping             0.4000000          :
          :  net charge                         -1          :
          :  unpaired electrons                  0          :
          ...................................................

 iter      E             dE          RMSdq      gap      omega  full diag
   1    -55.3436693 -0.553437E+02  0.691E+00   11.49       0.0  T
   2    -55.5197553 -0.176086E+00  0.396E+00   10.78       1.0  T
   3    -55.5281386 -0.838332E-02  0.166E+00   10.30       1.0  T
   4    -55.5313341 -0.319547E-02  0.430E-01    9.84       1.0  T
   5    -55.5323259 -0.991792E-03  0.254E-01    9.87       1.0  T
   6    -55.5324408 -0.114931E-03  0.795E-02    9.92       1.0  T
   7    -55.5325463 -0.105543E-03  0.573E-03    9.92       4.7  T
   8    -55.5325465 -0.151485E-06  0.271E-03    9.92       9.9  T
   9    -55.5325465 -0.993769E-08  0.693E-04    9.92      38.6  T
  10    -55.5325465  0.548638E-09  0.365E-04    9.92      73.3  T

   *** convergence criteria satisfied after 10 iterations ***

         #    Occupation            Energy/Eh            Energy/eV
      -------------------------------------------------------------
         1        2.0000           -0.8090762             -22.0161
       ...           ...                  ...                  ...
        37        2.0000           -0.3479864              -9.4692
        38        2.0000           -0.3179699              -8.6524
        39        2.0000           -0.3173763              -8.6362
        40        2.0000           -0.3106673              -8.4537
        41        2.0000           -0.3085178              -8.3952
        42        2.0000           -0.3085002              -8.3947
        43        2.0000           -0.2733363              -7.4379 (HOMO)
        44                          0.0911716               2.4809 (LUMO)
        45                          0.1143217               3.1109
        46                          0.1373532               3.7376
        47                          0.1757728               4.7830
        48                          0.1914880               5.2107
       ...                                ...                  ...
        56                          0.4834641              13.1557
      -------------------------------------------------------------
                  HL-Gap            0.3645079 Eh            9.9188 eV
             Fermi-level           -0.0910823 Eh           -2.4785 eV

 SCC (total)                   0 d,  0 h,  0 min,  0.010 sec
 SCC setup                      ...        0 min,  0.000 sec (  0.936%)
 Dispersion                     ...        0 min,  0.000 sec (  0.604%)
 classical contributions        ...        0 min,  0.000 sec (  0.406%)
 integral evaluation            ...        0 min,  0.001 sec (  9.143%)
 iterations                     ...        0 min,  0.007 sec ( 71.155%)
 molecular gradient             ...        0 min,  0.002 sec ( 16.732%)
 printout                       ...        0 min,  0.000 sec (  0.869%)

         :::::::::::::::::::::::::::::::::::::::::::::::::::::
         ::                     SUMMARY                     ::
         :::::::::::::::::::::::::::::::::::::::::::::::::::::
         :: total energy             -55.391804822536 Eh    ::
         :: gradient norm              0.090583080450 Eh/a0 ::
         :: HOMO-LUMO gap              9.918765995215 eV    ::
         ::.................................................::
         :: SCC energy               -55.532523883573 Eh    ::
         :: -> isotropic ES            0.271624347669 Eh    ::
         :: -> anisotropic ES         -0.010829019856 Eh    ::
         :: -> anisotropic XC         -0.058029382032 Eh    ::
         :: -> dispersion             -0.011390515513 Eh    ::
         :: repulsion energy           0.140719061037 Eh    ::
         :: add. restraining           0.000000000000 Eh    ::
         :: total charge              -1.000000000000 e     ::
         :::::::::::::::::::::::::::::::::::::::::::::::::::::

      ----------------------------------------------------------- 
     |                   =====================                   |
     |                        A N C O P T                        |
     |                   =====================                   |
     |               Approximate Normal Coordinate               |
     |                Rational Function Optimizer                |
      ----------------------------------------------------------- 
      ----------------------------------------------------------- 
     |                   =====================                   |
     |                        A N C O P T                        |
     |                   =====================                   |
     |               Approximate Normal Coordinate               |
     |                Rational Function Optimizer                |
      ----------------------------------------------------------- 

          ...................................................
          :                      SETUP                      :
          :.................................................:
          :   optimization level            normal          :
          :   max. optcycles                   200          :
          :   ANC micro-cycles                  20          :
          :   degrees of freedom                36          :
          :.................................................:
          :   RF solver                   davidson          :
          :   write xtbopt.log                true          :
          :   linear?                        false          :
          :   energy convergence         0.5000000E-05 Eh   :
          :   grad. convergence          0.1000000E-02 Eh/α :
          :   maxmium RF displ.          1.0000000          :
          :   Hlow (freq-cutoff)         0.1000000E-01      :
          :   Hmax (freq-cutoff)         5.0000000          :
          :   S6 in model hess.         20.0000000          :
          ...................................................

generating ANC from exact Hessian ...
Using Lindh-Hessian (1995)
 Shifting diagonal of input Hessian by    2.6794576947729090E-003
 Lowest  eigenvalues of input Hessian
    0.000000    0.000000    0.000000    0.000000    0.000000    0.000000
    0.010000    0.013619    0.013986    0.023856    0.027887    0.049448
    0.054181    0.070817    0.073231    0.084166    0.085453    0.089565
 Highest eigenvalues
    1.520470    1.648576    1.704631    1.809170    1.846934    1.930907


........................................................................
.............................. CYCLE    1 ..............................
........................................................................

 iter      E             dE          RMSdq      gap      omega  full diag
   1    -55.5325465 -0.555325E+02  0.832E-05    9.92       0.0  T
   2    -55.5325465 -0.120792E-09  0.374E-05    9.92     714.5  T
   3    -55.5325465 -0.126263E-10  0.142E-05    9.92    1885.9  T
     SCC iter.                  ...        0 min,  0.002 sec
     gradient                   ...        0 min,  0.002 sec
 * total energy  :   -55.3918048 Eh     change       -0.1394419E-08 Eh
   gradient norm :     0.0900314 Eh/α   predicted     0.0000000E+00 (-100.00%)
   displ. norm   :     0.4264528 α      lambda       -0.2117843E-01
   maximum displ.:     0.2095808 α      in ANC's #5, #7, #1, ...

........................................................................
.............................. CYCLE    2 ..............................
........................................................................

 iter      E             dE          RMSdq      gap      omega  full diag
   1    -55.5312846 -0.555313E+02  0.359E-01    9.51       0.0  T
   2    -55.5313757 -0.911216E-04  0.234E-01    9.56       1.0  T
   3    -55.5313728  0.284506E-05  0.544E-02    9.59       1.0  T
   4    -55.5313937 -0.208430E-04  0.262E-02    9.60       1.0  T
   5    -55.5313946 -0.914301E-06  0.308E-03    9.59       8.7  T
   6    -55.5313946 -0.429547E-07  0.142E-03    9.59      18.9  T
   7    -55.5313946 -0.285415E-08  0.297E-04    9.59      90.0  T
   8    -55.5313946 -0.170346E-09  0.125E-04    9.59     213.5  T
     SCC iter.                  ...        0 min,  0.004 sec
     gradient                   ...        0 min,  0.002 sec
 * total energy  :   -55.4031290 Eh     change       -0.1132420E-01 Eh
   gradient norm :     0.0476975 Eh/α   predicted    -0.1251498E-01 (  10.52%)
   displ. norm   :     0.4334902 α      lambda       -0.1145872E-01
   maximum displ.:     0.3350961 α      in ANC's #5, #15, #8, ...

........................................................................
.............................. CYCLE    3 ..............................
........................................................................

 iter      E             dE          RMSdq      gap      omega  full diag
   1    -55.5290583 -0.555291E+02  0.257E-01    8.98       0.0  T
   2    -55.5292363 -0.178000E-03  0.184E-01    9.02       1.0  T
   3    -55.5292593 -0.230305E-04  0.917E-02    9.05       1.0  T
   4    -55.5292670 -0.772593E-05  0.273E-02    9.07       1.0  T
   5    -55.5292679 -0.860082E-06  0.442E-03    9.07       6.1  T
   6    -55.5292680 -0.125929E-06  0.141E-03    9.07      18.9  T
   7    -55.5292680 -0.277669E-08  0.311E-04    9.07      85.9  T
   8    -55.5292680 -0.269324E-09  0.127E-04    9.07     209.9  T
     SCC iter.                  ...        0 min,  0.004 sec
     gradient                   ...        0 min,  0.002 sec
 * total energy  :   -55.4090651 Eh     change       -0.5936079E-02 Eh
   gradient norm :     0.0235811 Eh/α   predicted    -0.6805988E-02 (  14.65%)
   displ. norm   :     0.1099586 α      lambda       -0.1088458E-02
   maximum displ.:     0.0840781 α      in ANC's #5, #12, #1, ...

........................................................................
.............................. CYCLE    4 ..............................
........................................................................

 iter      E             dE          RMSdq      gap      omega  full diag
   1    -55.5314061 -0.555314E+02  0.765E-02    9.16       0.0  T
   2    -55.5314178 -0.116752E-04  0.456E-02    9.16       1.0  T
   3    -55.5314188 -0.100468E-05  0.226E-02    9.16       1.2  T
   4    -55.5314197 -0.943245E-06  0.325E-03    9.17       8.2  T
   5    -55.5314197 -0.153597E-07  0.101E-03    9.17      26.6  T
   6    -55.5314197 -0.364169E-08  0.283E-04    9.17      94.6  T
   7    -55.5314197 -0.692282E-10  0.947E-05    9.17     282.1  T
     SCC iter.                  ...        0 min,  0.003 sec
     gradient                   ...        0 min,  0.002 sec
 * total energy  :   -55.4099047 Eh     change       -0.8396150E-03 Eh
   gradient norm :     0.0137630 Eh/α   predicted    -0.5508089E-03 ( -34.40%)
   displ. norm   :     0.1388045 α      lambda       -0.8370930E-03
   maximum displ.:     0.0979632 α      in ANC's #5, #12, #1, ...

........................................................................
.............................. CYCLE    5 ..............................
........................................................................

 iter      E             dE          RMSdq      gap      omega  full diag
   1    -55.5339783 -0.555340E+02  0.900E-02    9.10       0.0  T
   2    -55.5339961 -0.177744E-04  0.518E-02    9.10       1.0  T
   3    -55.5339979 -0.182746E-05  0.270E-02    9.10       1.0  T
   4    -55.5339991 -0.124436E-05  0.476E-03    9.10       5.6  T
   5    -55.5339992 -0.307060E-07  0.114E-03    9.10      23.4  T
   6    -55.5339992 -0.471707E-08  0.422E-04    9.10      63.3  T
   7    -55.5339992 -0.175376E-09  0.973E-05    9.10     274.7  T
     SCC iter.                  ...        0 min,  0.003 sec
     gradient                   ...        0 min,  0.002 sec
 * total energy  :   -55.4103651 Eh     change       -0.4604109E-03 Eh
   gradient norm :     0.0031521 Eh/α   predicted    -0.4266112E-03 (  -7.34%)
   displ. norm   :     0.0286331 α      lambda       -0.3278239E-04
   maximum displ.:     0.0167670 α      in ANC's #5, #2, #7, ...

........................................................................
.............................. CYCLE    6 ..............................
........................................................................

 iter      E             dE          RMSdq      gap      omega  full diag
   1    -55.5343143 -0.555343E+02  0.158E-02    9.10       0.0  T
   2    -55.5343146 -0.332133E-06  0.929E-03    9.10       2.9  T
   3    -55.5343147 -0.134548E-07  0.396E-03    9.10       6.7  T
   4    -55.5343147 -0.471515E-07  0.940E-04    9.10      28.4  T
   5    -55.5343147 -0.138781E-08  0.235E-04    9.10     113.8  T
     SCC iter.                  ...        0 min,  0.002 sec
     gradient                   ...        0 min,  0.005 sec
 * total energy  :   -55.4103875 Eh     change       -0.2237332E-04 Eh
   gradient norm :     0.0020118 Eh/α   predicted    -0.1640287E-04 ( -26.69%)
   displ. norm   :     0.0234124 α      lambda       -0.1378090E-04
   maximum displ.:     0.0131035 α      in ANC's #2, #4, #5, ...

........................................................................
.............................. CYCLE    7 ..............................
........................................................................

 iter      E             dE          RMSdq      gap      omega  full diag
   1    -55.5344189 -0.555344E+02  0.114E-02    9.10       0.0  T
   2    -55.5344190 -0.958493E-07  0.707E-03    9.10       3.8  T
   3    -55.5344190 -0.791123E-08  0.151E-03    9.10      17.8  T
   4    -55.5344190 -0.105235E-07  0.420E-04    9.10      63.6  T
   5    -55.5344190 -0.526299E-09  0.141E-04    9.10     189.9  T
     SCC iter.                  ...        0 min,  0.003 sec
     gradient                   ...        0 min,  0.002 sec
 * total energy  :   -55.4103964 Eh     change       -0.8910950E-05 Eh
   gradient norm :     0.0011005 Eh/α   predicted    -0.6893350E-05 ( -22.64%)
   displ. norm   :     0.0252155 α      lambda       -0.4749275E-05
   maximum displ.:     0.0165899 α      in ANC's #4, #2, #10, ...

........................................................................
.............................. CYCLE    8 ..............................
........................................................................

 iter      E             dE          RMSdq      gap      omega  full diag
   1    -55.5343850 -0.555344E+02  0.935E-03    9.10       0.0  T
   2    -55.5343851 -0.846162E-07  0.605E-03    9.10       4.4  T
   3    -55.5343851 -0.122606E-07  0.155E-03    9.10      17.2  T
   4    -55.5343851 -0.115537E-07  0.430E-04    9.09      62.1  T
   5    -55.5343851 -0.614413E-09  0.109E-04    9.10     245.5  T
     SCC iter.                  ...        0 min,  0.003 sec
     gradient                   ...        0 min,  0.002 sec
 * total energy  :   -55.4104007 Eh     change       -0.4255260E-05 Eh
   gradient norm :     0.0008072 Eh/α   predicted    -0.2377125E-05 ( -44.14%)
   displ. norm   :     0.0198879 α      lambda       -0.2665257E-05
   maximum displ.:     0.0149292 α      in ANC's #4, #2, #10, ...

   *** GEOMETRY OPTIMIZATION CONVERGED AFTER 8 ITERATIONS ***

------------------------------------------------------------------------
 total energy gain   :        -0.0185958 Eh      -11.6691 kcal/mol
 total RMSD          :         0.2482861 a0        0.1314 Å
 total power (kW/mol):        -6.1029227 (step) -908.4153 (real)
------------------------------------------------------------------------

 ANCopt (total)                0 d,  0 h,  0 min,  0.054 sec
 optimizer setup                ...        0 min,  0.000 sec (  0.105%)
 model hessian                  ...        0 min,  0.003 sec (  5.464%)
 ANC generation                 ...        0 min,  0.000 sec (  0.399%)
 coordinate transformation      ...        0 min,  0.000 sec (  0.085%)
 single point calculation       ...        0 min,  0.049 sec ( 90.750%)
 optimization log               ...        0 min,  0.000 sec (  0.793%)
 hessian update                 ...        0 min,  0.000 sec (  0.202%)
 rational function              ...        0 min,  0.001 sec (  1.621%)

================
 final structure:
================
14
 xtb: 6.7.1 (edcfbbe)
F            1.06053507469388        0.16172743589481        0.08433963280173
C            2.40955450745093        0.08401961625701        0.03123988606716
C            2.88038394616775       -0.53887028441760       -1.29714484715944
F            2.47855380776379        0.33255017254628       -2.28111961405202
F            4.25046297046562       -0.43643754569353       -1.29994524518989
B            2.34270879817833       -2.14642047332626       -1.57369856790951
F            2.85998715700173       -2.95193493782192       -0.58157208988789
F            0.96476469549651       -2.15908786268976       -1.53211559091330
F            2.79120643852265       -2.55465234662249       -2.80870236289579
C            2.92852974976788        1.52186551108836        0.30167133723560
F            2.47176301223587        1.96662104001817        1.48693027168821
F            4.25666667770762        1.60040171045947        0.36430884325083
F            2.51788315857410        2.40310427926856       -0.60861233962432
F            2.79305000597336       -0.65958631496110        1.09276068658864

 Bond Distances (Angstroems)
 ---------------------------
F1-C2=1.3523         C2-F1=1.3523         C2-C3=1.5409         C2-C10=1.5524        C2-F14=1.3516        C3-C2=1.5409         
C3-F4=1.3744         C3-F5=1.3739         C3-B6=1.7175         F4-C3=1.3744         F5-C3=1.3739         B6-C3=1.7175         
B6-F7=1.3787         B6-F8=1.3786         B6-F9=1.3759         F7-B6=1.3787         F8-B6=1.3786         F9-B6=1.3759         
C10-C2=1.5524        C10-F11=1.3458       C10-F12=1.3319       C10-F13=1.3319       F11-C10=1.3458       F12-C10=1.3319       
F13-C10=1.3319       F14-C2=1.3516        
 C  B  Rav=1.7175 sigma=0.0000  Rmin=1.7175  Rmax=1.7175     1
 C  C  Rav=1.5466 sigma=0.0058  Rmin=1.5409  Rmax=1.5524     2
 F  B  Rav=1.3777 sigma=0.0013  Rmin=1.3759  Rmax=1.3787     3
 F  C  Rav=1.3517 sigma=0.0162  Rmin=1.3319  Rmax=1.3744     7

 selected bond angles (degree)
 --------------------
C3-C2-F1=111.22                C10-C2-F1=105.87               C10-C2-C3=114.99               F14-C2-F1=106.49               
F14-C2-C3=111.59               F14-C2-C10=106.14              F4-C3-C2=105.76                F5-C3-C2=106.04                
F5-C3-F4=104.05                B6-C3-C2=114.93                B6-C3-F4=112.75                B6-C3-F5=112.44                
F7-B6-C3=108.27                F8-B6-C3=108.46                F8-B6-F7=110.36                F9-B6-C3=108.67                
F9-B6-F7=110.50                F9-B6-F8=110.50                F11-C10-C2=110.25              F12-C10-C2=113.34              
F12-C10-F11=106.11             F13-C10-C2=113.00              F13-C10-F11=106.18             F13-C10-F12=107.49             

 selected dihedral angles (degree)
 ---------------------------------
F4-C3-C2-F1= 63.65            F4-C3-C2-C10=303.35           F4-C3-C2-F14=182.40           F5-C3-C2-F1=173.75            
F5-C3-C2-C10= 53.45           F5-C3-C2-F14=292.50           B6-C3-C2-F1=298.61            B6-C3-C2-C10=178.30           
B6-C3-C2-F14= 57.36           F7-B6-C3-C2=297.81            F7-B6-C3-F4=176.50            F7-B6-C3-F5= 59.25            
F8-B6-C3-C2= 57.58            F8-B6-C3-F4=296.27            F8-B6-C3-F5=179.02            F9-B6-C3-C2=177.74            
F9-B6-C3-F4= 56.44            F9-B6-C3-F5=299.18            F11-C10-C2-F1= 57.36          F11-C10-C2-C3=180.56          
F11-C10-C2-F14=304.44         F12-C10-C2-F1=176.13          F12-C10-C2-C3=299.33          F12-C10-C2-F14= 63.21         
F13-C10-C2-F1=298.73          F13-C10-C2-C3= 61.93          F13-C10-C2-F14=185.81         
           -------------------------------------------------
          |                Final Singlepoint                |
           -------------------------------------------------

          ...................................................
          :                      SETUP                      :
          :.................................................:
          :  # basis functions                  56          :
          :  # atomic orbitals                  56          :
          :  # shells                           28          :
          :  # electrons                        86          :
          :  max. iterations                   250          :
          :  Hamiltonian                  GFN2-xTB          :
          :  restarted?                      false          :
          :  GBSA solvation                  false          :
          :  PC potential                    false          :
          :  electronic temp.          300.0000000     K    :
          :  accuracy                    1.0000000          :
          :  -> integral cutoff          0.2500000E+02      :
          :  -> integral neglect         0.1000000E-07      :
          :  -> SCF convergence          0.1000000E-05 Eh   :
          :  -> wf. convergence          0.1000000E-03 e    :
          :  Broyden damping             0.4000000          :
          :  net charge                         -1          :
          :  unpaired electrons                  0          :
          ...................................................

 iter      E             dE          RMSdq      gap      omega  full diag
   1    -55.5343851 -0.555344E+02  0.565E-05    9.10       0.0  T
   2    -55.5343851 -0.221689E-11  0.317E-05    9.10     841.8  T
   3    -55.5343851  0.639488E-13  0.100E-05    9.10    2667.3  T

   *** convergence criteria satisfied after 3 iterations ***

         #    Occupation            Energy/Eh            Energy/eV
      -------------------------------------------------------------
         1        2.0000           -0.8039669             -21.8771
       ...           ...                  ...                  ...
        37        2.0000           -0.3590977              -9.7715
        38        2.0000           -0.3305030              -8.9934
        39        2.0000           -0.3297482              -8.9729
        40        2.0000           -0.3220801              -8.7642
        41        2.0000           -0.3201296              -8.7112
        42        2.0000           -0.3200948              -8.7102
        43        2.0000           -0.2861742              -7.7872 (HOMO)
        44                          0.0480628               1.3079 (LUMO)
        45                          0.0591706               1.6101
        46                          0.1027268               2.7953
        47                          0.1402065               3.8152
        48                          0.1443253               3.9273
       ...                                ...                  ...
        56                          0.5317043              14.4684
      -------------------------------------------------------------
                  HL-Gap            0.3342369 Eh            9.0951 eV
             Fermi-level           -0.1190557 Eh           -3.2397 eV

 SCC (total)                   0 d,  0 h,  0 min,  0.004 sec
 SCC setup                      ...        0 min,  0.000 sec (  1.349%)
 Dispersion                     ...        0 min,  0.000 sec (  0.825%)
 classical contributions        ...        0 min,  0.000 sec (  0.193%)
 integral evaluation            ...        0 min,  0.001 sec ( 16.873%)
 iterations                     ...        0 min,  0.002 sec ( 36.712%)
 molecular gradient             ...        0 min,  0.002 sec ( 42.157%)
 printout                       ...        0 min,  0.000 sec (  1.560%)

         :::::::::::::::::::::::::::::::::::::::::::::::::::::
         ::                     SUMMARY                     ::
         :::::::::::::::::::::::::::::::::::::::::::::::::::::
         :: total energy             -55.410400666558 Eh    ::
         :: gradient norm              0.000807274477 Eh/a0 ::
         :: HOMO-LUMO gap              9.095050151066 eV    ::
         ::.................................................::
         :: SCC energy               -55.534361403799 Eh    ::
         :: -> isotropic ES            0.263938800092 Eh    ::
         :: -> anisotropic ES         -0.009388408283 Eh    ::
         :: -> anisotropic XC         -0.054670474330 Eh    ::
         :: -> dispersion             -0.011049162427 Eh    ::
         :: repulsion energy           0.123960737241 Eh    ::
         :: add. restraining           0.000000000000 Eh    ::
         :: total charge              -1.000000000000 e     ::
         :::::::::::::::::::::::::::::::::::::::::::::::::::::

           -------------------------------------------------
          |                Property Printout                |
           -------------------------------------------------

    * Orbital Energies and Occupations

         #    Occupation            Energy/Eh            Energy/eV
      -------------------------------------------------------------
         1        2.0000           -0.8039669             -21.8771
       ...           ...                  ...                  ...
        31        2.0000           -0.3931698             -10.6987
        32        2.0000           -0.3921159             -10.6700
        33        2.0000           -0.3840804             -10.4514
        34        2.0000           -0.3767724             -10.2525
        35        2.0000           -0.3702732             -10.0756
        36        2.0000           -0.3694868             -10.0542
        37        2.0000           -0.3590977              -9.7715
        38        2.0000           -0.3305030              -8.9934
        39        2.0000           -0.3297482              -8.9729
        40        2.0000           -0.3220801              -8.7642
        41        2.0000           -0.3201296              -8.7112
        42        2.0000           -0.3200948              -8.7102
        43        2.0000           -0.2861742              -7.7872 (HOMO)
        44                          0.0480628               1.3079 (LUMO)
        45                          0.0591706               1.6101
        46                          0.1027268               2.7953
        47                          0.1402065               3.8152
        48                          0.1443253               3.9273
        49                          0.1878385               5.1113
        50                          0.2055210               5.5925
        51                          0.2495135               6.7896
        52                          0.2685615               7.3079
        53                          0.2905481               7.9062
        54                          0.4987041              13.5704
       ...                                ...                  ...
        56                          0.5317043              14.4684
      -------------------------------------------------------------
                  HL-Gap            0.3342369 Eh            9.0951 eV
             Fermi-level           -0.1190557 Eh           -3.2397 eV

     #   Z          covCN         q      C6AA      α(0)
     1   9 F        0.789    -0.197    11.205     3.954
     2   6 C        3.520     0.317    16.929     6.065
     3   6 C        3.401     0.205    20.347     6.964
     4   9 F        0.788    -0.245    11.707     4.042
     5   9 F        0.787    -0.245    11.711     4.042
     6   5 B        3.022     0.597    13.524     6.134
     7   9 F        0.721    -0.389    13.388     4.321
     8   9 F        0.721    -0.389    13.393     4.322
     9   9 F        0.721    -0.380    13.282     4.304
    10   6 C        3.330     0.485    17.370     6.613
    11   9 F        0.792    -0.198    11.216     3.956
    12   9 F        0.791    -0.182    11.055     3.928
    13   9 F        0.791    -0.182    11.056     3.928
    14   9 F        0.789    -0.197    11.204     3.954

 Mol. C6AA /au·bohr⁶  :       2559.464974
 Mol. C8AA /au·bohr⁸  :      54175.141830
 Mol. α(0) /au        :         66.525892


Wiberg/Mayer (AO) data.
largest (>0.10) Wiberg bond orders for each atom

 ---------------------------------------------------------------------------
     #   Z sym  total        # sym  WBO       # sym  WBO       # sym  WBO
 ---------------------------------------------------------------------------
     1   9 F    1.067 --     2 C    0.959
     2   6 C    3.853 --    14 F    0.959     1 F    0.959     3 C    0.927
                            10 C    0.896
     3   6 C    3.640 --     5 F    0.935     4 F    0.935     2 C    0.927
                             6 B    0.717
     4   9 F    1.024 --     3 C    0.935
     5   9 F    1.023 --     3 C    0.935
     6   5 B    3.333 --     9 F    0.866     7 F    0.857     8 F    0.857
                             3 C    0.717
     7   9 F    0.944 --     6 B    0.857
     8   9 F    0.943 --     6 B    0.857
     9   9 F    0.954 --     6 B    0.866
    10   6 C    3.847 --    12 F    0.969    13 F    0.969    11 F    0.948
                             2 C    0.896
    11   9 F    1.074 --    10 C    0.948
    12   9 F    1.094 --    10 C    0.969
    13   9 F    1.094 --    10 C    0.969
    14   9 F    1.068 --     2 C    0.959
 ---------------------------------------------------------------------------

Topologies differ in total number of bonds
Writing topology from bond orders to xtbtopo.mol

molecular dipole:
                 x           y           z       tot (Debye)
 q only:       -4.735       2.521       2.333
   full:       -4.681       2.747       2.416      15.100
molecular quadrupole (traceless):
                xx          xy          yy          xz          yz          zz
 q only:      -12.391      15.955       2.000      16.454     -13.549      10.391
  q+dip:      -12.968      18.738       3.262      16.427     -12.960       9.706
   full:      -12.251      18.235       2.365      16.622     -13.624       9.886

           -------------------------------------------------
          |                Geometry Summary                 |
           -------------------------------------------------

      molecular mass/u    :      236.8272674
   center of mass at/Å    :        2.6451657      -0.2281592      -0.6087795
  moments of inertia/u·Å² :        0.4108899E+03   0.1036730E+04   0.1084192E+04
rotational constants/cm⁻¹ :        0.4102713E-01   0.1626038E-01   0.1554856E-01

 * 10 selected distances

     #   Z          #   Z                                           value/Å
     1   9 F        2   6 C                                       1.3522987
     3   6 C        4   9 F                                       1.3744263
     3   6 C        5   9 F                                       1.3739058
     6   5 B        7   9 F                                       1.3786754 (max)
     6   5 B        8   9 F                                       1.3786297
     6   5 B        9   9 F                                       1.3758772
    10   6 C       11   9 F                                       1.3458389
    10   6 C       12   9 F                                       1.3319307
    10   6 C       13   9 F                                       1.3318518 (min)
     2   6 C       14   9 F                                       1.3516084

 * 2 distinct bonds (by element types)

   Z      Z             #   av. dist./Å        max./Å        min./Å
   5 B    9 F           3     1.3777274     1.3786754     1.3758772
   6 C    9 F           7     1.3516944     1.3744263     1.3318518


optimized geometry written to: xtbopt.xyz


           -------------------------------------------------
          | TOTAL ENERGY              -55.410400666558 Eh   |
          | GRADIENT NORM               0.000807274477 Eh/α |
          | HOMO-LUMO GAP               9.095050151066 eV   |
           -------------------------------------------------

------------------------------------------------------------------------
 * finished run on 2024/12/20 at 01:52:15.570     
------------------------------------------------------------------------
 total:
 * wall-time:     0 d,  0 h,  0 min,  0.084 sec
 *  cpu-time:     0 d,  0 h,  0 min,  0.648 sec
 * ratio c/w:     7.755 speedup
 SCF:
 * wall-time:     0 d,  0 h,  0 min,  0.010 sec
 *  cpu-time:     0 d,  0 h,  0 min,  0.080 sec
 * ratio c/w:     7.911 speedup
 ANC optimizer:
 * wall-time:     0 d,  0 h,  0 min,  0.059 sec
 *  cpu-time:     0 d,  0 h,  0 min,  0.461 sec
 * ratio c/w:     7.878 speedup

