      -----------------------------------------------------------      
     |                   =====================                   |     
     |                           x T B                           |     
     |                   =====================                   |     
     |                         S. Grimme                         |     
     |          Mulliken Center for Theoretical Chemistry        |     
     |                    University of Bonn                     |     
      -----------------------------------------------------------      

   * xtb version 6.7.1 (edcfbbe) compiled by 'conda@3ef47c1a292c' on 2024-11-25

   xtb is free software: you can redistribute it and/or modify it under
   the terms of the GNU Lesser General Public License as published by
   the Free Software Foundation, either version 3 of the License, or
   (at your option) any later version.
   
   xtb is distributed in the hope that it will be useful,
   but WITHOUT ANY WARRANTY; without even the implied warranty of
   MERCHANTABILITY or FITNESS FOR A PARTICULAR PURPOSE.  See the
   GNU Lesser General Public License for more details.
   
   Cite this work as:
   * C. Bannwarth, E. Caldeweyher, S. Ehlert, A. Hansen, P. Pracht,
     J. Seibert, S. Spicher, S. Grimme, WIREs Comput. Mol. Sci., 2020, 11,
     e01493. DOI: 10.1002/wcms.1493
   
   for GFN2-xTB:
   * C. Bannwarth, S. Ehlert and S. Grimme., J. Chem. Theory Comput., 2019,
     15, 1652-1671. DOI: 10.1021/acs.jctc.8b01176
   for GFN1-xTB:
   * S. Grimme, C. Bannwarth, P. Shushkov, J. Chem. Theory Comput., 2017,
     13, 1989-2009. DOI: 10.1021/acs.jctc.7b00118
   for GFN0-xTB:
   * P. Pracht, E. Caldeweyher, S. Ehlert, S. Grimme, ChemRxiv, 2019, preprint.
     DOI: 10.26434/chemrxiv.8326202.v1
   for GFN-FF:
   * S. Spicher and S. Grimme, Angew. Chem. Int. Ed., 2020, 59, 15665-15673.
     DOI: 10.1002/anie.202004239
   
   for ALPB and GBSA implicit solvation:
   * S. Ehlert, M. Stahn, S. Spicher, S. Grimme, J. Chem. Theory Comput.,
     2021, 17, 4250-4261. DOI: 10.1021/acs.jctc.1c00471
   
   for ddCOSMO and CPCM-X implicit solvation:
   * M. Stahn, S. Ehlert, S. Grimme, J. Phys. Chem. A,
     2023, XX, XXXX-XXXX. DOI: 10.1021/acs.jpca.3c04382
   
   for DFT-D4:
   * E. Caldeweyher, C. Bannwarth and S. Grimme, J. Chem. Phys., 2017,
     147, 034112. DOI: 10.1063/1.4993215
   * E. Caldeweyher, S. Ehlert, A. Hansen, H. Neugebauer, S. Spicher,
     C. Bannwarth and S. Grimme, J. Chem. Phys., 2019, 150, 154122.
     DOI: 10.1063/1.5090222
   * E. Caldeweyher, J.-M. Mewes, S. Ehlert and S. Grimme, Phys. Chem. Chem. Phys.
     2020, 22, 8499-8512. DOI: 10.1039/D0CP00502A
   
   for sTDA-xTB:
   * S. Grimme and C. Bannwarth, J. Chem. Phys., 2016, 145, 054103.
     DOI: 10.1063/1.4959605
   
   in the mass-spec context:
   * V. Asgeirsson, C. Bauer and S. Grimme, Chem. Sci., 2017, 8, 4879.
     DOI: 10.1039/c7sc00601b
   * J. Koopman and S. Grimme, ACS Omega 2019, 4, 12, 15120-15133.
     DOI: 10.1021/acsomega.9b02011
   
   for metadynamics refer to:
   * S. Grimme, J. Chem. Theory Comput., 2019, 155, 2847-2862
     DOI: 10.1021/acs.jctc.9b00143
   
   for SPH calculations refer to:
   * S. Spicher and S. Grimme, J. Chem. Theory Comput., 2021, 17, 1701-1714
     DOI: 10.1021/acs.jctc.0c01306
   
   for ONIOM refer to:
   * C. Plett, A. Katbashev, S. Ehlert, S. Grimme, M. Bursch,
     Phys. Chem. Chem. Phys., 2023, 25, 17860-17868. DOI: 10.1039/D3CP02178E
   
   for DIPRO refer to:
   * J. Kohn, N. Gildemeister, S. Grimme, D. Fazzi, A. Hansen,
     J. Chem. Phys., 2023, just accepted.
   
   for PTB refer to:
   * S. Grimme, M. Mueller, A. Hansen, J. Chem. Phys., 2023, 158, 124111.
     DOI: 10.1063/5.0137838
   
   with help from (in alphabetical order)
   P. Atkinson, C. Bannwarth, F. Bohle, G. Brandenburg, E. Caldeweyher
   M. Checinski, S. Dohm, S. Ehlert, S. Ehrlich, I. Gerasimov, C. Hölzer
   A. Katbashev, J. Kohn, J. Koopman, C. Lavigne, S. Lehtola, F. März, M. Müller,
   F. Musil, H. Neugebauer, J. Pisarek, C. Plett, P. Pracht, F. Pultar,
   J. Seibert, P. Shushkov, S. Spicher, M. Stahn, M. Steiner, T. Strunk,
   J. Stückrath, T. Rose, and J. Unsleber
   
 * started run on 2024/12/20 at 01:52:15.810     
   ID    Z sym.   atoms
    1    9 F      1, 3, 4, 6, 7, 16, 17, 19-21
    2    6 C      2, 5, 15, 18
    3   16 S      8, 12
    4    8 O      9, 10, 13, 14
    5    7 N      11

           -------------------------------------------------
          |                Calculation Setup                |
           -------------------------------------------------

          program call               : xtb A007.xyz --opt --namespace A007 --charge -1
          calculation namespace      : A007
          coordinate file            : A007.xyz
          omp threads                :                     8


           -------------------------------------------------
          |                 G F N 2 - x T B                 |
           -------------------------------------------------

        Reference                      10.1021/acs.jctc.8b01176
      * Hamiltonian:
        H0-scaling (s, p, d)           1.850000    2.230000    2.230000
        zeta-weighting                 0.500000
      * Dispersion:
        s8                             2.700000
        a1                             0.520000
        a2                             5.000000
        s9                             5.000000
      * Repulsion:
        kExp                           1.500000    1.000000
        rExp                           1.000000
      * Coulomb:
        alpha                          2.000000
        third order                    shell-resolved
        anisotropic                    true
        a3                             3.000000
        a5                             4.000000
        cn-shift                       1.200000
        cn-exp                         4.000000
        max-rad                        5.000000


          ...................................................
          :                      SETUP                      :
          :.................................................:
          :  # basis functions                  96          :
          :  # atomic orbitals                  94          :
          :  # shells                           44          :
          :  # electrons                       128          :
          :  max. iterations                   250          :
          :  Hamiltonian                  GFN2-xTB          :
          :  restarted?                      false          :
          :  GBSA solvation                  false          :
          :  PC potential                    false          :
          :  electronic temp.          300.0000000     K    :
          :  accuracy                    1.0000000          :
          :  -> integral cutoff          0.2500000E+02      :
          :  -> integral neglect         0.1000000E-07      :
          :  -> SCF convergence          0.1000000E-05 Eh   :
          :  -> wf. convergence          0.1000000E-03 e    :
          :  Broyden damping             0.4000000          :
          :  net charge                         -1          :
          :  unpaired electrons                  0          :
          ...................................................

 iter      E             dE          RMSdq      gap      omega  full diag
   1    -81.8463141 -0.818463E+02  0.779E+00    6.91       0.0  T
   2    -82.0262751 -0.179961E+00  0.490E+00    7.16       1.0  T
   3    -82.0372365 -0.109614E-01  0.205E+00    6.67       1.0  T
   4    -82.0485857 -0.113492E-01  0.662E-01    6.59       1.0  T
   5    -82.0492021 -0.616461E-03  0.361E-01    6.59       1.0  T
   6    -82.0496878 -0.485720E-03  0.132E-01    6.61       1.0  T
   7    -82.0497354 -0.475272E-04  0.568E-02    6.61       1.0  T
   8    -82.0497490 -0.136555E-04  0.156E-02    6.61       1.4  T
   9    -82.0497498 -0.745875E-06  0.602E-03    6.61       3.6  T
  10    -82.0497499 -0.939395E-07  0.119E-03    6.61      18.3  T
  11    -82.0497499 -0.409777E-08  0.520E-04    6.61      42.0  T
  12    -82.0497499 -0.111883E-08  0.137E-04    6.61     158.8  T

   *** convergence criteria satisfied after 12 iterations ***

         #    Occupation            Energy/Eh            Energy/eV
      -------------------------------------------------------------
         1        2.0000           -0.8193109             -22.2946
       ...           ...                  ...                  ...
        58        2.0000           -0.3613791              -9.8336
        59        2.0000           -0.3519088              -9.5759
        60        2.0000           -0.3473050              -9.4506
        61        2.0000           -0.3453778              -9.3982
        62        2.0000           -0.3382696              -9.2048
        63        2.0000           -0.3334434              -9.0735
        64        2.0000           -0.3071987              -8.3593 (HOMO)
        65                         -0.0643276              -1.7504 (LUMO)
        66                         -0.0562685              -1.5311
        67                         -0.0407682              -1.1094
        68                         -0.0280455              -0.7632
        69                         -0.0177681              -0.4835
       ...                                ...                  ...
        94                          1.2386799              33.7062
      -------------------------------------------------------------
                  HL-Gap            0.2428710 Eh            6.6089 eV
             Fermi-level           -0.1857631 Eh           -5.0549 eV

 SCC (total)                   0 d,  0 h,  0 min,  0.021 sec
 SCC setup                      ...        0 min,  0.000 sec (  0.512%)
 Dispersion                     ...        0 min,  0.000 sec (  0.622%)
 classical contributions        ...        0 min,  0.000 sec (  0.192%)
 integral evaluation            ...        0 min,  0.003 sec ( 13.078%)
 iterations                     ...        0 min,  0.015 sec ( 69.757%)
 molecular gradient             ...        0 min,  0.003 sec ( 15.369%)
 printout                       ...        0 min,  0.000 sec (  0.397%)

         :::::::::::::::::::::::::::::::::::::::::::::::::::::
         ::                     SUMMARY                     ::
         :::::::::::::::::::::::::::::::::::::::::::::::::::::
         :: total energy             -81.814660684568 Eh    ::
         :: gradient norm              0.135951589048 Eh/a0 ::
         :: HOMO-LUMO gap              6.608857438420 eV    ::
         ::.................................................::
         :: SCC energy               -82.049759014486 Eh    ::
         :: -> isotropic ES            0.310498727003 Eh    ::
         :: -> anisotropic ES         -0.028621114988 Eh    ::
         :: -> anisotropic XC         -0.061061374941 Eh    ::
         :: -> dispersion             -0.027779210508 Eh    ::
         :: repulsion energy           0.235098329918 Eh    ::
         :: add. restraining           0.000000000000 Eh    ::
         :: total charge              -1.000000000000 e     ::
         :::::::::::::::::::::::::::::::::::::::::::::::::::::

      ----------------------------------------------------------- 
     |                   =====================                   |
     |                        A N C O P T                        |
     |                   =====================                   |
     |               Approximate Normal Coordinate               |
     |                Rational Function Optimizer                |
      ----------------------------------------------------------- 
      ----------------------------------------------------------- 
     |                   =====================                   |
     |                        A N C O P T                        |
     |                   =====================                   |
     |               Approximate Normal Coordinate               |
     |                Rational Function Optimizer                |
      ----------------------------------------------------------- 

          ...................................................
          :                      SETUP                      :
          :.................................................:
          :   optimization level            normal          :
          :   max. optcycles                   200          :
          :   ANC micro-cycles                  20          :
          :   degrees of freedom                57          :
          :.................................................:
          :   RF solver                   davidson          :
          :   write xtbopt.log                true          :
          :   linear?                        false          :
          :   energy convergence         0.5000000E-05 Eh   :
          :   grad. convergence          0.1000000E-02 Eh/α :
          :   maxmium RF displ.          1.0000000          :
          :   Hlow (freq-cutoff)         0.1000000E-01      :
          :   Hmax (freq-cutoff)         5.0000000          :
          :   S6 in model hess.         20.0000000          :
          ...................................................

generating ANC from exact Hessian ...
Using Lindh-Hessian (1995)
 Shifting diagonal of input Hessian by    7.4051905152897578E-003
 Lowest  eigenvalues of input Hessian
    0.000000    0.000000    0.000000    0.000000    0.000000    0.000000
    0.010000    0.010309    0.011272    0.017731    0.018427    0.019535
    0.020239    0.023234    0.045044    0.047168    0.049849    0.066355
 Highest eigenvalues
    1.712433    1.712511    2.850562    3.024373    3.256610    3.362118


........................................................................
.............................. CYCLE    1 ..............................
........................................................................

 iter      E             dE          RMSdq      gap      omega  full diag
   1    -82.0497499 -0.820497E+02  0.300E-05    6.61       0.0  T
   2    -82.0497499 -0.392220E-11  0.143E-05    6.61    1523.4  T
   3    -82.0497499 -0.625278E-12  0.975E-06    6.61    2237.3  T
     SCC iter.                  ...        0 min,  0.004 sec
     gradient                   ...        0 min,  0.003 sec
 * total energy  :   -81.8146607 Eh     change       -0.9399059E-10 Eh
   gradient norm :     0.1359494 Eh/α   predicted     0.0000000E+00 (-100.00%)
   displ. norm   :     0.2455223 α      lambda       -0.1603470E-01
   maximum displ.:     0.1557188 α      in ANC's #18, #6, #22, ...

........................................................................
.............................. CYCLE    2 ..............................
........................................................................

 iter      E             dE          RMSdq      gap      omega  full diag
   1    -82.0801503 -0.820802E+02  0.333E-01    6.68       0.0  T
   2    -82.0802318 -0.815424E-04  0.195E-01    6.66       1.0  T
   3    -82.0802255  0.635973E-05  0.557E-02    6.68       1.0  T
   4    -82.0802478 -0.223401E-04  0.204E-02    6.68       1.1  T
   5    -82.0802480 -0.203963E-06  0.595E-03    6.68       3.7  T
   6    -82.0802482 -0.124885E-06  0.268E-03    6.68       8.1  T
   7    -82.0802482 -0.183421E-07  0.112E-03    6.68      19.5  T
   8    -82.0802482 -0.418792E-08  0.582E-04    6.68      37.5  T
   9    -82.0802482 -0.112298E-08  0.152E-04    6.68     143.7  T
     SCC iter.                  ...        0 min,  0.010 sec
     gradient                   ...        0 min,  0.003 sec
 * total energy  :   -81.8267473 Eh     change       -0.1208661E-01 Eh
   gradient norm :     0.0788123 Eh/α   predicted    -0.8505979E-02 ( -29.62%)
   displ. norm   :     0.2328610 α      lambda       -0.9269327E-02
   maximum displ.:     0.1279482 α      in ANC's #6, #18, #1, ...

........................................................................
.............................. CYCLE    3 ..............................
........................................................................

 iter      E             dE          RMSdq      gap      omega  full diag
   1    -82.1073237 -0.821073E+02  0.341E-01    6.49       0.0  T
   2    -82.1074542 -0.130565E-03  0.224E-01    6.48       1.0  T
   3    -82.1074417  0.125038E-04  0.687E-02    6.49       1.0  T
   4    -82.1074825 -0.407701E-04  0.243E-02    6.49       1.0  T
   5    -82.1074826 -0.103728E-06  0.638E-03    6.49       3.4  T
   6    -82.1074827 -0.151203E-06  0.239E-03    6.49       9.1  T
   7    -82.1074828 -0.125618E-07  0.861E-04    6.49      25.3  T
   8    -82.1074828 -0.236251E-08  0.435E-04    6.49      50.1  T
     SCC iter.                  ...        0 min,  0.009 sec
     gradient                   ...        0 min,  0.003 sec
 * total energy  :   -81.8317886 Eh     change       -0.5041356E-02 Eh
   gradient norm :     0.0168446 Eh/α   predicted    -0.4886444E-02 (  -3.07%)
   displ. norm   :     0.0993412 α      lambda       -0.5687852E-03
   maximum displ.:     0.0650659 α      in ANC's #6, #1, #18, ...

........................................................................
.............................. CYCLE    4 ..............................
........................................................................

 iter      E             dE          RMSdq      gap      omega  full diag
   1    -82.1070314 -0.821070E+02  0.764E-02    6.34       0.0  T
   2    -82.1070459 -0.145603E-04  0.570E-02    6.34       1.0  T
   3    -82.1070476 -0.172902E-05  0.177E-02    6.34       1.2  T
   4    -82.1070488 -0.113987E-05  0.686E-03    6.34       3.2  T
   5    -82.1070488 -0.354607E-07  0.151E-03    6.34      14.5  T
   6    -82.1070488 -0.138609E-07  0.632E-04    6.35      34.5  T
   7    -82.1070488 -0.896065E-09  0.197E-04    6.35     110.6  T
     SCC iter.                  ...        0 min,  0.008 sec
     gradient                   ...        0 min,  0.003 sec
 * total energy  :   -81.8322182 Eh     change       -0.4295155E-03 Eh
   gradient norm :     0.0103599 Eh/α   predicted    -0.2872019E-03 ( -33.13%)
   displ. norm   :     0.1349431 α      lambda       -0.4132168E-03
   maximum displ.:     0.0965811 α      in ANC's #1, #6, #11, ...

........................................................................
.............................. CYCLE    5 ..............................
........................................................................

 iter      E             dE          RMSdq      gap      omega  full diag
   1    -82.1037650 -0.821038E+02  0.855E-02    6.16       0.0  T
   2    -82.1037837 -0.187545E-04  0.605E-02    6.17       1.0  T
   3    -82.1037862 -0.246560E-05  0.210E-02    6.17       1.0  T
   4    -82.1037873 -0.113180E-05  0.787E-03    6.17       2.8  T
   5    -82.1037874 -0.617564E-07  0.188E-03    6.17      11.6  T
   6    -82.1037874 -0.208794E-07  0.770E-04    6.17      28.3  T
   7    -82.1037874 -0.139406E-08  0.240E-04    6.17      90.8  T
     SCC iter.                  ...        0 min,  0.008 sec
     gradient                   ...        0 min,  0.003 sec
 * total energy  :   -81.8324541 Eh     change       -0.2359521E-03 Eh
   gradient norm :     0.0035451 Eh/α   predicted    -0.2104644E-03 ( -10.80%)
   displ. norm   :     0.0517651 α      lambda       -0.3681360E-04
   maximum displ.:     0.0492798 α      in ANC's #1, #6, #11, ...

........................................................................
.............................. CYCLE    6 ..............................
........................................................................

 iter      E             dE          RMSdq      gap      omega  full diag
   1    -82.1030917 -0.821031E+02  0.229E-02    6.14       0.0  T
   2    -82.1030922 -0.491315E-06  0.128E-02    6.14       1.7  T
   3    -82.1030922 -0.304755E-07  0.428E-03    6.14       5.1  T
   4    -82.1030923 -0.764119E-07  0.196E-03    6.14      11.1  T
   5    -82.1030923 -0.433874E-08  0.368E-04    6.14      59.3  T
   6    -82.1030923 -0.717549E-09  0.154E-04    6.14     141.3  T
     SCC iter.                  ...        0 min,  0.007 sec
     gradient                   ...        0 min,  0.003 sec
 * total energy  :   -81.8324822 Eh     change       -0.2809965E-04 Eh
   gradient norm :     0.0018817 Eh/α   predicted    -0.1849911E-04 ( -34.17%)
   displ. norm   :     0.0761541 α      lambda       -0.2612630E-04
   maximum displ.:     0.0750929 α      in ANC's #1, #16, #38, ...

........................................................................
.............................. CYCLE    7 ..............................
........................................................................

 iter      E             dE          RMSdq      gap      omega  full diag
   1    -82.1028986 -0.821029E+02  0.276E-02    6.14       0.0  T
   2    -82.1028990 -0.392218E-06  0.145E-02    6.14       1.5  T
   3    -82.1028991 -0.778457E-07  0.396E-03    6.14       5.5  T
   4    -82.1028991 -0.166898E-07  0.186E-03    6.14      11.7  T
   5    -82.1028991 -0.282307E-08  0.222E-04    6.14      98.4  T
   6    -82.1028991 -0.199989E-09  0.930E-05    6.14     234.6  T
     SCC iter.                  ...        0 min,  0.007 sec
     gradient                   ...        0 min,  0.003 sec
 * total energy  :   -81.8325077 Eh     change       -0.2548603E-04 Eh
   gradient norm :     0.0018527 Eh/α   predicted    -0.1311205E-04 ( -48.55%)
   displ. norm   :     0.0446901 α      lambda       -0.9964942E-05
   maximum displ.:     0.0439651 α      in ANC's #1, #6, #18, ...

........................................................................
.............................. CYCLE    8 ..............................
........................................................................

 iter      E             dE          RMSdq      gap      omega  full diag
   1    -82.1033120 -0.821033E+02  0.130E-02    6.15       0.0  T
   2    -82.1033122 -0.131497E-06  0.742E-03    6.15       2.9  T
   3    -82.1033122 -0.120505E-07  0.219E-03    6.15      10.0  T
   4    -82.1033122 -0.237047E-07  0.113E-03    6.15      19.3  T
   5    -82.1033122 -0.105436E-08  0.224E-04    6.15      97.3  T
   6    -82.1033122 -0.253465E-09  0.920E-05    6.15     237.2  T
     SCC iter.                  ...        0 min,  0.007 sec
     gradient                   ...        0 min,  0.003 sec
 * total energy  :   -81.8325208 Eh     change       -0.1314289E-04 Eh
   gradient norm :     0.0015487 Eh/α   predicted    -0.4990356E-05 ( -62.03%)
   displ. norm   :     0.0454145 α      lambda       -0.1016779E-04
   maximum displ.:     0.0443600 α      in ANC's #1, #6, #41, ...

........................................................................
.............................. CYCLE    9 ..............................
........................................................................

 iter      E             dE          RMSdq      gap      omega  full diag
   1    -82.1036793 -0.821037E+02  0.144E-02    6.17       0.0  T
   2    -82.1036795 -0.182767E-06  0.830E-03    6.17       2.6  T
   3    -82.1036795 -0.133181E-07  0.254E-03    6.17       8.6  T
   4    -82.1036795 -0.342543E-07  0.139E-03    6.17      15.7  T
   5    -82.1036795 -0.215610E-08  0.280E-04    6.17      78.0  T
   6    -82.1036795 -0.239126E-09  0.127E-04    6.17     172.1  T
     SCC iter.                  ...        0 min,  0.007 sec
     gradient                   ...        0 min,  0.003 sec
 * total energy  :   -81.8325337 Eh     change       -0.1280684E-04 Eh
   gradient norm :     0.0006765 Eh/α   predicted    -0.5095787E-05 ( -60.21%)
   displ. norm   :     0.0462650 α      lambda       -0.7339819E-05
   maximum displ.:     0.0453210 α      in ANC's #1, #6, #11, ...

........................................................................
.............................. CYCLE   10 ..............................
........................................................................

 iter      E             dE          RMSdq      gap      omega  full diag
   1    -82.1038808 -0.821039E+02  0.154E-02    6.18       0.0  T
   2    -82.1038809 -0.131179E-06  0.771E-03    6.18       2.8  T
   3    -82.1038809 -0.246859E-07  0.208E-03    6.18      10.5  T
   4    -82.1038809 -0.982605E-08  0.124E-03    6.18      17.5  T
   5    -82.1038809 -0.272964E-08  0.227E-04    6.18      96.0  T
   6    -82.1038809 -0.136936E-09  0.860E-05    6.18     253.8  T
     SCC iter.                  ...        0 min,  0.007 sec
     gradient                   ...        0 min,  0.003 sec
 * total energy  :   -81.8325432 Eh     change       -0.9526983E-05 Eh
   gradient norm :     0.0006797 Eh/α   predicted    -0.3674691E-05 ( -61.43%)
   displ. norm   :     0.0391218 α      lambda       -0.4969254E-05
   maximum displ.:     0.0380381 α      in ANC's #1, #11, #6, ...

........................................................................
.............................. CYCLE   11 ..............................
........................................................................

 iter      E             dE          RMSdq      gap      omega  full diag
   1    -82.1039027 -0.821039E+02  0.134E-02    6.18       0.0  T
   2    -82.1039028 -0.817872E-07  0.616E-03    6.18       3.5  T
   3    -82.1039028 -0.183637E-07  0.176E-03    6.18      12.4  T
   4    -82.1039028 -0.358506E-08  0.927E-04    6.18      23.5  T
   5    -82.1039028 -0.140655E-08  0.155E-04    6.18     140.9  T
     SCC iter.                  ...        0 min,  0.006 sec
     gradient                   ...        0 min,  0.003 sec
 * total energy  :   -81.8325499 Eh     change       -0.6737199E-05 Eh
   gradient norm :     0.0006660 Eh/α   predicted    -0.2489389E-05 ( -63.05%)
   displ. norm   :     0.0342961 α      lambda       -0.3801694E-05
   maximum displ.:     0.0330874 α      in ANC's #1, #11, #8, ...

........................................................................
.............................. CYCLE   12 ..............................
........................................................................

 iter      E             dE          RMSdq      gap      omega  full diag
   1    -82.1038847 -0.821039E+02  0.119E-02    6.18       0.0  T
   2    -82.1038848 -0.650529E-07  0.536E-03    6.18       4.1  T
   3    -82.1038848 -0.135068E-07  0.169E-03    6.18      12.9  T
   4    -82.1038848 -0.336871E-08  0.799E-04    6.18      27.3  T
   5    -82.1038848 -0.676692E-09  0.843E-05    6.18     259.0  T
     SCC iter.                  ...        0 min,  0.006 sec
     gradient                   ...        0 min,  0.003 sec
 * total energy  :   -81.8325551 Eh     change       -0.5142475E-05 Eh
   gradient norm :     0.0004322 Eh/α   predicted    -0.1905434E-05 ( -62.95%)
   displ. norm   :     0.0306370 α      lambda       -0.2783933E-05
   maximum displ.:     0.0293265 α      in ANC's #1, #8, #3, ...

........................................................................
.............................. CYCLE   13 ..............................
........................................................................

 iter      E             dE          RMSdq      gap      omega  full diag
   1    -82.1038660 -0.821039E+02  0.102E-02    6.18       0.0  T
   2    -82.1038661 -0.504906E-07  0.472E-03    6.18       4.6  T
   3    -82.1038661 -0.996144E-08  0.157E-03    6.18      13.9  T
   4    -82.1038661 -0.311699E-08  0.711E-04    6.18      30.7  T
   5    -82.1038661 -0.502396E-09  0.667E-05    6.18     327.4  T
     SCC iter.                  ...        0 min,  0.005 sec
     gradient                   ...        0 min,  0.005 sec
 * total energy  :   -81.8325588 Eh     change       -0.3783902E-05 Eh
   gradient norm :     0.0002054 Eh/α   predicted    -0.1400837E-05 ( -62.98%)
   displ. norm   :     0.0264474 α      lambda       -0.1966616E-05
   maximum displ.:     0.0248430 α      in ANC's #1, #3, #8, ...

   *** GEOMETRY OPTIMIZATION CONVERGED AFTER 13 ITERATIONS ***

------------------------------------------------------------------------
 total energy gain   :        -0.0178982 Eh      -11.2313 kcal/mol
 total RMSD          :         0.1850065 a0        0.0979 Å
 total power (kW/mol):        -3.6147387 (step) -297.5561 (real)
------------------------------------------------------------------------

 ANCopt (total)                0 d,  0 h,  0 min,  0.158 sec
 optimizer setup                ...        0 min,  0.000 sec (  0.042%)
 model hessian                  ...        0 min,  0.003 sec (  2.087%)
 ANC generation                 ...        0 min,  0.000 sec (  0.194%)
 coordinate transformation      ...        0 min,  0.000 sec (  0.056%)
 single point calculation       ...        0 min,  0.152 sec ( 96.175%)
 optimization log               ...        0 min,  0.001 sec (  0.521%)
 hessian update                 ...        0 min,  0.000 sec (  0.110%)
 rational function              ...        0 min,  0.001 sec (  0.511%)

================
 final structure:
================
21
 xtb: 6.7.1 (edcfbbe)
F            0.87961192124497       -0.67886206745961        0.28367377987712
C            2.17594385953655       -0.34305422231676        0.11506596874909
F            2.33497875804357       -0.14936309098304       -1.19125208167991
F            2.32982595232605        0.83082022034483        0.72135905331683
C            3.13528493231918       -1.40016796079926        0.65931615827429
F            2.87636352211984       -1.58588781143056        1.97183064786672
F            2.88127779251265       -2.57461404165435        0.04254049681960
S            4.97086158754154       -0.92827672786031        0.42265780284269
O            5.11261125934939       -0.82978468595793       -0.99541238602672
O            5.10575544373020        0.27946910839536        1.17367162030693
N            5.57068969075640       -2.22166940453624        1.08583336781937
S            7.14097783419117       -2.29811695032604        1.11442329846589
O            7.77872350583179       -2.52972193438553       -0.14270412818172
O            7.79381370082025       -1.40510758404351        2.01841868263705
C            7.25514720477826       -3.98988032913284        1.99358959439645
F            6.62106242585520       -3.93087179146799        3.18469357249169
F            6.61982401996274       -4.92974387820784        1.26063242426079
C            8.69592867293485       -4.44099106049690        2.22743514081951
F            9.37066037442420       -4.56939782658760        1.08836829213333
F            9.36531604069018       -3.59215200906811        3.00248063436918
F            8.77382150103101       -5.64098595202589        2.84030806044190

 Bond Distances (Angstroems)
 ---------------------------
F1-C2=1.3497         C2-F1=1.3497         C2-F3=1.3301         C2-F4=1.3301         C2-C5=1.5278         F3-C2=1.3301         
F4-C2=1.3301         C5-C2=1.5278         C5-F6=1.3506         C5-F7=1.3507         C5-S8=1.9100         F6-C5=1.3506         
F7-C5=1.3507         S8-C5=1.9100         S8-O9=1.4285         S8-O10=1.4286        S8-N11=1.5724        S8-S12=2.6579        
O9-S8=1.4285         O10-S8=1.4286        N11-S8=1.5724        N11-S12=1.5724       S12-S8=2.6579        S12-N11=1.5724       
S12-O13=1.4285       S12-O14=1.4286       S12-C15=1.9100       O13-S12=1.4285       O14-S12=1.4286       C15-S12=1.9100       
C15-F16=1.3507       C15-F17=1.3506       C15-C18=1.5278       F16-C15=1.3507       F17-C15=1.3506       C18-C15=1.5278       
C18-F19=1.3301       C18-F20=1.3302       C18-F21=1.3497       F19-C18=1.3301       F20-C18=1.3302       F21-C18=1.3497       
 C  C  Rav=1.5278 sigma=0.0000  Rmin=1.5278  Rmax=1.5278     2
 F  C  Rav=1.3423 sigma=0.0099  Rmin=1.3301  Rmax=1.3507    10
 S  C  Rav=1.9100 sigma=0.0000  Rmin=1.9100  Rmax=1.9100     2
 S  N  Rav=1.5724 sigma=0.0000  Rmin=1.5724  Rmax=1.5724     2
 S  O  Rav=1.4286 sigma=0.0000  Rmin=1.4285  Rmax=1.4286     4
 S  S  Rav=2.6579 sigma=0.0000  Rmin=2.6579  Rmax=2.6579     1

 selected bond angles (degree)
 --------------------
F3-C2-F1=105.89                F4-C2-F1=105.89                F4-C2-F3=107.78                C5-C2-F1=112.73                
C5-C2-F3=112.06                C5-C2-F4=112.06                F6-C5-C2=108.72                F7-C5-C2=108.72                
F7-C5-F6=106.75                S8-C5-C2=112.85                S8-C5-F6=109.79                S8-C5-F7=109.82                
O9-S8-C5=103.61                O10-S8-C5=103.56               O10-S8-O9=117.01               N11-S8-C5= 96.38               
N11-S8-O9=115.95               N11-S8-O10=115.95              S12-S8-C5=128.69               S12-S8-O9=102.29               
S12-S8-O10=102.81              S12-S8-N11= 32.31              

 selected dihedral angles (degree)
 ---------------------------------
F6-C5-C2-F1=302.07            F6-C5-C2-F3=182.72            F6-C5-C2-F4= 61.41            F7-C5-C2-F1= 57.92            
F7-C5-C2-F3=298.58            F7-C5-C2-F4=177.27            S8-C5-C2-F1=180.01            S8-C5-C2-F3= 60.66            
S8-C5-C2-F4=299.35            O9-S8-C5-C2=298.73            O9-S8-C5-F6=177.27            O9-S8-C5-F7= 60.19            
O10-S8-C5-C2= 61.35           O10-S8-C5-F6=299.90           O10-S8-C5-F7=182.82           N11-S8-C5-C2=180.04           
N11-S8-C5-F6= 58.58           N11-S8-C5-F7=301.50           S12-S8-C5-C2=180.39           S12-S8-C5-F6= 58.94           
S12-S8-C5-F7=301.86           
           -------------------------------------------------
          |                Final Singlepoint                |
           -------------------------------------------------

          ...................................................
          :                      SETUP                      :
          :.................................................:
          :  # basis functions                  96          :
          :  # atomic orbitals                  94          :
          :  # shells                           44          :
          :  # electrons                       128          :
          :  max. iterations                   250          :
          :  Hamiltonian                  GFN2-xTB          :
          :  restarted?                      false          :
          :  GBSA solvation                  false          :
          :  PC potential                    false          :
          :  electronic temp.          300.0000000     K    :
          :  accuracy                    1.0000000          :
          :  -> integral cutoff          0.2500000E+02      :
          :  -> integral neglect         0.1000000E-07      :
          :  -> SCF convergence          0.1000000E-05 Eh   :
          :  -> wf. convergence          0.1000000E-03 e    :
          :  Broyden damping             0.4000000          :
          :  net charge                         -1          :
          :  unpaired electrons                  0          :
          ...................................................

 iter      E             dE          RMSdq      gap      omega  full diag
   1    -82.1038661 -0.821039E+02  0.358E-05    6.18       0.0  T
   2    -82.1038661 -0.135003E-11  0.238E-05    6.18     918.8  T
   3    -82.1038661 -0.881073E-12  0.107E-05    6.18    2032.7  T

   *** convergence criteria satisfied after 3 iterations ***

         #    Occupation            Energy/Eh            Energy/eV
      -------------------------------------------------------------
         1        2.0000           -0.8191309             -22.2897
       ...           ...                  ...                  ...
        58        2.0000           -0.3649582              -9.9310
        59        2.0000           -0.3520207              -9.5790
        60        2.0000           -0.3503729              -9.5341
        61        2.0000           -0.3456044              -9.4044
        62        2.0000           -0.3317912              -9.0285
        63        2.0000           -0.3296222              -8.9695
        64        2.0000           -0.3030721              -8.2470 (HOMO)
        65                         -0.0760610              -2.0697 (LUMO)
        66                         -0.0472071              -1.2846
        67                         -0.0371709              -1.0115
        68                          0.0020222               0.0550
        69                          0.0228424               0.6216
       ...                                ...                  ...
        94                          1.3874146              37.7535
      -------------------------------------------------------------
                  HL-Gap            0.2270111 Eh            6.1773 eV
             Fermi-level           -0.1895665 Eh           -5.1584 eV

 SCC (total)                   0 d,  0 h,  0 min,  0.008 sec
 SCC setup                      ...        0 min,  0.000 sec (  0.822%)
 Dispersion                     ...        0 min,  0.000 sec (  0.770%)
 classical contributions        ...        0 min,  0.000 sec (  0.137%)
 integral evaluation            ...        0 min,  0.001 sec ( 16.617%)
 iterations                     ...        0 min,  0.003 sec ( 40.716%)
 molecular gradient             ...        0 min,  0.003 sec ( 39.784%)
 printout                       ...        0 min,  0.000 sec (  0.981%)

         :::::::::::::::::::::::::::::::::::::::::::::::::::::
         ::                     SUMMARY                     ::
         :::::::::::::::::::::::::::::::::::::::::::::::::::::
         :: total energy             -81.832558840949 Eh    ::
         :: gradient norm              0.000205022398 Eh/a0 ::
         :: HOMO-LUMO gap              6.177285971945 eV    ::
         ::.................................................::
         :: SCC energy               -82.103870804735 Eh    ::
         :: -> isotropic ES            0.290460576776 Eh    ::
         :: -> anisotropic ES         -0.026412630911 Eh    ::
         :: -> anisotropic XC         -0.068054274018 Eh    ::
         :: -> dispersion             -0.027507959399 Eh    ::
         :: repulsion energy           0.271311963786 Eh    ::
         :: add. restraining           0.000000000000 Eh    ::
         :: total charge              -1.000000000000 e     ::
         :::::::::::::::::::::::::::::::::::::::::::::::::::::

           -------------------------------------------------
          |                Property Printout                |
           -------------------------------------------------

    * Orbital Energies and Occupations

         #    Occupation            Energy/Eh            Energy/eV
      -------------------------------------------------------------
         1        2.0000           -0.8191309             -22.2897
       ...           ...                  ...                  ...
        52        2.0000           -0.4276411             -11.6367
        53        2.0000           -0.4165624             -11.3352
        54        2.0000           -0.4101223             -11.1600
        55        2.0000           -0.4003001             -10.8927
        56        2.0000           -0.3732701             -10.1572
        57        2.0000           -0.3677171             -10.0061
        58        2.0000           -0.3649582              -9.9310
        59        2.0000           -0.3520207              -9.5790
        60        2.0000           -0.3503729              -9.5341
        61        2.0000           -0.3456044              -9.4044
        62        2.0000           -0.3317912              -9.0285
        63        2.0000           -0.3296222              -8.9695
        64        2.0000           -0.3030721              -8.2470 (HOMO)
        65                         -0.0760610              -2.0697 (LUMO)
        66                         -0.0472071              -1.2846
        67                         -0.0371709              -1.0115
        68                          0.0020222               0.0550
        69                          0.0228424               0.6216
        70                          0.0264637               0.7201
        71                          0.0408064               1.1104
        72                          0.0496178               1.3502
        73                          0.0842904               2.2937
        74                          0.0964884               2.6256
        75                          0.1020973               2.7782
       ...                                ...                  ...
        94                          1.3874146              37.7535
      -------------------------------------------------------------
                  HL-Gap            0.2270111 Eh            6.1773 eV
             Fermi-level           -0.1895665 Eh           -5.1584 eV

     #   Z          covCN         q      C6AA      α(0)
     1   9 F        0.791    -0.187    11.097     3.935
     2   6 C        3.341     0.483    17.256     6.567
     3   9 F        0.792    -0.178    11.009     3.919
     4   9 F        0.792    -0.178    11.009     3.919
     5   6 C        3.501     0.193    18.928     6.454
     6   9 F        0.797    -0.191    11.142     3.943
     7   9 F        0.797    -0.191    11.143     3.943
     8  16 S        4.202     1.245    99.914    16.823
     9   8 O        0.860    -0.585    25.742     6.802
    10   8 O        0.860    -0.584    25.733     6.801
    11   7 N        1.829    -0.653    39.703     9.337
    12  16 S        4.202     1.245    99.914    16.823
    13   8 O        0.860    -0.584    25.729     6.801
    14   8 O        0.860    -0.585    25.745     6.803
    15   6 C        3.501     0.193    18.928     6.454
    16   9 F        0.797    -0.191    11.143     3.943
    17   9 F        0.797    -0.191    11.143     3.943
    18   6 C        3.341     0.483    17.255     6.567
    19   9 F        0.792    -0.178    11.010     3.920
    20   9 F        0.792    -0.178    11.008     3.919
    21   9 F        0.791    -0.187    11.097     3.935

 Mol. C6AA /au·bohr⁶  :       9228.849592
 Mol. C8AA /au·bohr⁸  :     235675.568612
 Mol. α(0) /au        :        135.553657


Wiberg/Mayer (AO) data.
largest (>0.10) Wiberg bond orders for each atom

 ---------------------------------------------------------------------------
     #   Z sym  total        # sym  WBO       # sym  WBO       # sym  WBO
 ---------------------------------------------------------------------------
     1   9 F    1.079 --     2 C    0.946
     2   6 C    3.862 --     4 F    0.970     3 F    0.970     1 F    0.946
                             5 C    0.926
     3   9 F    1.097 --     2 C    0.970
     4   9 F    1.097 --     2 C    0.970
     5   6 C    3.796 --     6 F    0.966     7 F    0.966     2 C    0.926
                             8 S    0.657
     6   9 F    1.078 --     5 C    0.966
     7   9 F    1.077 --     5 C    0.966
     8  16 S    5.014 --    10 O    1.580     9 O    1.579    11 N    1.093
                             5 C    0.657
     9   8 O    1.897 --     8 S    1.579    10 O    0.114    11 N    0.105
    10   8 O    1.898 --     8 S    1.580     9 O    0.114    11 N    0.104
    11   7 N    2.740 --     8 S    1.093    12 S    1.093     9 O    0.105
                            13 O    0.105    14 O    0.105    10 O    0.104
    12  16 S    5.014 --    13 O    1.580    14 O    1.579    11 N    1.093
                            15 C    0.657
    13   8 O    1.898 --    12 S    1.580    14 O    0.114    11 N    0.105
    14   8 O    1.897 --    12 S    1.579    13 O    0.114    11 N    0.105
    15   6 C    3.796 --    17 F    0.966    16 F    0.966    18 C    0.926
                            12 S    0.657
    16   9 F    1.078 --    15 C    0.966
    17   9 F    1.078 --    15 C    0.966
    18   6 C    3.862 --    20 F    0.970    19 F    0.970    21 F    0.946
                            15 C    0.926
    19   9 F    1.097 --    18 C    0.970
    20   9 F    1.097 --    18 C    0.970
    21   9 F    1.079 --    18 C    0.946
 ---------------------------------------------------------------------------

Topologies differ in total number of bonds
Writing topology from bond orders to xtbtopo.mol

molecular dipole:
                 x           y           z       tot (Debye)
 q only:      -11.303       3.226      -1.543
   full:      -11.381       3.128      -1.492      30.240
molecular quadrupole (traceless):
                xx          xy          yy          xz          yz          zz
 q only:     -129.938      65.353      56.376     -31.597      11.018      73.562
  q+dip:     -130.773      63.983      58.251     -30.857       8.981      72.522
   full:     -131.045      64.259      58.280     -31.003       9.134      72.764

           -------------------------------------------------
          |                Geometry Summary                 |
           -------------------------------------------------

      molecular mass/u    :      380.1608729
   center of mass at/Å    :        5.5853322      -2.2045595       1.0738165
  moments of inertia/u·Å² :        0.7108111E+03   0.3790643E+04   0.3957438E+04
rotational constants/cm⁻¹ :        0.2371605E-01   0.4447170E-02   0.4259734E-02

 * 20 selected distances

     #   Z          #   Z                                           value/Å
     1   9 F        2   6 C                                       1.3496934
     2   6 C        3   9 F                                       1.3301412
     2   6 C        4   9 F                                       1.3301325
     2   6 C        5   6 C                                       1.5277544
     5   6 C        6   9 F                                       1.3506394
     5   6 C        7   9 F                                       1.3506501
     5   6 C        8  16 S                                       1.9099819
     8  16 S        9   8 O                                       1.4285367
     8  16 S       10   8 O                                       1.4285897
     8  16 S       11   7 N                                       1.5724060
    11   7 N       12  16 S                                       1.5724080
    12  16 S       13   8 O                                       1.4285413
    12  16 S       14   8 O                                       1.4285897
    12  16 S       15   6 C                                       1.9099822 (max)
    15   6 C       16   9 F                                       1.3506571
    15   6 C       17   9 F                                       1.3506316
    15   6 C       18   6 C                                       1.5277553
    18   6 C       19   9 F                                       1.3301221 (min)
    18   6 C       20   9 F                                       1.3301515
    18   6 C       21   9 F                                       1.3496920

 * 5 distinct bonds (by element types)

   Z      Z             #   av. dist./Å        max./Å        min./Å
   6 C    6 C           2     1.5277548     1.5277553     1.5277544
   6 C    9 F          10     1.3422511     1.3506571     1.3301221
   6 C   16 S           2     1.9099821     1.9099822     1.9099819
   7 N   16 S           2     1.5724070     1.5724080     1.5724060
   8 O   16 S           4     1.4285643     1.4285897     1.4285367


optimized geometry written to: xtbopt.xyz


           -------------------------------------------------
          | TOTAL ENERGY              -81.832558840949 Eh   |
          | GRADIENT NORM               0.000205022398 Eh/α |
          | HOMO-LUMO GAP               6.177285971945 eV   |
           -------------------------------------------------

------------------------------------------------------------------------
 * finished run on 2024/12/20 at 01:52:16.015     
------------------------------------------------------------------------
 total:
 * wall-time:     0 d,  0 h,  0 min,  0.205 sec
 *  cpu-time:     0 d,  0 h,  0 min,  1.622 sec
 * ratio c/w:     7.912 speedup
 SCF:
 * wall-time:     0 d,  0 h,  0 min,  0.021 sec
 *  cpu-time:     0 d,  0 h,  0 min,  0.170 sec
 * ratio c/w:     7.935 speedup
 ANC optimizer:
 * wall-time:     0 d,  0 h,  0 min,  0.167 sec
 *  cpu-time:     0 d,  0 h,  0 min,  1.332 sec
 * ratio c/w:     7.978 speedup

