21
 energy: -36.123357488593 gnorm: 0.000513162020 xtb: 6.7.1 (edcfbbe)
C            1.47259058119037       -0.33635168420977        0.53099026346646
C            0.46945969353309       -1.30627422934296       -0.10272660535535
C            0.32929877148913       -2.62662785743072        0.65714184343026
C           -0.03886487808890       -2.47270242732000        2.13308814238632
C           -1.36865211519009       -1.75936771366269        2.34220488406992
O            0.89060468628195        0.39470982233842        1.56237272424108
S            2.05331598231046        0.62767064382874        2.73240585177205
O            2.40617741111544       -0.71201696510729        3.17955793631398
O            3.13652764868375        1.30424309348768        2.04217853129337
O            1.36958182866328        1.42549573032937        3.72467506336609
H            1.84853819796807        0.36323917928958       -0.23260205805770
H            2.33214653085888       -0.87865429861019        0.94041251145582
H           -0.49608415011236       -0.80162660274409       -0.15731318548781
H            0.79509364414145       -1.52559972222765       -1.12482415711747
H           -0.42941749731815       -3.23818554553682        0.15134313466991
H            1.28093801115516       -3.16172469100035        0.59602781403422
H           -0.08644127265388       -3.47335398234631        2.57662258972799
H            0.74805693410370       -1.91139888097759        2.64120128317963
H           -2.15641990576204       -2.20290951364313        1.72935141614651
H           -1.66674557434386       -1.82098278095511        3.38689050322138
H           -1.25996452802295       -0.70953157415704        2.08713151324469
