25
 energy: -91.822224305107 gnorm: 6.294642308323 xtb: 6.7.1 (edcfbbe)
C            1.06257000000000       -0.04728000000000       -0.06204000000000
C            0.55590000000000        1.36024000000000        0.20736000000000
F            0.99923000000000        2.18018000000000       -0.74136000000000
F           -0.77410000000000        1.36024000000000        0.20736000000000
P            1.16591000000000        1.92664000000000        1.83708000000000
C            0.61664000000000        0.63533000000000        0.66245000000000
C            0.51376000000000        1.23004000000000       -0.73259000000000
F            1.70355000000000        1.69222000000000       -1.10635000000000
F            0.11457000000000        0.29156000000000       -1.58628000000000
F           -0.36685000000000        2.22673000000000       -0.72580000000000
F            1.49725000000000       -0.36135000000000        0.65566000000000
F           -0.57315000000000        0.17316000000000        1.03621000000000
C            2.20398000000000        3.21564000000000        2.61796000000000
C            1.37376000000000        3.99238000000000        3.62683000000000
F            0.92064000000000        3.16169000000000        4.56146000000000
F            2.12821000000000        4.92920000000000        4.19435000000000
F            0.34600000000000        4.56591000000000        3.00742000000000
F            3.23175000000000        2.64211000000000        3.23737000000000
F            2.65710000000000        4.04632000000000        1.68333000000000
F            0.61925000000000        0.91559000000000        3.00693000000000
F            2.80591000000000        1.92664000000000        1.83708000000000
F            0.61924000000000        3.44528000000000        2.12775000000000
F            0.61924000000000       -0.45892000000000       -1.24648000000000
F            0.61924000000000       -0.86721000000000        0.88667000000000
F            2.39257000000000       -0.04728000000000       -0.06204000000000
25
 energy: -95.185603176027 gnorm: 3.049428370307 xtb: 6.7.1 (edcfbbe)
C            1.03047327670070       -0.03145965253881       -0.14801534168643
C            0.53554906085138        1.49856659452074        0.24266627655433
F            1.02607637559498        2.29116040337248       -0.76839034563548
F           -0.85242095340958        1.36346081634754        0.23257392118538
P            1.16677645085889        1.92445742553152        1.84468005882303
C            0.60986375284858        0.55502561307744        0.78606341022720
C            0.50016147301364        1.23919720389338       -0.80663966780395
F            1.80445085605885        1.68593528642561       -1.15272722109338
F            0.05839577254855        0.28971979755093       -1.65604679759231
F           -0.41859930229312        2.29397788995355       -0.79071989963720
F            1.56704566141532       -0.45594583343896        0.77013697954166
F           -0.61377576551114        0.13497098265170        1.08154992721385
C            2.20543004088786        3.21619770055677        2.63249536552955
C            1.37610984140270        3.99548889132782        3.62864614409706
F            0.92097518482666        3.16224373344755        4.56302750381516
F            2.12984615009527        4.93262313923729        4.19808475278703
F            0.33970616146734        4.60272776609015        3.03791995914596
F            3.24390800383055        2.65245306066654        3.25704303173011
F            2.65829687545645        4.04751764247651        1.68154537106459
F            0.61707109265245        0.91125246764676        3.02173425618512
F            2.82780985834506        1.90445929102254        1.81189343434186
F            0.59824591826409        3.42992864865187        2.09304804935617
F            0.63102689441835       -0.52086663018409       -1.26449130200803
F            0.57623092140743       -0.96066202947991        0.93957443430482
F            2.51351639826875       -0.02737020880693       -0.10532230044611
25
 energy: -96.968057244840 gnorm: 2.399954323348 xtb: 6.7.1 (edcfbbe)
C            1.03193625679520       -0.05236452737345       -0.16097454698371
C            0.51431373942896        1.54704108692450        0.32222549990695
F            1.08119300230790        2.39126231707951       -0.79930483501889
F           -0.92874273705021        1.39205012728681        0.25753284628199
P            1.17140195431608        1.93123853860495        1.86807499093234
C            0.58897023526122        0.57025905759194        0.85095233974050
C            0.49920471282860        1.25823628893041       -0.84068153213579
F            1.89436065398515        1.68060159051498       -1.17987562519481
F           -0.02878200719983        0.27180639435400       -1.75457948754268
F           -0.47019817114172        2.35586241850091       -0.86081894899113
F            1.62955503475476       -0.50746779926413        0.79280942925765
F           -0.65659373423322        0.10282068478933        1.13527645194196
C            2.20945735898246        3.21900554930235        2.65875500493753
C            1.37804788472496        4.00244768402099        3.63339801271534
F            0.91905388332870        3.16391008646559        4.56529323835783
F            2.13012583904038        4.93844234343768        4.20612515162667
F            0.33341720796339        4.65010090838472        3.07951773052140
F            3.26061820794128        2.66918897138998        3.28725128838517
F            2.65889021749305        4.04755066225948        1.68155391765050
F            0.61376601722839        0.90676607088855        3.05303633980935
F            2.85587819814333        1.85615768337267        1.75786338021631
F            0.55379565111374        3.41704427150285        2.03791857248909
F            0.66233755780311       -0.61129729108897       -1.27038927146710
F            0.53927047357681       -1.06136747619906        0.96506236477099
F            2.61089256260750       -0.00423564167661       -0.15569231220748
25
 energy: -98.489299015682 gnorm: 1.331109641262 xtb: 6.7.1 (edcfbbe)
C            1.02827159592977       -0.08368244802978       -0.18395391111356
C            0.47289490586956        1.61925811793621        0.37859501103523
F            1.13197692185907        2.50183508103862       -0.83727215088031
F           -0.99578404789985        1.41955032930745        0.28000773489527
P            1.19262781646030        1.94048870242541        1.89505005723908
C            0.56133323346696        0.54314080591540        0.92867334564824
C            0.49472826797371        1.27398841778577       -0.87990939482060
F            1.97786518623701        1.65621460308595       -1.21711777167602
F           -0.15192492339136        0.35898326595300       -1.85623148859657
F           -0.52332969776535        2.41364401447866       -0.93727421591636
F            1.73116275458405       -0.55964733437816        0.82015231413172
F           -0.69140813299765        0.07352382197757        1.18781537865441
C            2.21516482990893        3.22655041997125        2.68693070235424
C            1.38268511820097        4.00937834970247        3.64028227965493
F            0.91813067776182        3.16485100360605        4.56701718175623
F            2.13077675517397        4.94270099078558        4.21196876216444
F            0.33247146004722        4.68418588967410        3.11467126595982
F            3.27168803260138        2.68372440035966        3.31034799214469
F            2.65946999419179        4.04774321546241        1.68082497702899
F            0.60635784061750        0.91386337155958        3.07147365083439
F            2.87769676716523        1.81127625010231        1.70695149586766
F            0.50344004490791        3.39268803294904        1.98341486839184
F            0.75863288086745       -0.74487313951829       -1.20990386474798
F            0.46751285963238       -1.18418833106442        0.98979547263408
F            2.69972885859722        0.02986216891414       -0.20197969264385
25
 energy: -99.182795599355 gnorm: 0.871507553320 xtb: 6.7.1 (edcfbbe)
C            1.03575292498593       -0.11737153854583       -0.19503769164267
C            0.42914486063880        1.66728224022789        0.41384062404613
F            1.15999841784821        2.59375788622642       -0.87568289447167
F           -1.05147124453202        1.45213987046577        0.29616691466617
P            1.21846662134409        1.94642942053276        1.92613312450869
C            0.53257603345379        0.50821552468052        0.98468660699896
C            0.49164026914761        1.27942255703266       -0.91488991490357
F            2.05271686206254        1.60196682583088       -1.25951548642052
F           -0.19726993036351        0.43478774828001       -1.88653578946115
F           -0.56630637266155        2.45303765816265       -1.01687875447568
F            1.81381247872651       -0.60522615323318        0.83442560018386
F           -0.71774383965554        0.05409491871348        1.24325903572956
C            2.22298170827181        3.23420386200440        2.71395597134692
C            1.38470415276886        4.02240958121266        3.65191325073112
F            0.91663127598284        3.16831493616333        4.57044510022234
F            2.13306985458531        4.94978968127967        4.22534407360741
F            0.33552925976495        4.71544778084734        3.15130876688985
F            3.28365020970357        2.70038034688087        3.32994996469964
F            2.65853518842627        4.04389373497545        1.68555069050877
F            0.60543424366461        0.93696115649692        3.10066190101713
F            2.89255275385731        1.76064633106320        1.65449472823770
F            0.44016232676415        3.37130526040562        1.93409742283457
F            0.81731985868953       -0.81565538307399       -1.17588210230933
F            0.40897875760729       -1.29469247998848        0.99967479810007
F            2.75130332891865        0.07351823335901       -0.26115594064429
25
 energy: -99.637455365177 gnorm: 0.569169586473 xtb: 6.7.1 (edcfbbe)
C            1.05335119260640       -0.15621033981851       -0.19113722229081
C            0.37825820263019        1.70509401364729        0.43491786774802
F            1.17719343332553        2.69596274028489       -0.91903989869213
F           -1.10391358063370        1.49489674240909        0.31853209190224
P            1.24515111138165        1.95367944710422        1.95401059318426
C            0.50292435806306        0.46700965822775        1.03099750428295
C            0.48902642189981        1.29637106987978       -0.95445051647591
F            2.12717688422208        1.53654322538293       -1.31632376141209
F           -0.22363193735627        0.50558564652294       -1.91189303483337
F           -0.61401784219239        2.49149368276274       -1.10291990726110
F            1.89168879730401       -0.65902085972007        0.85390825687764
F           -0.74485869487040        0.03865101396716        1.30709224478507
C            2.23137192810562        3.24461745405119        2.73803823033435
C            1.38598844044459        4.03954819026117        3.66852725000219
F            0.91454458070867        3.17315047653874        4.57676585012423
F            2.13836605601336        4.95845032618924        4.24649523483748
F            0.34315324436130        4.74441124391456        3.19189858211913
F            3.29441499665180        2.71880206584383        3.34828638851064
F            2.65885360476455        4.03888965368014        1.69480780812315
F            0.60919043989195        0.97161751667562        3.13689642130050
F            2.89595668011917        1.70662799811589        1.60400162102154
F            0.37176447673143        3.35281488246582        1.89396823570352
F            0.86755521035086       -0.88581409337766       -1.16304659566236
F            0.35988214218438       -1.40982704922798        1.01057439376594
F            2.80277985329234        0.11171529421924       -0.32057763799508
25
 energy: -99.924343192629 gnorm: 0.389647144211 xtb: 6.7.1 (edcfbbe)
C            1.07998563304993       -0.20701571876541       -0.17291633707493
C            0.32557273810854        1.73160295623412        0.43948612899759
F            1.18440640931449        2.80285023385551       -0.97006535515987
F           -1.14853175449467        1.54471400036828        0.34619187504679
P            1.26523185505265        1.96426916714841        1.96594013024685
C            0.47410278689288        0.41991219868133        1.06241601195023
C            0.48515192729455        1.32791003012672       -0.99921159574812
F            2.18319400679659        1.48857511386724       -1.38939568249223
F           -0.23158409753263        0.57183074131583       -1.92882309372913
F           -0.66607844797158        2.52779354252853       -1.19078543530245
F            1.96435810226631       -0.72566465977623        0.87790511868529
F           -0.76838623886310        0.02237470721809        1.37188917452740
C            2.23834850929440        3.25743512578036        2.75767326905156
C            1.38816776073807        4.06130835844047        3.69042845175297
F            0.91249698414061        3.18185974281260        4.58729603529577
F            2.14923279105325        4.96877022895812        4.27796426994515
F            0.35459949715465        4.77516022622284        3.23696144032333
F            3.30503589652398        2.73887230140601        3.36648183489574
F            2.66127780788187        4.03312116348694        1.70829757374257
F            0.61876264742343        1.01689709545146        3.16666840298478
F            2.88503197433508        1.64965444966924        1.55680752343185
F            0.30170307123492        3.33981496645226        1.86980022635955
F            0.91578695194512       -0.95163328643930       -1.15673563222347
F            0.31599994539030       -1.52849604510340        1.02192304163432
F            2.85830324297036        0.12314336005999       -0.36586737714152
25
 energy: -100.108302841656 gnorm: 0.293034927447 xtb: 6.7.1 (edcfbbe)
C            1.11343029242736       -0.26972047987801       -0.14524107120296
C            0.27416203436240        1.74546382373968        0.42873900417983
F            1.18587538336636        2.90559296057026       -1.02736164915919
F           -1.18162042162362        1.60031737103911        0.37750592669894
P            1.27214234828504        1.97701436291132        1.96218220103818
C            0.44743906145705        0.36936042087662        1.07851242015673
C            0.47901524857104        1.36959697849572       -1.04706933189582
F            2.21987934224811        1.45701363843705       -1.47411826139030
F           -0.22458641403616        0.62935061504633       -1.93846787773078
F           -0.71750328944608        2.56161005713922       -1.27733075955055
F            2.03064604201990       -0.80232123738952        0.90140649960693
F           -0.78767042873166        0.00302459603967        1.43043540037290
C            2.24195986530272        3.27287328864616        2.77265394757915
C            1.39347741602663        4.08625125399141        3.71802435682334
F            0.91176167016031        3.19679457550322        4.60427713878065
F            2.16763588800037        4.97895678562843        4.32026747592774
F            0.36998938385772        4.81047094602054        3.28618563838356
F            3.31426674590001        2.76114187091038        3.38441543796399
F            2.66650894870721        4.02959942582865        1.72408302906331
F            0.63441516071145        1.07457957954585        3.19453079872906
F            2.85639397136387        1.59218728003273        1.51454354890937
F            0.22973948067996        3.33177539870123        1.86493309999100
F            0.96224394783863       -1.01233429960969       -1.15143801218724
F            0.27679368889148       -1.64715559196841        1.03091436680859
F            2.91577463365994        0.11361637974207       -0.40225332789642
25
 energy: -100.229159542159 gnorm: 0.248120379570 xtb: 6.7.1 (edcfbbe)
C            1.15125214027753       -0.34079752933960       -0.11137268738323
C            0.22743483908860        1.74654285026410        0.40571830223679
F            1.18482895882706        2.99540009140119       -1.08621059245683
F           -1.19994508314845        1.65992756917128        0.41089210980894
P            1.26268137547301        1.99124730401389        1.94578158877235
C            0.42461845141381        0.31790994314580        1.08122540371051
C            0.47165073923932        1.41867375866398       -1.09420139586191
F            2.23928929505634        1.43500019643536       -1.56194476965888
F           -0.20535449268542        0.67363142745320       -1.94371529792458
F           -0.76212728284097        2.59381749618344       -1.35809240384185
F            2.08777585397317       -0.88382497261668        0.92065701386580
F           -0.80295553313312       -0.02020871429090        1.47846327832225
C            2.24032122560466        3.29055015233695        2.78236969302656
C            1.40347243453622        4.11230353707310        3.75060459353853
F            0.91415692526139        3.21955704633422        4.62934064386006
F            2.19476264732659        4.98616618772053        4.37111812916771
F            0.38989955913425        4.85170049627889        3.33810132994185
F            3.31919492468719        2.78550901371058        3.40067155774810
F            2.67395903563759        4.03274758020220        1.73979174779006
F            0.65436605364076        1.14054700025089        3.21889384711093
F            2.80938525218342        1.53814594456059        1.47703364678889
F            0.15514040007640        3.32701258205025        1.87945125894859
F            1.00550461355001       -1.06743421749311       -1.14552908796219
F            0.24335086678317       -1.76206618196495        1.03634513775308
F            2.96950680003755        0.09300143845488       -0.43506304730151
25
 energy: -100.314600128493 gnorm: 0.230679071976 xtb: 6.7.1 (edcfbbe)
C            1.19245951868004       -0.41825059198488       -0.07050024134402
C            0.18663552092409        1.73714796566698        0.37539013784970
F            1.18371157142732        3.07276077503114       -1.14270274585106
F           -1.20429156792889        1.72397015690003        0.44706375115405
P            1.23781866449804        2.00823753164961        1.92037413179640
C            0.40568470676489        0.26732922484291        1.07380477898942
C            0.46438930677997        1.47706078721885       -1.13680883650207
F            2.24555125711723        1.41797854502770       -1.64698904147833
F           -0.17637078395532        0.70381385914221       -1.94619570328091
F           -0.79784508817486        2.62644614143378       -1.43108683696153
F            2.13540700429706       -0.96787283756957        0.93552658907556
F           -0.81424778017444       -0.04796000639046        1.51595258465506
C            2.23354982116089        3.31050102395706        2.78651577396034
C            1.41783290997180        4.13789933899996        3.78574012527651
F            0.92090052706241        3.24928865893599        4.66121018256301
F            2.22959451977214        4.98848967951457        4.42493497226206
F            0.41438148084025        4.89785027401286        3.38997425823971
F            3.31792660086054        2.81097175099595        3.41420292684678
F            2.68327461521657        4.04664946234602        1.75447481395288
F            0.67606620098931        1.20507669006099        3.23063904205009
F            2.74589715539048        1.48900052541553        1.44248534498737
F            0.07711386061196        3.32242993569792        1.91042404200049
F            1.04524719582551       -1.11771264774033       -1.13641935820924
F            0.21493281957610       -1.87278605061813        1.03874882039711
F            3.01654996246701        0.06673980745339       -0.46642951242933
25
 energy: -100.383057793054 gnorm: 0.231224087352 xtb: 6.7.1 (edcfbbe)
C            1.23674640479151       -0.50230758313573       -0.02053024959102
C            0.15199224518927        1.71812349763555        0.34235098938156
F            1.18295036193703        3.14001225492234       -1.19337042990475
F           -1.19808630440232        1.79303462416238        0.48757091796583
P            1.20130353091524        2.03047789095907        1.88884183069265
C            0.38931682183699        0.21896281274798        1.05759515366805
C            0.45696022173089        1.54921825042773       -1.17203249878165
F            2.24031948387997        1.40534408054616       -1.72497390355784
F           -0.13897819558872        0.72171095870617       -1.94602756006577
F           -0.82473985829756        2.66035278271985       -1.49502566789732
F            2.17388514427535       -1.05490651792577        0.94633667792006
F           -0.82118692660899       -0.08148662688098        1.54445582692258
C            2.22445714201917        3.33344973504094        2.78535701369922
C            1.43484366482259        4.16235051982790        3.81984954672676
F            0.93076947172874        3.28232626551571        4.69465166138565
F            2.26792966897664        4.98602154698146        4.47644255251292
F            0.44278738629176        4.94631419702682        3.43720502147568
F            3.31041238890282        2.83555290090871        3.42570971182718
F            2.69672333292287        4.07408075900283        1.76974715564675
F            0.69814671664114        1.26219362592943        3.22400807173164
F            2.67038030841758        1.44449481035468        1.41088872304436
F           -0.00189843954720        3.31574543810524        1.95297858957746
F            1.08089408112989       -1.16243680111959       -1.12189846364990
F            0.19050933315255       -1.98134126861259        1.03807414097626
F            3.05573201488293        0.03777184615381       -0.49787481170629
25
 energy: -100.447780432814 gnorm: 0.222768742841 xtb: 6.7.1 (edcfbbe)
C            1.28505967836356       -0.59650205147870        0.04390532161037
C            0.12157773057524        1.68643181367296        0.30857124774879
F            1.18054179528059        3.20051453459044       -1.23677585328783
F           -1.18624489537763        1.87101203084408        0.53606206002322
P            1.16030649279691        2.05951009455113        1.85329611202725
C            0.37292696340153        0.17389889436069        1.03052463277001
C            0.44613508834732        1.64443027620307       -1.19946068464488
F            2.22105127779772        1.39847581067194       -1.79522523281802
F           -0.09144066464224        0.73319496063438       -1.94050849599027
F           -0.84488104900121        2.69615988395037       -1.55066902727612
F            2.20345826649674       -1.14894737711669        0.95316468097999
F           -0.82209049831819       -0.12155748966967        1.56984193316513
C            2.21873634147333        3.36054149737528        2.77972534243365
C            1.45122170666668        4.18512949705758        3.84847218073554
F            0.93905393197745        3.31326785895938        4.72127444092587
F            2.30093566615963        4.98039423074014        4.52228106585096
F            0.47257472997457        4.99221726901339        3.47221849593021
F            3.29897444378624        2.85797268192972        3.43887920076626
F            2.71973847287562        4.11564811691497        1.78826658234309
F            0.72266629508578        1.31082134976921        3.19875552275220
F            2.59023237513599        1.40128284713839        1.38524467234025
F           -0.07584030205286        3.30386061650126        1.99949625144247
F            1.11145504086247       -1.19802255366150       -1.09900469396167
F            0.16846796598934       -2.09277819986108        1.03330215610971
F            3.08755314634558        0.00810340690937       -0.53130791197610
25
 energy: -100.505600410495 gnorm: 0.183488078908 xtb: 6.7.1 (edcfbbe)
C            1.33313768617221       -0.69483286416692        0.12099725431852
C            0.09696636558249        1.63869115817756        0.27431380694630
F            1.17402443649098        3.24360295945717       -1.26936209294473
F           -1.17141965177179        1.94757727913228        0.58250761983808
P            1.11892863292888        2.09622509940251        1.81961772121966
C            0.35579700354634        0.13723659585132        0.98867918411307
C            0.42941270349740        1.75930367785710       -1.21881461116733
F            2.18518764116149        1.39846794714404       -1.84989491159546
F           -0.03112723633434        0.73848345120832       -1.92954115183613
F           -0.85560360209184        2.72421822699368       -1.59731410518867
F            2.21732188165594       -1.24277297205125        0.95463406189688
F           -0.81374838532029       -0.16604816896692        1.58891353218739
C            2.21901091298599        3.39142788289987        2.77099483489586
C            1.46628208370704        4.20527661435497        3.87022369432140
F            0.94474806161646        3.33881237269801        4.73884624881074
F            2.32655156133188        4.97304491276135        4.55903453970567
F            0.50078699549514        5.03125364789821        3.49378212203794
F            3.28517448543062        2.87418544822068        3.45001699584761
F            2.74907082179787        4.16927216838463        1.81018780048793
F            0.74741849504374        1.34837924702767        3.16287768343521
F            2.51462129264078        1.36416283283788        1.36906863728317
F           -0.13197144197909        3.28949369203583        2.04797749730880
F            1.13450701352295       -1.21624074527504       -1.06786047045899
F            0.15080044570679       -2.19613757411031        1.02208133608239
F            3.10629179718255       -0.01802288977250       -0.56163722754520
25
 energy: -100.544438683626 gnorm: 0.158019593250 xtb: 6.7.1 (edcfbbe)
C            1.36487701955616       -0.77222254697881        0.18649157992557
C            0.08502773333389        1.58245401402243        0.24832936666113
F            1.16302698694121        3.24758989237223       -1.28224926438067
F           -1.15685050991049        1.98879541754295        0.60334749042444
P            1.08206252537139        2.13843141575240        1.79706886473193
C            0.34124405541171        0.11718193576214        0.93725518362203
C            0.40984839003038        1.85940726782828       -1.22795387781383
F            2.14017732003105        1.40238365286407       -1.87127798185023
F            0.03056344847820        0.73712753898185       -1.91875583534439
F           -0.85090669302859        2.72546284803238       -1.62593168835219
F            2.21040885460442       -1.31350000048687        0.94882938437585
F           -0.79512214051448       -0.21073346456887        1.58654665102992
C            2.22086289734197        3.42209236798739        2.76335496064274
C            1.48193199560127        4.22353783911042        3.88592469483638
F            0.94830315128231        3.36154012453584        4.75058011799179
F            2.35405555881332        4.96582070447184        4.58292020663422
F            0.52807811099703        5.06577297529446        3.50649351333980
F            3.26738930814599        2.87761170660585        3.45019168298328
F            2.77169264345840        4.22739232595492        1.83531524211699
F            0.76079397005883        1.36482812726885        3.12510107361291
F            2.45813242617204        1.34825820320196        1.36637782347957
F           -0.15723465954582        3.28426359644494        2.09769072355075
F            1.14460681601485       -1.20976655535888       -1.03803170353556
F            0.14531370695856       -2.26439901398413        1.00330584877032
F            3.10388708439661       -0.03427037265748       -0.58059405745263
25
 energy: -100.569355340178 gnorm: 0.168987159321 xtb: 6.7.1 (edcfbbe)
C            1.36800644555869       -0.81680968329968        0.21961618625445
C            0.09128421905486        1.52916454356776        0.24040704435729
F            1.15469724320436        3.21484869039472       -1.27178839427014
F           -1.14096542524820        1.98969755688697        0.60436569148635
P            1.06577147708196        2.17632462066021        1.78937007407410
C            0.33650254183610        0.11153642612584        0.88803391081891
C            0.39181782872650        1.92457999013244       -1.22523390394439
F            2.09933392453225        1.40287779677218       -1.86045922945016
F            0.06768797598810        0.74102062429139       -1.91061280882330
F           -0.82840732371950        2.70421883260009       -1.62395349711248
F            2.19359789360832       -1.36073609451397        0.93334598916251
F           -0.76455701678611       -0.24659352228627        1.57034622918113
C            2.22123611178435        3.44945693558811        2.76125238337733
C            1.49159775075059        4.24116626291931        3.89223331679963
F            0.93920472619065        3.38597929056593        4.75349637364396
F            2.37601998721768        4.96272075625678        4.59252042936708
F            0.55204917952193        5.09593361926742        3.50284371989020
F            3.24598342715682        2.87208784198105        3.44466788314332
F            2.78452186520434        4.28233257956176        1.86494054643067
F            0.76327213632963        1.35635321078391        3.08828486204152