17
 energy: -36.196607049769 gnorm: 0.100211430827 xtb: 6.7.1 (edcfbbe)
O            1.18624000000000        0.08354000000000       -0.44021000000000
C            0.39404000000000        0.27276000000000       -1.50881000000000
O            0.85501000000000        0.22823000000000       -2.64590000000000
C           -1.08856000000000        0.36863000000000       -1.29469000000000
C           -1.85666000000000       -0.16972000000000       -2.35294000000000
C           -3.25161000000000       -0.11393000000000       -2.35340000000000
C           -3.91256000000000        0.49427000000000       -1.29684000000000
C           -3.17490000000000        1.03610000000000       -0.24545000000000
C           -1.76171000000000        0.97991000000000       -0.21883000000000
C           -1.07273000000000        1.57718000000000        0.96818000000000
O           -1.58366000000000        2.61173000000000        1.48901000000000
O           -0.03990000000000        0.95936000000000        1.37646000000000
H            0.75122000000000        0.31944000000000        0.43375000000000
H           -1.35395000000000       -0.63635000000000       -3.19925000000000
H           -3.81187000000000       -0.53473000000000       -3.18262000000000
H           -4.99641000000000        0.55624000000000       -1.28485000000000
H           -3.69599000000000        1.52059000000000        0.58141000000000
17
 energy: -36.204181136513 gnorm: 0.040314357715 xtb: 6.7.1 (edcfbbe)
O            1.18245032419895        0.08870458701060       -0.47000921096162
C            0.38630222266123        0.22416866852889       -1.51862067196054
O            0.84416968830216        0.23365901920823       -2.64780270634182
C           -1.09568344161417        0.36309599007433       -1.30660952552874
C           -1.86010095214777       -0.16115502913893       -2.35581336023909
C           -3.24206242565663       -0.11105573524620       -2.34846901667367
C           -3.89554867936546        0.49595063484113       -1.28953821654514
C           -3.15593504277090        1.03366407805500       -0.25164178395703
C           -1.75862022788180        0.97389827772354       -0.22882706505086
C           -1.07968860790136        1.58237977813522        0.98256256009866
O           -1.60085084606064        2.59216744556275        1.47833415068832
O           -0.06447265188923        0.97367140092340        1.42712915386020
H            0.71442142100526        0.34108172390774        0.41738591465280
H           -1.34883136168029       -0.62262826029279       -3.19094015303887
H           -3.80345912978321       -0.53533428621152       -3.17186405574873
H           -4.97731531738984        0.55761081492277       -1.27362626301326
H           -3.65877497202631        1.52337089199585        0.57337024975939
17
 energy: -36.205423428502 gnorm: 0.021526651097 xtb: 6.7.1 (edcfbbe)
O            1.15660657142849        0.06544211439120       -0.48967843671167
C            0.38911637815940        0.25510744123316       -1.52810148974042
O            0.83251667616259        0.18873042982231       -2.65565565039062
C           -1.09692751627955        0.36985864196686       -1.32089623481943
C           -1.85922713825794       -0.15628151211443       -2.36095227118400
C           -3.23530997087522       -0.11181118850509       -2.34725915664295
C           -3.88296105872102        0.49460345560145       -1.28429434499761
C           -3.13901313176516        1.03327854800510       -0.25678168268133
C           -1.75182622502292        0.97134116190952       -0.23838652871033
C           -1.08577632827472        1.58393682742894        1.00337363221313
O           -1.61603031944098        2.57898675936588        1.47721920193002
O           -0.07580911596861        0.98508677593946        1.46643776764097
H            0.67740576474260        0.36424542069402        0.40741719038473
H           -1.33711864798395       -0.60342437426848       -3.19315214153020
H           -3.80029702628189       -0.54042266927429       -3.16444843484985
H           -4.96392935529534        0.54776312289307       -1.26071603922609
H           -3.62541955632576        1.52680904491132        0.57089461931566
17
 energy: -36.206139628789 gnorm: 0.009595898484 xtb: 6.7.1 (edcfbbe)
O            1.15937884428185        0.08291457387928       -0.48075187479101
C            0.39251555585554        0.22351485033236       -1.52874677681054
O            0.84564296500839        0.18668198604839       -2.65721920500047
C           -1.09445719200922        0.36481695932254       -1.32828570272604
C           -1.86209921429900       -0.15346022385255       -2.37060913157686
C           -3.24016449972175       -0.11046907769815       -2.34955407557254
C           -3.88316142932680        0.49300484554628       -1.28093980669431
C           -3.13324962423386        1.03066363489063       -0.25487619253730
C           -1.74396825309417        0.96804882500761       -0.24294820609562
C           -1.08266903589187        1.58846112480162        1.00347836893325
O           -1.62947726868687        2.57716604986137        1.47959341878128
O           -0.07316923881908        0.99056658637728        1.47161362564864
H            0.65954548714433        0.37170756399513        0.41258009128359
H           -1.33991651525481       -0.59631042524037       -3.20639131012520
H           -3.81003862448918       -0.53794287628393       -3.16434896002147
H           -4.96414886536344        0.54660986620563       -1.25322685078353
H           -3.61456309110007        1.52727573680688        0.57565258808814
17
 energy: -36.206338973402 gnorm: 0.007445741534 xtb: 6.7.1 (edcfbbe)
O            1.15967587431324        0.09268686230094       -0.47525074408602
C            0.39520920777492        0.21324923475136       -1.52882785948969
O            0.84901744296698        0.16166382050006       -2.65881548550935
C           -1.09265945512545        0.36251662435087       -1.33207102991221
C           -1.86345837192644       -0.14995602688046       -2.37690873178121
C           -3.24252406067069       -0.10680134187607       -2.35226257837697
C           -3.88324989497180        0.49203417818965       -1.27937785288114
C           -3.13064256189916        1.02915154235349       -0.25403985679204
C           -1.73948698247334        0.96573674785445       -0.24536962467743
C           -1.08383423841611        1.58638641737040        1.00678427286326
O           -1.63952771327082        2.57204411537465        1.48306898090144
O           -0.06913291693183        0.99391347585738        1.47108150191768
H            0.65728277236315        0.39258865611981        0.41843746695943
H           -1.34154880939364       -0.58914276621199       -3.21572378361004
H           -3.81533291189340       -0.53124376149485       -3.16677483314761
H           -4.96430718635653        0.54343073297502       -1.24802402586943
H           -3.60948019408906        1.52499148846527        0.57909418349136
17
 energy: -36.206530736624 gnorm: 0.009743458849 xtb: 6.7.1 (edcfbbe)
O            1.15739994426893        0.10909796018418       -0.46960516083795
C            0.39885402997485        0.20044906433036       -1.52906734412034
O            0.85153955420668        0.11094325993103       -2.65985935382102
C           -1.09029623415957        0.36059479251473       -1.33769787484128
C           -1.86492371035109       -0.14296694120762       -2.38564498315573
C           -3.24418057126582       -0.09925419670375       -2.35670182393151
C           -3.88194700777355        0.49073198300511       -1.27685415296482
C           -3.12630148567893        1.02489696229163       -0.25195285925031
C           -1.73307325392037        0.96216104730267       -0.24847889852743
C           -1.08247203914997        1.58722986189981        1.00811177541390
O           -1.65872672467268        2.55701965836857        1.49356754544922
O           -0.05859547474879        1.00482670069114        1.46723106002179
H            0.64724216110186        0.42604146634810        0.42688162493197
H           -1.34314589124647       -0.57692702661017       -3.22789318216114
H           -3.82072158587960       -0.51787523054939       -3.17179089053385
H           -4.96308238366764        0.53764967415299       -1.23990322113806
H           -3.60156932703784        1.51863096405058        0.58467773946659
17
 energy: -36.206632209006 gnorm: 0.009478397078 xtb: 6.7.1 (edcfbbe)
O            1.15718380737033        0.11978951810269       -0.47029931619797
C            0.39977810272472        0.19214173164706       -1.52856989179321
O            0.84877332549784        0.07684008924645       -2.65905386127262
C           -1.08975138500955        0.35967413452222       -1.33808760182719
C           -1.86514461143055       -0.13844484230083       -2.38826195878709
C           -3.24381566371839       -0.09359071181662       -2.35985520474018
C           -3.88137730313868        0.49057487346000       -1.27678284047150
C           -3.12580407927857        1.02110376400994       -0.25054424872007
C           -1.73211365271427        0.95832732855343       -0.24703081262374
C           -1.08663236908307        1.58208752305733        1.01354469264988
O           -1.66512475005058        2.54877190500016        1.49785296021231
O           -0.04503578142628        1.01838538080256        1.46022297547018
H            0.64189734251936        0.44693300625542        0.43124425102640
H           -1.34285596114182       -0.56941688983139       -3.23166849985731
H           -3.82084448904601       -0.50668631301242       -3.17746473085640
H           -4.96246771705051        0.53573659697139       -1.23842257457022
H           -3.60066481502395        1.51102290533258        0.58819666235875
17
 energy: -36.206776399456 gnorm: 0.007228211878 xtb: 6.7.1 (edcfbbe)
O            1.16028444458653        0.12990633659668       -0.47522279782137
C            0.40043199481075        0.18303886907176       -1.52738150559484
O            0.84171278854488        0.03576452273617       -2.65708933261918
C           -1.08953236189688        0.35883649720166       -1.33651464621728
C           -1.86510915930199       -0.13456065268489       -2.38824967781986
C           -3.24291647782210       -0.08686494608188       -2.36303066725419
C           -3.88128429487658        0.49224483480859       -1.27791896577512
C           -3.12657370276932        1.01740528718471       -0.24914628693591
C           -1.73294027364316        0.95543328317674       -0.24493644331511
C           -1.08613773732818        1.58328311063709        1.00971957124668
O           -1.67973511727512        2.52961249644197        1.51390221706059
O           -0.03066991816840        1.03379817562967        1.44864328141125
H            0.64477424685405        0.47357571386645        0.43659897030241
H           -1.34242336257951       -0.56420321434570       -3.23158796715457
H           -3.81914147037473       -0.49415887290079       -3.18414945313086
H           -4.96227860190365        0.53753475396647       -1.23991429483538
H           -3.60246099685658        1.50260380469527        0.59129799845275
17
 energy: -36.206889721486 gnorm: 0.004275103427 xtb: 6.7.1 (edcfbbe)
O            1.16766936181954        0.13813229997234       -0.48436819424218
C            0.40098676146396        0.17389544149725       -1.52738802545073
O            0.83262384171650        0.00781725003536       -2.65675515137601
C           -1.08937872987122        0.35642609883113       -1.33213996916967
C           -1.86444169252118       -0.13400215349405       -2.38466574720856
C           -3.24179163036939       -0.08155906438747       -2.36533586143959
C           -3.88193389697975        0.49564877576161       -1.28053057202516
C           -3.12838568915025        1.01436429939390       -0.24804868254002
C           -1.73565708619524        0.95183460214345       -0.24048848995100
C           -1.08947402698005        1.58155771130787        1.00778677847237
O           -1.69281242131990        2.51108652553276        1.53044649171362
O           -0.01474989511544        1.05464435494497        1.43679023118546
H            0.64926540793164        0.49041416576972        0.43963366162209
H           -1.34105260103252       -0.56403577786329       -3.22688655983813
H           -3.81565918795802       -0.48431331810459       -3.19026795501586
H           -4.96281943222762        0.54500544203681       -1.24571650922078
H           -3.60638908321108        1.49633334662221        0.59295455448416
17
 energy: -36.206946049930 gnorm: 0.003553689098 xtb: 6.7.1 (edcfbbe)
O            1.17708495115821        0.15101518024594       -0.49265745113634
C            0.40304615906948        0.16212419505868       -1.52914570688492
O            0.82435280553232       -0.02752719701856       -2.66032498382342
C           -1.08825988238520        0.35311116097557       -1.32920271674854
C           -1.86417034677380       -0.13419814120862       -2.38222206134262
C           -3.24163836430808       -0.07642893576100       -2.36758543501685
C           -3.88256438477127        0.50025122657857       -1.28320956269466
C           -3.12872363835907        1.01337232348665       -0.24793908415901
C           -1.73637135196060        0.94923082932218       -0.23783653512389
C           -1.09469399716616        1.57734617290810        1.00834830164803
O           -1.71151178310742        2.48669817673082        1.55281621035756
O           -0.00082782645239        1.07521941585570        1.42651180696892
H            0.65529642306340        0.51574101716769        0.44334026923598
H           -1.34029619119689       -0.56482004581090       -3.22384383864093
H           -3.81385135405906       -0.47483420761339       -3.19572434896796
H           -4.96336628161301        0.55410474187572       -1.25064958591471
H           -3.60750493667047        1.49284408720685        0.59434472224338
17
 energy: -36.206971310316 gnorm: 0.002430644954 xtb: 6.7.1 (edcfbbe)
O            1.18135285108609        0.15590201872079       -0.49768788738118
C            0.40466262266886        0.15865057186240       -1.53046846407836
O            0.82153119611475       -0.03438620899742       -2.66212122836340
C           -1.08741030616272        0.35065888229408       -1.32837888285855
C           -1.86424421431818       -0.13601003524588       -2.38099213959294
C           -3.24208946215415       -0.07593739266018       -2.36771077683455
C           -3.88283278037167        0.50361388309852       -1.28495501695844
C           -3.12800932064398        1.01555259240903       -0.24945529696811
C           -1.73572218898639        0.94846457790261       -0.23749437880307
C           -1.09759010197959        1.57327366838746        1.00968229258815
O           -1.71976005705538        2.47173823752636        1.56522820683528
O            0.00419371050319        1.08478523483641        1.42249969369789
H            0.65557689576211        0.52463385766859        0.44445776780805
H           -1.34028603031270       -0.56961736531082       -3.22118109409004
H           -3.81368969759735       -0.47512913137871       -3.19571919428716
H           -4.96355331717275        0.56050769149903       -1.25326102199761
H           -3.60612979938013        1.49654891738771        0.59257742128407
17
 energy: -36.206988448931 gnorm: 0.002733828625 xtb: 6.7.1 (edcfbbe)
O            1.18446339198760        0.16167391342045       -0.50173468526443
C            0.40644702761226        0.15506816646575       -1.53192087953023
O            0.81908768740901       -0.04606789542213       -2.66452776164056
C           -1.08648359690210        0.34797148998505       -1.32811317508025
C           -1.86453951523125       -0.13844042135702       -2.38009512121216
C           -3.24247826445194       -0.07548365448099       -2.36780224470869
C           -3.88261564293554        0.50726242403124       -1.28659600677758
C           -3.12687531217907        1.01782123946392       -0.25101797867635
C           -1.73425435055565        0.94748446628149       -0.23760492043670
C           -1.10021070805778        1.56869798966165        1.01201786762200
O           -1.73253208629335        2.45273832385872        1.58063675421838
O            0.01243030379520        1.09631053080136        1.41642502837815
H            0.65538788642809        0.53765022899296        0.44626348540767
H           -1.34091974041082       -0.57382541194762       -3.21982335185757
H           -3.81402719211500       -0.47463401660032       -3.19586030496655
H           -4.96312339436781        0.56759693398767       -1.25552684628630
H           -3.60375649373184        1.50142569285780        0.59030014081120
17
 energy: -36.207005088731 gnorm: 0.002048441830 xtb: 6.7.1 (edcfbbe)
O            1.18619915098860        0.16385182042862       -0.50521969617369
C            0.40769798866719        0.15416746756228       -1.53333167900902
O            0.81718205673798       -0.04780096850869       -2.66718010977584
C           -1.08618582013645        0.34506339393297       -1.32761949825755
C           -1.86500031811370       -0.14282266729822       -2.37843728151410
C           -3.24280960761413       -0.07707579328157       -2.36705134565434
C           -3.88233087935141        0.51165891136170       -1.28880960190422
C           -3.12610183036516        1.02242460261331       -0.25393072757333
C           -1.73314667277931        0.94745935317840       -0.23827576672001
C           -1.10218247490498        1.56335022668931        1.01512622107293
O           -1.74233110220192        2.43324384162441        1.59539903026501
O            0.01893472301625        1.10469800046224        1.41063554154102
H            0.65644664201826        0.54871625713913        0.44763886142371
H           -1.34187355777862       -0.58070939864698       -3.21737640053169
H           -3.81448553068108       -0.47810903503210       -3.19416602769735
H           -4.96257730416142        0.57581185404267       -1.25867054860055
H           -3.60143546334012        1.50932213373253        0.58628902910902
17
 energy: -36.207015075324 gnorm: 0.002153156813 xtb: 6.7.1 (edcfbbe)
O            1.18711243599606        0.16321407199518       -0.50831949952166
C            0.40845515239795        0.15350630331726       -1.53479309808867
O            0.81526085500511       -0.04705824969854       -2.66996287017148
C           -1.08613159487583        0.34283539537323       -1.32668666127600
C           -1.86519158144131       -0.14671636006287       -2.37651860360755
C           -3.24268363559871       -0.07834539837713       -2.36658200162381
C           -3.88189671753010        0.51571642456364       -1.29100440226349
C           -3.12569998784988        1.02583163028390       -0.25614295980185
C           -1.73269296351915        0.94709699145096       -0.23814900025953
C           -1.10319643863380        1.56025549453605        1.01751083879818
O           -1.75257277619230        2.41526660712493        1.60982799018533
O            0.02750521166746        1.11506471634779        1.40403985124238
H            0.65679691574584        0.55618103825655        0.44825099119020
H           -1.34243574851556       -0.58816532027647       -3.21372255612565
H           -3.81454189564821       -0.48121174433070       -3.19276657582109
H           -4.96193123054072        0.58410314548570       -1.26267700942202
H           -3.60015600046685        1.51567525401051        0.58271556656672
17
 energy: -36.207021836411 gnorm: 0.001261730858 xtb: 6.7.1 (edcfbbe)
O            1.18683008937768        0.15877311230533       -0.50925646030169
C            0.40837307524050        0.15479788617295       -1.53574151140081
O            0.81427424423275       -0.03903677528387       -2.67250836904908
C           -1.08652827475996        0.34208432897681       -1.32561009124966
C           -1.86520240470314       -0.15027151069323       -2.37437481278074
C           -3.24240625272614       -0.08049402400248       -2.36578025567180
C           -3.88170483091009        0.51823802983184       -1.29268024862111
C           -3.12605403507768        1.02874599601618       -0.25791260780040
C           -1.73324087956813        0.94781225048886       -0.23807723912001
C           -1.10314961169324        1.55926811528750        1.01893646195221
O           -1.75542996304150        2.40601235871025        1.61755760282011
O            0.03119377906903        1.11929170994350        1.40026512734151
H            0.65808745919989        0.55775894207653        0.44783397541259
H           -1.34246628664833       -0.59403611601975       -3.21022528286000
H           -3.81441492447005       -0.48517738938369       -3.19104452469126
H           -4.96163563375661        0.58936254001265       -1.26629858927536
H           -3.60052554976498        1.52012054556061        0.57993682529549
17
 energy: -36.207024691298 gnorm: 0.000695013095 xtb: 6.7.1 (edcfbbe)
O            1.18692295763904        0.15302598395389       -0.50975203335777
C            0.40856893307322        0.15412170036174       -1.53622687100754
O            0.81351186595000       -0.03519557320839       -2.67422180169606
C           -1.08638828097141        0.34234492200542       -1.32498141075681
C           -1.86502278498057       -0.15182328820059       -2.37297721374905
C           -3.24219957398860       -0.08120950794410       -2.36550210848580
C           -3.88166787180238        0.51975356735126       -1.29371046679936
C           -3.12620613929099        1.03025369999025       -0.25879206659158
C           -1.73370299257579        0.94865009311739       -0.23803244196693
C           -1.10363125570013        1.55986918177826        1.01911304847112
O           -1.75954465807865        2.39909459265754        1.62468027221289
O            0.03536303308598        1.12547714796064        1.39589630442016
H            0.65922562986864        0.55907125142635        0.44736014969506
H           -1.34212101850423       -0.59744634630528       -3.20763696603284
H           -3.81425968584207       -0.48670694942616       -3.19028086786249
H           -4.96158759320455        0.59219742328069       -1.26867119397987
H           -3.60126056467754        1.52177210120106        0.57875566748688
