45
 energy: -62.857987743411 gnorm: 0.304390554716 xtb: 6.7.1 (edcfbbe)
C            1.34400000000000       -0.22500000000000        0.03600000000000
C            0.89200000000000        1.08000000000000       -0.07000000000000
C           -0.50900000000000        1.21500000000000        0.07500000000000
C           -1.37300000000000        0.22300000000000       -0.04100000000000
C           -0.85600000000000       -1.04200000000000        0.00300000000000
C            0.50200000000000       -1.25100000000000       -0.00400000000000
B            2.91032000000000       -0.50141000000000        0.20993000000000
C            3.69934000000000        0.08944000000000       -1.05036000000000
C            4.38457000000000       -0.74433000000000       -1.91860000000000
C            5.18109000000000       -0.05690000000000       -2.86467000000000
C            5.04452000000000        1.22022000000000       -3.17181000000000
C            4.29916000000000        1.97649000000000       -2.31045000000000
C            3.59769000000000        1.39277000000000       -1.28327000000000
C            3.43189000000000        0.20770000000000        1.54601000000000
C            4.52038000000000        1.06332000000000        1.50504000000000
C            5.14833000000000        1.25255000000000        2.75880000000000
C            4.59430000000000        0.97097000000000        3.92403000000000
C            3.48162000000000        0.17699000000000        3.89232000000000
C            2.88688000000000       -0.15879000000000        2.70009000000000
C            3.16602000000000       -2.07780000000000        0.30807000000000
C            3.73834000000000       -2.61720000000000        1.44828000000000
C            4.15099000000000       -3.96260000000000        1.30109000000000
C            3.73696000000000       -4.77251000000000        0.34368000000000
C            3.11808000000000       -4.18491000000000       -0.72457000000000
C            2.79963000000000       -2.84840000000000       -0.70935000000000
H            1.54321000000000        1.91066000000000       -0.24560000000000
H           -0.89528000000000        2.18854000000000        0.29386000000000
H           -2.42125000000000        0.39971000000000       -0.16287000000000
H           -1.51848000000000       -1.88128000000000        0.04347000000000
H            0.88452000000000       -2.24957000000000       -0.04203000000000
H            4.31764000000000       -1.81145000000000       -1.87760000000000
H            5.94738000000000       -0.61030000000000       -3.36612000000000
H            5.49304000000000        1.64053000000000       -4.04764000000000
H            4.26158000000000        3.03818000000000       -2.43812000000000
H            2.96376000000000        1.99387000000000       -0.66544000000000
H            4.85591000000000        1.53812000000000        0.60677000000000
H            6.14115000000000        1.65154000000000        2.76311000000000
H            4.99462000000000        1.34409000000000        4.84350000000000
H            3.06806000000000       -0.18811000000000        4.80915000000000
H            1.97630000000000       -0.72070000000000        2.70161000000000
H            3.85759000000000       -2.06643000000000        2.35786000000000
H            4.84690000000000       -4.35080000000000        2.01517000000000
H            3.87823000000000       -5.83160000000000        0.40087000000000
H            2.87829000000000       -4.77435000000000       -1.58478000000000
H            2.25142000000000       -2.42472000000000       -1.52475000000000
45
 energy: -62.927811500785 gnorm: 0.113376648779 xtb: 6.7.1 (edcfbbe)
C            1.34502909501327       -0.21501169754520        0.01616177853869
C            0.85402041610585        1.08101435510408       -0.04024037276326
C           -0.51986068352556        1.25275658704401        0.06289126814738
C           -1.39839106573014        0.21624292820121       -0.02697545854386
C           -0.88752111211227       -1.06482359534897       -0.01315095947662
C            0.47111384458879       -1.26677249292935        0.00827513040765
B            2.90216890176683       -0.49452156235257        0.19917755161572
C            3.67667839122864        0.06908835914314       -1.07270909146787
C            4.41450829532324       -0.73352180293214       -1.92746704275465
C            5.19055359464387       -0.09091980974666       -2.89067072723270
C            5.06453303015383        1.23550767570284       -3.17857572678612
C            4.29432368898226        2.00701824086816       -2.33534296402880
C            3.61958480974115        1.41857259858780       -1.29672644765114
C            3.42367737697542        0.22885970430536        1.52614887215209
C            4.53990218757918        1.05396023681518        1.52195443495606
C            5.16665492057240        1.28915424140078        2.74504935467412
C            4.59995187604123        0.95963368901197        3.94048516816447
C            3.45278390750782        0.19088710033017        3.92100868821427
C            2.87291923138284       -0.15681877033123        2.72073553962222
C            3.15745628253354       -2.06693342306902        0.33135947146056
C            3.76582268641151       -2.63517750331048        1.43958663466894
C            4.15675875504530       -3.96978690202562        1.34210014722741
C            3.74918123701160       -4.78616709944805        0.32968840198677
C            3.09626139418197       -4.20952346789998       -0.74108106809907
C            2.80590237570476       -2.86400707456520       -0.72942612119541
H            1.49471575597313        1.92308033379518       -0.18780088077066
H           -0.90621921429955        2.24063337812304        0.25431949053968
H           -2.45315562761194        0.39524272783136       -0.12938586431280
H           -1.54980230258294       -1.91031944091447        0.02131983824416
H            0.85494283470258       -2.26794274006740       -0.00619888191866
H            4.36704875554427       -1.80355862268005       -1.87027998916586
H            5.94301013466561       -0.65698099608078       -3.41484880876013
H            5.53222455377889        1.66170100343224       -4.04777966113607
H            4.24831348911898        3.07382803149927       -2.46336151974377
H            3.02099701622941        2.03029007157981       -0.65703705367816
H            4.89475117879613        1.50980802280793        0.61699899272410
H            6.15845895083225        1.71297108767781        2.75014937617770
H            5.01825388299297        1.31456248129816        4.86684710285284
H            3.03910283143662       -0.17864951808019        4.84274217967840
H            1.97010330322954       -0.74300986686006        2.71385932392907
H            3.90350303633233       -2.07895838908588        2.34603309864467
H            4.83579966677798       -4.36877595678654        2.07839638453952
H            3.90946068678199       -5.84919392388370        0.37797042693312
H            2.84877744934700       -4.80240441749021       -1.60383868205035
H            2.27040018082754       -2.42950378112580       -1.55668133456351
45
 energy: -62.957497907103 gnorm: 0.033142192844 xtb: 6.7.1 (edcfbbe)
C            1.32752193796337       -0.21508126359946        0.01408972926320
C            0.80637349458336        1.07225905921055       -0.01622296425101
C           -0.55281129337195        1.27845513060419        0.04718304826348
C           -1.43360859735162        0.21625689471231       -0.01064119203326
C           -0.92848461185691       -1.07120779395169       -0.01913832608944
C            0.43138444374570       -1.27269085536464        0.02381264481385
B            2.89070040480449       -0.49024697366152        0.18794767119860
C            3.66845105085143        0.06751060036264       -1.09111747095921
C            4.44062496113174       -0.70739225687885       -1.94503365139269
C            5.20062902937369       -0.10537379777458       -2.92886746395414
C            5.09199769767901        1.24682414416842       -3.19175529686201
C            4.30483341492573        2.02679156865536       -2.36401732282752
C            3.64423867086819        1.43883998702799       -1.31348542444628
C            3.41768329565554        0.23915246511639        1.51925665963375
C            4.55205883359355        1.04375508948377        1.55002755201654
C            5.17619932409627        1.32394947253566        2.75039557722908
C            4.60720116886028        0.95120849638961        3.95382414241752
C            3.43771970297285        0.20706576846994        3.94026339380164
C            2.86653905648104       -0.14952131276082        2.73581101645740
C            3.15875654040703       -2.06611441307530        0.33598237233617
C            3.78840883728383       -2.66115755422973        1.42006008553723
C            4.15726072819255       -3.99251595063146        1.36928772434662
C            3.76693883623192       -4.80075822771657        0.31902159810213
C            3.09063309984167       -4.23267264748957       -0.74822499515518
C            2.81911540051791       -2.88159516011244       -0.74220739747337
H            1.45261235986555        1.92906722159022       -0.10294774205959
H           -0.93745974620738        2.28180709439400        0.19043824787676
H           -2.49498192261350        0.39558679454305       -0.08447285352704
H           -1.59242282832355       -1.92304825435393       -0.00807996357567
H            0.81460059207321       -2.27878831318412        0.03798965249825
H            4.43848040883211       -1.78381240851925       -1.84901405777334
H            5.92463626577257       -0.68978908408689       -3.48443839143825
H            5.58783644563977        1.68020798446854       -4.04743712914761
H            4.24226171496324        3.09692104687910       -2.50338641293259
H            3.07463236359114        2.06275235071244       -0.65056518037773
H            4.94794548408729        1.45377735870751        0.63024683336490
H            6.15516397780692        1.79108569742362        2.75582747164217
H            5.04897491374864        1.27410639741094        4.88737369737572
H            3.01236103510793       -0.14936254680224        4.86855350814075
H            1.96987604184267       -0.75392085687807        2.72282688569201
H            3.97320660683884       -2.08698064411643        2.31591038210637
H            4.79896122061168       -4.40558207788487        2.14013238862766
H            3.95296712302589       -5.86501185031818        0.35275434084120
H            2.81863330223011       -4.83418568982673       -1.60497480152744
H            2.29604921362638       -2.43904068964904       -1.57930858577924
45
 energy: -62.970829695844 gnorm: 0.020141368866 xtb: 6.7.1 (edcfbbe)
C            1.30194206832356       -0.22004427467335        0.03735560836719
C            0.76601308080486        1.06434998305263        0.02054495289518
C           -0.59566080710423        1.28946851544562        0.03662529858306
C           -1.47542653404406        0.21975282064854       -0.00781550296431
C           -0.97203963368353       -1.06758283769422       -0.01693945079374
C            0.39092571723569       -1.27311429418444        0.03843258811038
B            2.88535013534500       -0.48836431272460        0.18009233526310
C            3.67897701433340        0.08258218314527       -1.10098672161192
C            4.46949744983969       -0.68089359024459       -1.95350279127612
C            5.21116525497463       -0.10278187331751       -2.96657686646747
C            5.11460844906877        1.25674915934511       -3.21795040242518
C            4.32592771893518        2.04025821514727       -2.39464536494671
C            3.66330047574553        1.45727973705858       -1.33727882761826
C            3.42574307431842        0.23102090952196        1.52368835383933
C            4.57077930827834        1.02234055185254        1.57183420463981
C            5.17920378654072        1.34788070170291        2.76941764015012
C            4.60716708887967        0.95696668029919        3.97036609036460
C            3.43152476950723        0.22384145238449        3.95521866673930
C            2.86488382699213       -0.13893837364299        2.74832293620240
C            3.17601753780249       -2.07199417112943        0.32192556203860
C            3.81839525460849       -2.67827736382903        1.39493695933483
C            4.15582407760484       -4.02027756228195        1.37849887224808
C            3.77533448289282       -4.82181130825390        0.31428916649345
C            3.09402130565025       -4.25602612836977       -0.75081875481247
C            2.82870188574600       -2.90178609022884       -0.75027603368960
H            1.42012268892696        1.92772214642904       -0.00741658317771
H           -0.97916180243100        2.30457915868095        0.12235975108737
H           -2.54273132148347        0.39693125567668       -0.04848717199911
H           -1.63956457857190       -1.92123107776881       -0.03057164486560
H            0.76696980033933       -2.28462176368564        0.07524810507475
H            4.50905534936373       -1.75817668536762       -1.82244361597042
H            5.89787722074589       -0.70722323724264       -3.55531235039508
H            5.64283436843319        1.69759211455153       -4.05507574633526
H            4.25295977248695        3.11068647118059       -2.54792352486914
H            3.11552706821321        2.09360931515733       -0.66115651508387
H            5.00435444945335        1.38682731191579        0.64349087104816
H            6.13629485044568        1.86676231123221        2.77563276079988
H            5.07078273582561        1.24165525622231        4.90998721110472
H            2.98961564320582       -0.11137311741046        4.88742981754697
H            1.97007887207562       -0.74890264815773        2.73489784084987
H            4.05071424926042       -2.08892461124135        2.27622215380443
H            4.74994489866863       -4.44664972973309        2.18607999144414
H            3.99066659561057       -5.88429616025671        0.32981771007132
H            2.79881391850037       -4.86602675875288       -1.59790860117463
H            2.31736843233533       -2.45800828045921       -1.59594897762392
45
 energy: -62.976227651155 gnorm: 0.015798480247 xtb: 6.7.1 (edcfbbe)
C            1.28357648215338       -0.22622752261425        0.06551978080165
C            0.73832663144485        1.05770222477873        0.06027461766931
C           -0.62648448121079        1.29053168657473        0.03609982628614
C           -1.50777994895277        0.22370826220467       -0.00813515912626
C           -1.00432720649255       -1.06301880976877       -0.00737821636947
C            0.36138547983789       -1.27342787662170        0.05297629818825
B            2.88844446539537       -0.48874711960647        0.17723064328264
C            3.68690498116239        0.10341108249773       -1.11060340186393
C            4.49198489953059       -0.65667686054121       -1.95790878187411
C            5.21878248228129       -0.09402371464221       -2.99378680857549
C            5.13392130672564        1.26511989491194       -3.24461431190456
C            4.34948802818339        2.05236146946118       -2.42136045276112
C            3.67303918337689        1.47669217935975       -1.36395966124522
C            3.44236613437852        0.21587695172087        1.53384191959340
C            4.59518667898579        0.99645349729786        1.59123265027943
C            5.17990060633819        1.36151284471352        2.79274009691063
C            4.60261958339045        0.97072073702216        3.98915608383050
C            3.42529175879799        0.24227064606077        3.96902860073826
C            2.86412182192341       -0.12647039295901        2.76008318973097
C            3.19226938150959       -2.08269114593897        0.30193477343274
C            3.84621994951933       -2.69235533493456        1.36885065257504
C            4.15404359179829       -4.04394891828500        1.37513275429204
C            3.77755274947491       -4.84472485863215        0.31109721874588
C            3.09856340416556       -4.27893788990608       -0.75469763676543
C            2.83221122833200       -2.92320953586644       -0.75868027738843
H            1.39435249101148        1.92141918948562        0.07818450660355
H           -1.00783954848737        2.31065179096768        0.07244043174893
H           -2.57737105553467        0.39936539141662       -0.03337122573145
H           -1.67714109967969       -1.91402053123133       -0.03774353482846
H            0.72603724132688       -2.28968810902468        0.09599050459818
H            4.56406003338782       -1.72909404935419       -1.80304509561315
H            5.87118282813063       -0.71556071988102       -3.60503781950304
H            5.68402775881259        1.70758874545373       -4.06869775294357
H            4.27686232515039        3.12176958847398       -2.58708446520804
H            3.12936013731539        2.12307272851655       -0.69369371336166
H            5.05948773397186        1.32358253646310        0.66341861789561
H            6.11397969359100        1.92212772308447        2.80012151231478
H            5.07346830643475        1.23378938590195        4.93101775725257
H            2.96643652172271       -0.07087482662162        4.90235480142809
H            1.96462068358188       -0.72914382600372        2.74919122707414
H            4.12143475321519       -2.09480964221761        2.23386035119765
H            4.70866044951602       -4.47580550346354        2.20778442549490
H            4.01092960316643       -5.90439804793404        0.31574187943692
H            2.79025942984932       -4.89563422073871       -1.59311147712834
H            2.32428252146791       -2.48470909958069       -1.60871532920978
45
 energy: -62.977993003387 gnorm: 0.010113906726 xtb: 6.7.1 (edcfbbe)
C            1.27636696291380       -0.23211147235109        0.08729127393122
C            0.72689081212815        1.05205925959463        0.09202706510711
C           -0.63772066044411        1.28717934702319        0.04427124384374
C           -1.52350992490658        0.22619578224646       -0.00506353256461
C           -1.01962547515466       -1.06099785906388        0.00540699330166
C            0.34712369203315       -1.27507932208997        0.06449802853265
B            2.89553341052435       -0.49102639345320        0.17728379393180
C            3.69169411180842        0.12176926920898       -1.11590299138454
C            4.50297084238916       -0.63953995368634       -1.95874276995481
C            5.22054026698741       -0.08737131471023       -3.00799295424789
C            5.14716998212617        1.27017838671610       -3.26339070308414
C            4.36599643348979        2.06126490124287       -2.44026268382088
C            3.67514768012921        1.49270718502393       -1.38524573692335
C            3.45762091234551        0.20166707127197        1.54275240321760
C            4.61628226177979        0.97372015594320        1.60542256196790
C            5.17857265669485        1.36634472824731        2.81086366365106
C            4.59208228103491        0.98896676951055        4.00468647790521
C            3.41319128575867        0.26265515980315        3.97866044510351
C            2.86047462065434       -0.11421189932255        2.76774898444184
C            3.20604736019603       -2.09270215980086        0.28071219939000
C            3.86796401537640       -2.70227280327320        1.34444607671905
C            4.15424701247731       -4.05910351819205        1.36427860748026
C            3.77650547353028       -4.86366329520566        0.30577364351904
C            3.10155109112395       -4.29687728565511       -0.76224639200757
C            2.83416843020465       -2.94012759407803       -0.76995996118616
H            1.38165096685910        1.91409996721208        0.14409716785395
H           -1.01523914330565        2.30639005213714        0.05463023172688
H           -2.59254310151533        0.40203205249299       -0.03484442539131
H           -1.69708112400689       -1.90790634642845       -0.02878465773073
H            0.70113888343247       -2.29530880697097        0.10453056255163
H            4.59512070590835       -1.70580095412936       -1.78856019757919
H            5.85140202880961       -0.71967414385025       -3.62705948206920
H            5.70568261066536        1.70921401268689       -4.08299893522839
H            4.30255899385241        3.13012769282735       -2.61295383239935
H            3.12406704133941        2.14745121347431       -0.72945648719744
H            5.10565018318064        1.27057798202863        0.68138635244843
H            6.09725293560886        1.94673075463308        2.82022272355153
H            5.05632749047780        1.25194749729168        4.94715498831476
H            2.94013891386063       -0.03198393753941        4.91113370271849
H            1.95261522575107       -0.70374982900510        2.75947364664044
H            4.17212780503299       -2.10205049113177        2.19557987406973
H            4.68512134192560       -4.49086429970108        2.20885145811909
H            4.01006803374389       -5.92206224196636        0.31028330646239
H            2.78893007364325       -4.91789994164881       -1.59529326717432
H            2.32242459953543       -2.50936337736316       -1.62102846655618
45
 energy: -62.978657129749 gnorm: 0.006058175716 xtb: 6.7.1 (edcfbbe)
C            1.27937828217427       -0.23782766321905        0.10164863551511
C            0.73046774617723        1.04699555134895        0.11699590142549
C           -0.63282078492795        1.28369193522763        0.05672733531816
C           -1.52340950149713        0.22724973546697        0.00032603172122
C           -1.02006870808820       -1.06106637907964        0.01776397165325
C            0.34657972402278       -1.27805159465460        0.07312532912841
B            2.90400584057382       -0.49501030719116        0.17812909779083
C            3.69406396657309        0.13384064245288       -1.11716246082889
C            4.50792421481455       -0.62954224824271       -1.95638003569982
C            5.21927547889123       -0.08356775832736       -3.01267097920205
C            5.15241154957734        1.27277058622969       -3.27340134762809
C            4.37241013350816        2.06634975045614       -2.45074431662872
C            3.67203573698507        1.50261390206189       -1.39831098364357
C            3.46821207944425        0.18938811354688        1.54828822752888
C            4.63203722370879        0.95340445258670        1.61432700476006
C            5.17644766575559        1.36529355634521        2.82183553279380
C            4.57594702693464        1.00908155617939        4.01467476653765
C            3.39596100787855        0.28341282459007        3.98322624428212
C            2.85409374739942       -0.10426718020467        2.77072557850156
C            3.21466885974880       -2.10032812675814        0.26324825344166
C            3.88286031932945       -2.70896256088893        1.32426931838522
C            4.15570633651631       -4.06781435639995        1.35090139894465
C            3.77208329212122       -4.87684252896861        0.29829142736183
C            3.10101869531560       -4.30814130633142       -0.77174423224728
C            2.83401900618132       -2.95078884472539       -0.78132136934838
H            1.38407878244243        1.90577118931052        0.18982737638730
H           -1.00713349985151        2.30185338590797        0.05517553100277
H           -2.59163660227749        0.40448396758864       -0.04091358508397
H           -1.70101504768994       -1.90478806109305       -0.01320126280843
H            0.69358147831328       -2.30107703188118        0.10744488095356
H            4.60993971440562       -1.69118730280536       -1.77733151946135
H            5.83792113805716       -0.72201191564998       -3.63504044731511
H            5.71157514595284        1.70770430544420       -4.09371663883946
H            4.31765861585841        3.13526568490398       -2.62678244123117
H            3.10947915494790        2.16293835625682       -0.75700964336824
H            5.13838720704275        1.22886149199897        0.69507791815045
H            6.08741451903685        1.95384284214010        2.83414886244444
H            5.02688615359033        1.28535618084015        4.95855641156068
H            2.91068323712583        0.00450821719541        4.91403104608090
H            1.93876339221584       -0.68235145623415        2.76332835270742
H            4.20575119141362       -2.10746328081859        2.16504757423409
H            4.67489900786320       -4.49887632592327        2.20025457504260
H            3.99706065099259       -5.93632763444362        0.30715615192159
H            2.78771978874592       -4.93102438174152       -1.60267156300444
H            2.31737703269588       -2.52582998249723       -1.63246990923564
45
 energy: -62.979102457188 gnorm: 0.005409210072 xtb: 6.7.1 (edcfbbe)
C            1.28893783797025       -0.24440548787690        0.11294269943052
C            0.74372154804583        1.04141543907731        0.14048620507997
C           -0.61782273420953        1.28069878953372        0.07240405958201
C           -1.51295252836604        0.22791721727143        0.00703921068216
C           -1.01176429760137       -1.06196853063257        0.02894480024006
C            0.35423834876783       -1.28230329956485        0.08027916668509
B            2.91371681033466       -0.50083622652361        0.17893109580837
C            3.69615474159061        0.14151497124588       -1.11582666518776
C            4.51204098238374       -0.62321049502951       -1.95202601082992
C            5.21654199704657       -0.08080796611541       -3.01377941130999
C            5.15101357108223        1.27453540878749       -3.27951094073669
C            4.37088088141134        2.06896012810340       -2.45714548558300
C            3.66576803503722        1.50804753704709       -1.40635799488250
C            3.47661582027716        0.17653920539391        1.55197813087547
C            4.64555777678046        0.93213748838440        1.62127177245464
C            5.17275478581305        1.36282276297848        2.82946397516887
C            4.55240761190104        1.03476620466276        4.02136414565992
C            3.37209482646356        0.30885493309119        3.98429880508574
C            2.84493133456377       -0.09482993244636        2.77046752762480
C            3.22349328888776       -2.10678821757664        0.24681385019388
C            3.89698032885636       -2.71531037550314        1.30466135445981
C            4.15739852373401       -4.07583349008385        1.33567019816880
C            3.76322826935744       -4.88815530143089        0.28868582517794
C            3.09669132606961       -4.31605197985698       -0.78282763711106
C            2.83382496597961       -2.95762092334393       -0.79347760303238
H            1.39839443907748        1.89641116629791        0.23310498716907
H           -0.98875505243382        2.29816632815367        0.06885149225188
H           -2.58053749841522        0.40764934268699       -0.04615581837894
H           -1.69588985152353       -1.90323747436919        0.00308168422983
H            0.69656428026563       -2.30734364565127        0.10791671363182
H            4.62070434188219       -1.68170506904276       -1.76581349962009
H            5.82881764551022       -0.72195580842694       -3.63739346892014
H            5.70774922120880        1.70655749821383       -4.10245964536510
H            4.32098376399390        3.13800630677591       -2.63547203458355
H            3.09059698371403        2.17172977649146       -0.77824123071744
H            5.16917984379184        1.18447445469563        0.70581297990661
H            6.08180448485663        1.95118680888259        2.84532003861218
H            4.98505850224505        1.33335534067013        4.96768696995099
H            2.87294697121146        0.04756719955948        4.91274668346110
H            1.92394660261393       -0.66423900573421        2.76204311560609
H            4.23448644205299       -2.11257963604736        2.13659965310224
H            4.67174833717298       -4.50728820737082        2.18589736985741
H            3.97509751509085       -5.95038225313883        0.30289030919877
H            2.78219981486960       -4.93904711068283       -1.61321607336776
H            2.31314916063716       -2.53588387155616       -1.64427129972840
45
 energy: -62.979474181618 gnorm: 0.006038430888 xtb: 6.7.1 (edcfbbe)
C            1.30317053175407       -0.25210928300408        0.12242257474082
C            0.76375505345650        1.03522163495226        0.16544063590558
C           -0.59596696443702        1.27892272750715        0.09281985306277
C           -1.49482713029953        0.22924203109339        0.01593948978198
C           -0.99791821301244       -1.06261521279095        0.03751436413152
C            0.36713776628597       -1.28748340163573        0.08530298612986
B            2.92446422045046       -0.50895685297240        0.17930230373790
C            3.69895095899948        0.14406952711011       -1.11310396345014
C            4.51787960113091       -0.61977822645638       -1.94725666311794
C            5.21504820936884       -0.07820713206504       -3.01301249412600
C            5.14459817728547        1.27619628483399       -3.28275936009975
C            4.36240092763639        2.06920699495170       -2.46073278236705
C            3.65781107974556        1.50847233263657       -1.41001085438256
C            3.48379784114536        0.16270949198134        1.55430157661478
C            4.65857098323743        0.90867823076269        1.62763093334739
C            5.16818856496077        1.36008739674774        2.83503454425025