18
 energy: -41.215850203378 gnorm: 0.076325682209 xtb: 6.7.1 (edcfbbe)
Cl          -2.08302000000000        1.09800000000000       -1.97600000000000
C           -1.02999000000000        0.20590000000000       -0.93677000000000
C           -1.37517000000000       -1.05223000000000       -0.43408000000000
O           -2.56788000000000       -1.66204000000000       -0.72194000000000
C           -3.61846000000000       -1.22960000000000        0.18121000000000
C           -3.36318000000000       -1.62479000000000        1.65110000000000
O           -3.29522000000000       -0.65309000000000        2.46034000000000
O           -3.27018000000000       -2.86527000000000        1.88597000000000
C           -0.45407000000000       -1.77875000000000        0.32572000000000
C            0.79082000000000       -1.22904000000000        0.63017000000000
C            1.11613000000000        0.03991000000000        0.15551000000000
C            0.21577000000000        0.75898000000000       -0.63035000000000
Cl           2.65586000000000        0.71929000000000        0.52364000000000
H           -3.79142000000000       -0.15230000000000        0.07911000000000
H           -4.53645000000000       -1.73151000000000       -0.14508000000000
H           -0.73035000000000       -2.76123000000000        0.70591000000000
H            1.48652000000000       -1.79234000000000        1.24480000000000
H            0.48247000000000        1.74180000000000       -1.00545000000000
18
 energy: -41.220319135719 gnorm: 0.033026023981 xtb: 6.7.1 (edcfbbe)
Cl          -2.08946069482770        1.08923573297230       -1.94473401717019
C           -1.02166385093878        0.19563904269445       -0.92659071189048
C           -1.37852918491577       -1.06153292511035       -0.43707419845560
O           -2.57768479602641       -1.64351265294913       -0.73024091273631
C           -3.62913697683515       -1.22932500053302        0.17024829140457
C           -3.35433807155433       -1.62178421165812        1.65736848965210
O           -3.28409163044319       -0.66545599814316        2.45232028754090
O           -3.23148520272333       -2.83796807971537        1.88634198513126
C           -0.45691425605384       -1.76954788593902        0.33195405705854
C            0.78332605107393       -1.23018714065581        0.63007068317707
C            1.10731710799969        0.02983043557496        0.15253834257192
C            0.21643076605205        0.74739294438952       -0.62863019038087
Cl           2.64566347426577        0.71683111978599        0.52059332453543
H           -3.78508297976280       -0.14546347897993        0.08689236767123
H           -4.52836393769336       -1.74766557696568       -0.18071350328728
H           -0.74613356199010       -2.73634416004616        0.71699536342640
H            1.48229108677935       -1.78484337137293        1.23994830821380
H            0.48003665759398        1.72639120665144       -1.00347796646246
18
 energy: -41.221443140061 gnorm: 0.012120611707 xtb: 6.7.1 (edcfbbe)
Cl          -2.09689692371100        1.08531870893291       -1.92081379054749
C           -1.01578891613019        0.19206613614006       -0.91881407107583
C           -1.38567284278268       -1.06535525180933       -0.43735188751758
O           -2.58561114728609       -1.62225092843637       -0.74457236510425
C           -3.63965798575294       -1.22849371613339        0.15661357149067
C           -3.32395813298024       -1.62130699297534        1.66131147998063
O           -3.27853917083169       -0.66769333219230        2.44372949195326
O           -3.18444226781897       -2.82514524357477        1.88560654897397
C           -0.46453989499439       -1.76362386310260        0.33992390647298
C            0.77546318557034       -1.23343543263038        0.63412088033578
C            1.10331107541893        0.02053474281619        0.15025878637262
C            0.21998799711321        0.74170204162851       -0.62966146567325
Cl           2.64480259754211        0.70916759692766        0.51670719115838
H           -3.80192556893059       -0.14334818334104        0.08943440503094
H           -4.52190036723218       -1.76415557891714       -0.20474527229539
H           -0.76942593340611       -2.71964805498154        0.73175942510899
H            1.47506208043007       -1.78106470308843        1.24534573628985
H            0.48191221578242        1.71842205473727       -1.00504257095426
18
 energy: -41.221635596151 gnorm: 0.013712427817 xtb: 6.7.1 (edcfbbe)
Cl          -2.09944174652941        1.08849829343636       -1.90850779183522
C           -1.01249787425945        0.19436207038568       -0.91434471819639
C           -1.39407945546104       -1.06230527302304       -0.43500157137733
O           -2.59221853850310       -1.60291722072558       -0.75696207928165
C           -3.65369878204899       -1.23090380964351        0.14548610498412
C           -3.32584624985062       -1.62205460260707        1.66647778653863
O           -3.25787901500896       -0.66100658569854        2.43280483519125
O           -3.10202214874437       -2.81874244920527        1.87645520717956
C           -0.47680317376185       -1.75862904358902        0.34963702551612
C            0.76571877193922       -1.23595909339199        0.64208063743604
C            1.10187434619896        0.01294203691856        0.15082737726146
C            0.22485353364278        0.73984216688427       -0.63047011565497
Cl           2.65040595497384        0.69475205460031        0.51315571271236
H           -3.83316487258071       -0.14799754281446        0.08737698525694
H           -4.52210153237980       -1.78229092788458       -0.22043716343824
H           -0.79401173043239       -2.70887613776603        0.74693882927355
H            1.46365018891494       -1.78120487967477        1.25640550365118
H            0.48944232389097        1.71418094379860       -1.00811256521738
18
 energy: -41.222019304433 gnorm: 0.005999254722 xtb: 6.7.1 (edcfbbe)
Cl          -2.09631159151653        1.09729376565384       -1.90960949197399
C           -1.01070086645253        0.19993118261150       -0.91653190135781
C           -1.39766082070660       -1.05610943874567       -0.43724074493993
O           -2.59467564404130       -1.59152038483518       -0.76709333320055
C           -3.65639966016255       -1.23606800486372        0.14334307124341
C           -3.29644422561453       -1.62121166540889        1.66466258141685
O           -3.27144061308536       -0.65637832003153        2.43264301562521
O           -3.07204175116964       -2.81735515851624        1.87176861609314
C           -0.48594034334305       -1.75576735269377        0.35207673862125
C            0.75867009030828       -1.23636054086934        0.64656084393504
C            1.10241068508313        0.00986637161344        0.15144570247395
C            0.22923414093546        0.74131457065607       -0.63211065688941
Cl           2.65689462298026        0.68240266835966        0.51113919418638
H           -3.85458900630674       -0.15672635889074        0.08773453135862
H           -4.52076592041147       -1.79936190681839       -0.21242678104000
H           -0.80955321800156       -2.70377309516507        0.75370052246585
H            1.45322003489536       -1.78289319486803        1.26462159801438
H            0.49827408660941        1.71440686281200       -1.01087350603236
18
 energy: -41.222189842292 gnorm: 0.006440390759 xtb: 6.7.1 (edcfbbe)
Cl          -2.08722369414762        1.10890025526930       -1.91819534318883
C           -1.00784572918869        0.20719101111526       -0.92198819657333
C           -1.40174919203824       -1.04630415248577       -0.44070676337157
O           -2.59898642068102       -1.57707382363906       -0.77804673481662
C           -3.65875528862982       -1.24269831354652        0.14474363336157
C           -3.27779932824330       -1.62173091963368        1.66411427664904
O           -3.27832592382660       -0.65640010694603        2.43367603369705
O           -3.03180117065779       -2.81472446421957        1.86435594551267
C           -0.49827631266021       -1.75076710235024        0.35438578066305
C            0.74849026827327       -1.23546816914388        0.65215264613221
C            1.10219081417294        0.00679196520760        0.15302704176586
C            0.23513933898020        0.74243775163760       -0.63491039603163
Cl           2.66292621357009        0.66724276763103        0.51179023226869
H           -3.87866580423003       -0.16787318344167        0.08931756305677
H           -4.51836469666472       -1.82030082335752       -0.19946426719492
H           -0.82750551243278       -2.69650736637210        0.75914628725375
H            1.43743028513404       -1.78461163041666        1.27530969149265
H            0.51130215327030        1.71358630469185       -1.01489743067636
18
 energy: -41.222398202271 gnorm: 0.006198475504 xtb: 6.7.1 (edcfbbe)
Cl          -2.07008979169653        1.12294931587755       -1.93843432608683
C           -1.00260399277349        0.21557565954960       -0.93424240347684
C           -1.40643952950320       -1.03259943273780       -0.44853446767954
O           -2.60690589654869       -1.55621615397343       -0.79292959930376
C           -3.65891169187657       -1.25064895081274        0.15109618807734
C           -3.25796489004212       -1.62402846280589        1.66380334408742
O           -3.28099215211164       -0.66315909068413        2.43874012486321
O           -2.98531944553408       -2.81198706666636        1.85393623477512
C           -0.51535641070029       -1.74341426154753        0.35501876476372
C            0.73342213135179       -1.23328620208290        0.65907844678593
C            1.10031122217020        0.00365492772508        0.15629339094586
C            0.24337029026885        0.74276518125493       -0.64037105242276
Cl           2.66598702871182        0.65031819027197        0.52027303997341
H           -3.90522548731902       -0.18157819634158        0.09561237298753
H           -4.51324211833911       -1.84560586497527       -0.17724135662344
H           -0.85112991982919       -2.68590393033390        0.76313950075905
H            1.41352612003907       -1.78645187315310        1.28963425762938
H            0.52974453373222        1.71130621143545       -1.02106246005474
18
 energy: -41.222634195822 gnorm: 0.007419806712 xtb: 6.7.1 (edcfbbe)
Cl          -2.04270626884406        1.13947422694487       -1.96999139140962
C           -0.99313524993007        0.22579577492128       -0.95257875205591
C           -1.41449390912685       -1.01333986539743       -0.46046590346125
O           -2.62164480411863       -1.52163202491050       -0.81439638853554
C           -3.66077027870958       -1.25992384102079        0.16035547213234
C           -3.23079523609526       -1.62881666226877        1.66379944238273
O           -3.28182010499941       -0.67636072531403        2.44705983768309
O           -2.91010794905416       -2.80901224292186        1.83990205248964
C           -0.54066266793902       -1.73126511978145        0.35551255652114
C            0.71048166477016       -1.23064740925537        0.66894361980009
C            1.09638569449609       -0.00175505957824        0.16149724677202
C            0.25617506691626        0.74122779233820       -0.64935321778689
Cl           2.66627273107404        0.62854498879117        0.53775615354868
H           -3.94316232141605       -0.19829401558966        0.10998412857961
H           -4.50448220454109       -1.88083154961045       -0.15008917070310
H           -0.88830698527765       -2.66757761212291        0.76815627714907
H            1.37761880438623       -1.78882988398391        1.30958587771316
H            0.55733401840906        1.70493322875979       -1.03186784081919
18
 energy: -41.222812055214 gnorm: 0.008149457415 xtb: 6.7.1 (edcfbbe)
Cl          -2.00709932353912        1.15742973709052       -2.00933289441397
C           -0.98005484265473        0.23773753425089       -0.97407282805719
C           -1.42360974874442       -0.98988978537659       -0.47383055461940
O           -2.63915057803349       -1.47945845581601       -0.83495328481850
C           -3.66245467679432       -1.27145986111526        0.17271283258699
C           -3.20615999637758       -1.63890534922414        1.66450393553179
O           -3.27910799523720       -0.70020372327514        2.46006441830728
O           -2.84507233465376       -2.80881885079426        1.82742343855332
C           -0.56756683358189       -1.71415542456581        0.35468196525588
C            0.68538203328798       -1.22589262495279        0.67934692279238
C            1.09313093029573       -0.00678349012336        0.16635753754106
C            0.27313150482353        0.73899981421866       -0.66198093996909
Cl           2.66660694256663        0.60607247573026        0.55682032270248
H           -3.98201286003246       -0.21860119736954        0.13619468668186
H           -4.49185390308174       -1.91839123500712       -0.12498622552902
H           -0.93089857957040       -2.64214023551088        0.77269577110185
H            1.33687066001693       -1.78897012902946        1.33162809535040
H            0.59209960131036        1.69512080087004       -1.04946319899803
18
 energy: -41.222960510404 gnorm: 0.006348148757 xtb: 6.7.1 (edcfbbe)
Cl          -1.98825231527448        1.16371161285602       -2.02708642728225
C           -0.97175934412339        0.24275079939000       -0.98262125548153
C           -1.42672458843498       -0.97792928484926       -0.47632846387168
O           -2.64635815923536       -1.45858822014717       -0.83444701394854
C           -3.66467015176195       -1.27598043457918        0.17995314261211
C           -3.20817356458965       -1.64774304209797        1.66709861957437
O           -3.28864754819358       -0.71721779983473        2.47047918467599
O           -2.83500305477757       -2.81341235216839        1.82734034715462
C           -0.57441492502230       -1.70373706357893        0.35339738355747
C            0.67914586802869       -1.22262396246295        0.68084164545138
C            1.09517932668224       -0.00807622288106        0.16543166545494
C            0.28354918733318        0.73696845633114       -0.67028791955933
Cl           2.66853838045950        0.59957099201338        0.56173138091876
H           -3.99600738108494       -0.22752205141091        0.15639722842020
H           -4.48413361614060       -1.93104365048442       -0.12390759862099
H           -0.94442943881383       -2.62827745109454        0.77164082707003
H            1.32426782638673       -1.78714106565333        1.33669642537387
H            0.61007349856231        1.68798074065236       -1.06251917149933
18
 energy: -41.223166650449 gnorm: 0.007060947528 xtb: 6.7.1 (edcfbbe)
Cl          -1.94747252996452        1.17844579109200       -2.06261385285829
C           -0.95098185358064        0.25495942253990       -1.00100317948935
C           -1.43375306943301       -0.94889248688833       -0.47890748710975
O           -2.66189742830977       -1.40510814922344       -0.83271033727609
C           -3.67375509453651       -1.28495589911134        0.19395807787271
C           -3.21378962740331       -1.67000249147637        1.67453284658377
O           -3.33087783220165       -0.75587079481161        2.49573254857970
O           -2.79889540818045       -2.82735168977112        1.82588207055802
C           -0.58966539396462       -1.67886194822245        0.35561171057173
C            0.66863069735612       -1.21672285291697        0.68377764197946
C            1.10436424755157       -0.01294151883502        0.15981493900202
C            0.31046644820575        0.73190548719545       -0.69140963451309
Cl           2.67850668799223        0.58327725198260        0.56701998317047
H           -4.03800338669749       -0.24633743748028        0.20379937592146
H           -4.46903794977435       -1.96113737698629       -0.12688100008688
H           -0.97667042148503       -2.59507338069741        0.77679120112406
H            1.30163387582335       -1.78488227701881        1.34586448946540
H            0.65337803860233        1.67124035062968       -1.09544939349524
18
 energy: -41.223378255610 gnorm: 0.009138239849 xtb: 6.7.1 (edcfbbe)
Cl          -1.90855381975344        1.19230455978144       -2.09505971319447
C           -0.92905228535120        0.26854666859764       -1.01733028371509
C           -1.43769925088718       -0.91740607646595       -0.47577898933563
O           -2.67255572264285       -1.35036346611410       -0.82335654632803
C           -3.68225392810033       -1.29337776821776        0.20822865669589
C           -3.23474561895547       -1.70329822518575        1.68390752466789
O           -3.37330974870485       -0.80921116066547        2.52318104357392
O           -2.81549211762393       -2.85485344400228        1.82827464751299
C           -0.59886354143549       -1.65028700225541        0.36370424239302
C            0.66693995939601       -1.20765755201717        0.68488576689343
C            1.12084489667714       -0.01522379519577        0.14819216077023
C            0.34021519938187        0.72809334182836       -0.71604184716080
Cl           2.69780797939375        0.56996103095671        0.55698917900626
H           -4.07200559519111       -0.26449071544930        0.25591513601154
H           -4.45726186161440       -1.97904329251122       -0.13884245800628
H           -1.00157046050833       -2.55754395069280        0.79213668914416
H            1.29145555134202       -1.77899373280928        1.35081955996387
H            0.69828036457777        1.65453458041847       -1.13601476889281
18
 energy: -41.223636060522 gnorm: 0.011060249102 xtb: 6.7.1 (edcfbbe)
Cl          -1.86745792596023        1.21006228125429       -2.13107957996498
C           -0.90755255332999        0.28523070735725       -1.03493566175551
C           -1.44426421519523       -0.88043103889271       -0.47141557575260
O           -2.68577096295342       -1.28551884205976       -0.82057080302805
C           -3.69222875436439       -1.30333949410140        0.22236842213263
C           -3.24503080120682       -1.73699374182603        1.69296230513019
O           -3.41718017690436       -0.86390802972256        2.54936725398985
O           -2.80164452155409       -2.88252796069680        1.82051244986675
C           -0.61692310512238       -1.61885597895255        0.37775333512117
C            0.65869167815758       -1.19755667765607        0.69019828105556
C            1.13621759147769       -0.01981739908534        0.13756915793896
C            0.37096474345086        0.72443015464862       -0.74055003829927
Cl           2.72223137075644        0.54501312186570        0.54269463305271
H           -4.11682265971389       -0.28851207602705        0.30075877059578
H           -4.44676558122472       -2.00330062339695       -0.14322643193117
H           -1.03526629822060       -2.51556010758939        0.81648660975548
H            1.27362550338892       -1.77395262095531        1.36131605767936
H            0.74735666851856        1.63722832583661       -1.17639918558675
18
 energy: -41.224126798186 gnorm: 0.010745264194 xtb: 6.7.1 (edcfbbe)
Cl          -1.82407794757253        1.22900708943054       -2.16480677021041
C           -0.88276166755472        0.30687407851058       -1.04855842869355
C           -1.45044294015853       -0.82956125007364       -0.45056948399065
O           -2.69721542311910       -1.19596141585525       -0.80220314211900
C           -3.70778955395040       -1.31065129862856        0.23668729188803
C           -3.27327954986339       -1.79023787604381        1.70664423769658
O           -3.48615495499407       -0.94735566614509        2.58202840529420
O           -2.81200375412150       -2.93413568493106        1.80260526764114
C           -0.63571170680767       -1.57347515120467        0.41139615721068
C            0.65755656052565       -1.18049203610324        0.69630705444864
C            1.16374681038805       -0.02570113626344        0.11566843759653
C            0.40978159621727        0.71933339504597       -0.77236900789859
Cl           2.77102834695914        0.50560856508078        0.49299765486228
H           -4.16877548744916       -0.31937283156244        0.34679221313922
H           -4.43941501356465       -2.01610587633646       -0.16453726996834
H           -1.06639123514369       -2.45594984239182        0.86908621094801
H            1.26766725208335       -1.76312777270003        1.36867643379038
H            0.80641866812581        1.61299471017247       -1.23203526163505
18
 energy: -41.224521026835 gnorm: 0.011003234457 xtb: 6.7.1 (edcfbbe)
Cl          -1.79505067634919        1.24096069779279       -2.18449050266777
C           -0.86423569037285        0.32323728623398       -1.05518132219794
C           -1.45089793111853       -0.78799906235519       -0.42739126691197
O           -2.70261443193455       -1.12208421543386       -0.77766107387167
C           -3.71720785772368       -1.30996290525915        0.24718672010019
C           -3.30498688950254       -1.83846203130806        1.71587826487788
O           -3.54486706478451       -1.02503774747750        2.60978978789441
O           -2.84716294429382       -2.98588065838820        1.77697606289149
C           -0.64573453723635       -1.53359473006724        0.44413497631153
C            0.66071609366870       -1.16195657410425        0.70234407543644
C            1.18840517236102       -0.03077718353008        0.09339491751297
C            0.43972967024663        0.71377373922802       -0.79979112860058
Cl           2.81849887217082        0.46589523767990        0.43447417463665
H           -4.21008162234589       -0.33815734772587        0.38437249256243
H           -4.43083548865831       -2.01763065488910       -0.18804738916794
H           -1.08085465248557       -2.40260087436809        0.92297951967425
H            1.26883002065870       -1.74831383036851        1.37568465537912
H            0.85052995769970        1.59028085434152       -1.28084296385938
18
 energy: -41.224841625669 gnorm: 0.009423213225 xtb: 6.7.1 (edcfbbe)
Cl          -1.78053272948556        1.24781219108559       -2.19078705021570
C           -0.85213918172022        0.33243918708112       -1.05864647312815
C           -1.44957428304317       -0.75886767800984       -0.40736278507298
O           -2.70716446771898       -1.06898304669462       -0.75178672411968
C           -3.72144805529117       -1.30384838226465        0.25398524865391
C           -3.32889353134158       -1.87693185015705        1.71711892009061
O           -3.57716797645009       -1.08920179258499        2.62635677356409
O           -2.88286728067218       -3.02994818093105        1.74517080434108
C           -0.65135890318362       -1.50151912085647        0.47179658961911
C            0.66316469902069       -1.14484549221950        0.70943288983718
C            1.20524466579137       -0.03675248942245        0.07441813755824
C            0.45931216851534        0.70644575992122       -0.82236629198725
Cl           2.85182452522251        0.43069517260363        0.38537291599029
H           -4.23401986820319       -0.34697324347726        0.41072600498774
H           -4.42273209169726       -2.00765921382227       -0.20684507747208
H           -1.08659480836877       -2.35835122488275        0.96993058620496
H            1.26871471571172       -1.73071449947567        1.38692609761664
H            0.87841240291394        1.56889390410833       -1.31963056646794
18
 energy: -41.225005761968 gnorm: 0.017883568709 xtb: 6.7.1 (edcfbbe)
Cl          -1.73104323532228        1.27022781035889       -2.22666771913158
C           -0.82186388056303        0.35460012927289       -1.07797817544565
C           -1.45365346737883       -0.69826296996308       -0.38645075373352
O           -2.72642330994398       -0.96027963986282       -0.72143746386787
C           -3.72969109655950       -1.30531171578274        0.27513905589002
C           -3.35516175804351       -1.93935548499294        1.71993429688364
O           -3.63915422286875       -1.19904352918834        2.66562186621565
O           -2.89956291215308       -3.09093425182842        1.69795735821139
C           -0.67291838308465       -1.44050651251134        0.50584667859761
C            0.65410436996776       -1.11735436066988        0.72273704849182
C            1.23049249592658       -0.04993044137063        0.04751941997951
C            0.50364398401635        0.69209100446460       -0.86690571498677
Cl           2.89593328205172        0.36920156196177        0.33284116105093
H           -4.29659244118418       -0.37542198305340        0.48123313749849
H           -4.39563890202980       -2.02513846532503       -0.22445100717259
H           -1.12179601648301       -2.27454556800831        1.02988905163318
H            1.24341298926715       -1.70445354665117        1.41365249479940
H            0.94809250438471        1.52610796315163       -1.39467073491358
18
 energy: -41.225450617075 gnorm: 0.009025455288 xtb: 6.7.1 (edcfbbe)
Cl          -1.74017343711276        1.26849067839976       -2.21630235973425
C           -0.82602653273926        0.35222536462257       -1.07425028888183
C           -1.45389033409315       -0.69588545268184       -0.38205111679686
O           -2.73041133836358       -0.95681047678597       -0.70718718699930
C           -3.72326601756247       -1.29879083181175        0.27594820985543
C           -3.34768704401551       -1.94367897471647        1.70438001524892
O           -3.61193462487567       -1.21232298207909        2.65717200817265
O           -2.90647637354293       -3.09685676928008        1.67088938078597
C           -0.67423051581955       -1.42996779060872        0.51094733022961
C            0.65046514764796       -1.11037472803093        0.72905432071083
C            1.22518682892920       -0.05717834950816        0.04511897218088
C            0.49868161810150        0.68307381046644       -0.87022920189342
Cl           2.88556363567018        0.35351038311664        0.32888137380022
H           -4.28368670977010       -0.37197083633564        0.48478479331672
H           -4.38640152985838       -2.01236003128121       -0.22521905629619
H           -1.12150859024606       -2.25810720375257        1.03807608335114
H            1.23404466999688       -1.69050926840616        1.42783578704498
H            0.94393114765337        1.50920345867491       -1.40403906409539
18
 energy: -41.225686802672 gnorm: 0.010793222911 xtb: 6.7.1 (edcfbbe)
Cl          -1.72132479085060        1.27927046218600       -2.22785909408423
C           -0.81474476844152        0.36492980055611       -1.07798382995064
C           -1.46229728753625       -0.66170096102808       -0.36411035694145
O           -2.74145491489043       -0.89945542528543       -0.68432248648407
C           -3.73381940254777       -1.30100837202568        0.28273618009208
C           -3.35792660740695       -1.98158112287709        1.69872962151039
O           -3.61420897009834       -1.27440560403353        2.66495641403514
O           -2.91338508327650       -3.13292479500027        1.64081025794116
C           -0.69040150235041       -1.39169954761635        0.54080020288263
C            0.64521114121470       -1.09438614539692        0.74180580371096
C            1.23950949892196       -0.06590669579409        0.03038320612817
C            0.51926022582413        0.67297799280321       -0.89157323139440
Cl           2.91115977561938        0.31794482383365        0.29123686694032
H           -4.30468534118866       -0.39113514792107        0.51590450544572
H           -4.37921025350161       -2.00957463153541       -0.24881162806189
H           -1.14871041423104       -2.20718574643400        1.08021641215741
H            1.22274160496286       -1.67336949325079        1.44483666976237
H            0.97646708977666        1.48090060882168       -1.44394551368958
18
 energy: -41.225843511296 gnorm: 0.011451504174 xtb: 6.7.1 (edcfbbe)
Cl          -1.69802095935020        1.28686774977114       -2.24662454925398
C           -0.80252558609289        0.37837470517699       -1.08225086590239
C           -1.46943584611206       -0.62030397569881       -0.34319057923902
O           -2.75362037420425       -0.82712653751712       -0.64936148638454
C           -3.74148707779805       -1.29699177587728        0.29388500867101
C           -3.36956117392512       -2.02605644093259        1.68926798638519
O           -3.63902417742829       -1.35707752701713        2.68815322050010
O           -2.91746348242552       -3.17589844976605        1.59056248471054
C           -0.70490166060363       -1.34440237382344        0.57413495036782
C            0.64045406333020       -1.07386184946035        0.75626792753238
C            1.25338016978103       -0.07647249152053        0.01618132911676
C            0.54052358126533        0.65749510675244       -0.91588673736190
Cl           2.94110313920820        0.26879004410685        0.24040033190259
H           -4.33138190890341       -0.41086632891528        0.55687228776398
H           -4.36380723979590       -1.99718275028028       -0.27615441709471
H           -1.17447999607346       -2.14273705697283        1.12965749041210
H            1.20966248184538       -1.64966893737410        1.46730985595270
H            1.01276604728218        1.43880888935056       -1.49541423807854
18
 energy: -41.225997572724 gnorm: 0.006508657946 xtb: 6.7.1 (edcfbbe)
Cl          -1.69137439859273        1.28891052633452       -2.25290893773801
C           -0.80109586551927        0.38292116386991       -1.08153620501299
C           -1.47300176082993       -0.60574054342995       -0.33739645481679
O           -2.75818185594437       -0.80020630326301       -0.63785408502612
C           -3.74531286070612       -1.29783514881432        0.29578369707444