      -----------------------------------------------------------      
     |                   =====================                   |     
     |                           x T B                           |     
     |                   =====================                   |     
     |                         S. Grimme                         |     
     |          Mulliken Center for Theoretical Chemistry        |     
     |                    University of Bonn                     |     
      -----------------------------------------------------------      

   * xtb version 6.7.1 (edcfbbe) compiled by 'conda@3ef47c1a292c' on 2024-11-25

   xtb is free software: you can redistribute it and/or modify it under
   the terms of the GNU Lesser General Public License as published by
   the Free Software Foundation, either version 3 of the License, or
   (at your option) any later version.
   
   xtb is distributed in the hope that it will be useful,
   but WITHOUT ANY WARRANTY; without even the implied warranty of
   MERCHANTABILITY or FITNESS FOR A PARTICULAR PURPOSE.  See the
   GNU Lesser General Public License for more details.
   
   Cite this work as:
   * C. Bannwarth, E. Caldeweyher, S. Ehlert, A. Hansen, P. Pracht,
     J. Seibert, S. Spicher, S. Grimme, WIREs Comput. Mol. Sci., 2020, 11,
     e01493. DOI: 10.1002/wcms.1493
   
   for GFN2-xTB:
   * C. Bannwarth, S. Ehlert and S. Grimme., J. Chem. Theory Comput., 2019,
     15, 1652-1671. DOI: 10.1021/acs.jctc.8b01176
   for GFN1-xTB:
   * S. Grimme, C. Bannwarth, P. Shushkov, J. Chem. Theory Comput., 2017,
     13, 1989-2009. DOI: 10.1021/acs.jctc.7b00118
   for GFN0-xTB:
   * P. Pracht, E. Caldeweyher, S. Ehlert, S. Grimme, ChemRxiv, 2019, preprint.
     DOI: 10.26434/chemrxiv.8326202.v1
   for GFN-FF:
   * S. Spicher and S. Grimme, Angew. Chem. Int. Ed., 2020, 59, 15665-15673.
     DOI: 10.1002/anie.202004239
   
   for ALPB and GBSA implicit solvation:
   * S. Ehlert, M. Stahn, S. Spicher, S. Grimme, J. Chem. Theory Comput.,
     2021, 17, 4250-4261. DOI: 10.1021/acs.jctc.1c00471
   
   for ddCOSMO and CPCM-X implicit solvation:
   * M. Stahn, S. Ehlert, S. Grimme, J. Phys. Chem. A,
     2023, XX, XXXX-XXXX. DOI: 10.1021/acs.jpca.3c04382
   
   for DFT-D4:
   * E. Caldeweyher, C. Bannwarth and S. Grimme, J. Chem. Phys., 2017,
     147, 034112. DOI: 10.1063/1.4993215
   * E. Caldeweyher, S. Ehlert, A. Hansen, H. Neugebauer, S. Spicher,
     C. Bannwarth and S. Grimme, J. Chem. Phys., 2019, 150, 154122.
     DOI: 10.1063/1.5090222
   * E. Caldeweyher, J.-M. Mewes, S. Ehlert and S. Grimme, Phys. Chem. Chem. Phys.
     2020, 22, 8499-8512. DOI: 10.1039/D0CP00502A
   
   for sTDA-xTB:
   * S. Grimme and C. Bannwarth, J. Chem. Phys., 2016, 145, 054103.
     DOI: 10.1063/1.4959605
   
   in the mass-spec context:
   * V. Asgeirsson, C. Bauer and S. Grimme, Chem. Sci., 2017, 8, 4879.
     DOI: 10.1039/c7sc00601b
   * J. Koopman and S. Grimme, ACS Omega 2019, 4, 12, 15120-15133.
     DOI: 10.1021/acsomega.9b02011
   
   for metadynamics refer to:
   * S. Grimme, J. Chem. Theory Comput., 2019, 155, 2847-2862
     DOI: 10.1021/acs.jctc.9b00143
   
   for SPH calculations refer to:
   * S. Spicher and S. Grimme, J. Chem. Theory Comput., 2021, 17, 1701-1714
     DOI: 10.1021/acs.jctc.0c01306
   
   for ONIOM refer to:
   * C. Plett, A. Katbashev, S. Ehlert, S. Grimme, M. Bursch,
     Phys. Chem. Chem. Phys., 2023, 25, 17860-17868. DOI: 10.1039/D3CP02178E
   
   for DIPRO refer to:
   * J. Kohn, N. Gildemeister, S. Grimme, D. Fazzi, A. Hansen,
     J. Chem. Phys., 2023, just accepted.
   
   for PTB refer to:
   * S. Grimme, M. Mueller, A. Hansen, J. Chem. Phys., 2023, 158, 124111.
     DOI: 10.1063/5.0137838
   
   with help from (in alphabetical order)
   P. Atkinson, C. Bannwarth, F. Bohle, G. Brandenburg, E. Caldeweyher
   M. Checinski, S. Dohm, S. Ehlert, S. Ehrlich, I. Gerasimov, C. Hölzer
   A. Katbashev, J. Kohn, J. Koopman, C. Lavigne, S. Lehtola, F. März, M. Müller,
   F. Musil, H. Neugebauer, J. Pisarek, C. Plett, P. Pracht, F. Pultar,
   J. Seibert, P. Shushkov, S. Spicher, M. Stahn, M. Steiner, T. Strunk,
   J. Stückrath, T. Rose, and J. Unsleber
   
 * started run on 2024/12/20 at 01:52:21.196     
   ID    Z sym.   atoms
    1   17 Cl     1, 13
    2    6 C      2, 3, 5, 6, 9-12
    3    8 O      4, 7, 8
    4    1 H      14-18

           -------------------------------------------------
          |                Calculation Setup                |
           -------------------------------------------------

          program call               : xtb A014.xyz --opt --namespace A014 --charge -1
          calculation namespace      : A014
          coordinate file            : A014.xyz
          omp threads                :                     8


           -------------------------------------------------
          |                 G F N 2 - x T B                 |
           -------------------------------------------------

        Reference                      10.1021/acs.jctc.8b01176
      * Hamiltonian:
        H0-scaling (s, p, d)           1.850000    2.230000    2.230000
        zeta-weighting                 0.500000
      * Dispersion:
        s8                             2.700000
        a1                             0.520000
        a2                             5.000000
        s9                             5.000000
      * Repulsion:
        kExp                           1.500000    1.000000
        rExp                           1.000000
      * Coulomb:
        alpha                          2.000000
        third order                    shell-resolved
        anisotropic                    true
        a3                             3.000000
        a5                             4.000000
        cn-shift                       1.200000
        cn-exp                         4.000000
        max-rad                        5.000000


          ...................................................
          :                      SETUP                      :
          :.................................................:
          :  # basis functions                  69          :
          :  # atomic orbitals                  67          :
          :  # shells                           33          :
          :  # electrons                        70          :
          :  max. iterations                   250          :
          :  Hamiltonian                  GFN2-xTB          :
          :  restarted?                      false          :
          :  GBSA solvation                  false          :
          :  PC potential                    false          :
          :  electronic temp.          300.0000000     K    :
          :  accuracy                    1.0000000          :
          :  -> integral cutoff          0.2500000E+02      :
          :  -> integral neglect         0.1000000E-07      :
          :  -> SCF convergence          0.1000000E-05 Eh   :
          :  -> wf. convergence          0.1000000E-03 e    :
          :  Broyden damping             0.4000000          :
          :  net charge                         -1          :
          :  unpaired electrons                  0          :
          ...................................................

 iter      E             dE          RMSdq      gap      omega  full diag
   1    -41.4750533 -0.414751E+02  0.560E+00    4.15       0.0  T
   2    -41.5684167 -0.933634E-01  0.288E+00    2.20       1.0  T
   3    -41.5687779 -0.361285E-03  0.150E+00    1.42       1.0  T
   4    -41.5771682 -0.839027E-02  0.510E-01    0.93       1.0  T
   5    -41.5794205 -0.225226E-02  0.184E-01    0.96       1.0  T
   6    -41.5795569 -0.136478E-03  0.108E-01    1.03       1.0  T
   7    -41.5796108 -0.538862E-04  0.532E-02    1.08       1.0  T
   8    -41.5796192 -0.842085E-05  0.392E-02    1.08       1.0  T
   9    -41.5796302 -0.109044E-04  0.190E-02    1.08       1.2  T
  10    -41.5796324 -0.228374E-05  0.100E-02    1.07       2.4  T
  11    -41.5796330 -0.558151E-06  0.353E-03    1.07       6.7  T
  12    -41.5796331 -0.735130E-07  0.242E-03    1.07       9.7  T
  13    -41.5796331 -0.377350E-07  0.167E-03    1.07      14.1  T
  14    -41.5796331 -0.190331E-07  0.916E-04    1.07      25.7  T
  15    -41.5796331 -0.586367E-08  0.418E-04    1.07      56.4  T

   *** convergence criteria satisfied after 15 iterations ***

         #    Occupation            Energy/Eh            Energy/eV
      -------------------------------------------------------------
         1        2.0000           -0.9774043             -26.5965
       ...           ...                  ...                  ...
        29        2.0000           -0.3158938              -8.5959
        30        2.0000           -0.3071469              -8.3579
        31        2.0000           -0.2985006              -8.1226
        32        2.0000           -0.2914905              -7.9319
        33        2.0000           -0.2184215              -5.9436
        34        2.0000           -0.2050819              -5.5806
        35        2.0000           -0.1922626              -5.2317 (HOMO)
        36                         -0.1527821              -4.1574 (LUMO)
        37                         -0.1466958              -3.9918
        38                         -0.0701595              -1.9091
        39                         -0.0437325              -1.1900
        40                         -0.0314593              -0.8561
       ...                                ...                  ...
        67                          0.7667893              20.8654
      -------------------------------------------------------------
                  HL-Gap            0.0394805 Eh            1.0743 eV
             Fermi-level           -0.1725232 Eh           -4.6946 eV

 SCC (total)                   0 d,  0 h,  0 min,  0.017 sec
 SCC setup                      ...        0 min,  0.000 sec (  0.633%)
 Dispersion                     ...        0 min,  0.000 sec (  0.730%)
 classical contributions        ...        0 min,  0.000 sec (  0.280%)
 integral evaluation            ...        0 min,  0.002 sec ( 13.248%)
 iterations                     ...        0 min,  0.012 sec ( 70.326%)
 molecular gradient             ...        0 min,  0.002 sec ( 14.221%)
 printout                       ...        0 min,  0.000 sec (  0.466%)

         :::::::::::::::::::::::::::::::::::::::::::::::::::::
         ::                     SUMMARY                     ::
         :::::::::::::::::::::::::::::::::::::::::::::::::::::
         :: total energy             -41.215850202134 Eh    ::
         :: gradient norm              0.076325471728 Eh/a0 ::
         :: HOMO-LUMO gap              1.074318227126 eV    ::
         ::.................................................::
         :: SCC energy               -41.579507550064 Eh    ::
         :: -> isotropic ES            0.207461391894 Eh    ::
         :: -> anisotropic ES          0.000971709697 Eh    ::
         :: -> anisotropic XC          0.002506930751 Eh    ::
         :: -> dispersion             -0.020763134690 Eh    ::
         :: repulsion energy           0.363657347931 Eh    ::
         :: add. restraining           0.000000000000 Eh    ::
         :: total charge              -1.000000000003 e     ::
         :::::::::::::::::::::::::::::::::::::::::::::::::::::

      ----------------------------------------------------------- 
     |                   =====================                   |
     |                        A N C O P T                        |
     |                   =====================                   |
     |               Approximate Normal Coordinate               |
     |                Rational Function Optimizer                |
      ----------------------------------------------------------- 
      ----------------------------------------------------------- 
     |                   =====================                   |
     |                        A N C O P T                        |
     |                   =====================                   |
     |               Approximate Normal Coordinate               |
     |                Rational Function Optimizer                |
      ----------------------------------------------------------- 

          ...................................................
          :                      SETUP                      :
          :.................................................:
          :   optimization level            normal          :
          :   max. optcycles                   200          :
          :   ANC micro-cycles                  20          :
          :   degrees of freedom                48          :
          :.................................................:
          :   RF solver                   davidson          :
          :   write xtbopt.log                true          :
          :   linear?                        false          :
          :   energy convergence         0.5000000E-05 Eh   :
          :   grad. convergence          0.1000000E-02 Eh/α :
          :   maxmium RF displ.          1.0000000          :
          :   Hlow (freq-cutoff)         0.1000000E-01      :
          :   Hmax (freq-cutoff)         5.0000000          :
          :   S6 in model hess.         20.0000000          :
          ...................................................

generating ANC from exact Hessian ...
Using Lindh-Hessian (1995)
 Shifting diagonal of input Hessian by    8.6607475164683454E-003
 Lowest  eigenvalues of input Hessian
    0.000000    0.000000    0.000000    0.000000    0.000000    0.000000
    0.010000    0.010788    0.012762    0.016524    0.020058    0.024756
    0.025372    0.028028    0.039788    0.053215    0.057984    0.065628
 Highest eigenvalues
    1.618210    1.738408    1.831825    1.964413    2.037981    2.253265


........................................................................
.............................. CYCLE    1 ..............................
........................................................................

 iter      E             dE          RMSdq      gap      omega  full diag
   1    -41.5796331 -0.415796E+02  0.248E-04    1.07       0.0  T
   2    -41.5796331 -0.236284E-09  0.195E-04    1.07     120.7  T
   3    -41.5796331 -0.209702E-09  0.150E-04    1.07     157.4  T
     SCC iter.                  ...        0 min,  0.002 sec
     gradient                   ...        0 min,  0.002 sec
 * total energy  :   -41.2158502 Eh     change       -0.1244025E-08 Eh
   gradient norm :     0.0763257 Eh/α   predicted     0.0000000E+00 (-100.00%)
   displ. norm   :     0.1757318 α      lambda       -0.6578064E-02
   maximum displ.:     0.0640846 α      in ANC's #6, #3, #24, ...

........................................................................
.............................. CYCLE    2 ..............................
........................................................................

 iter      E             dE          RMSdq      gap      omega  full diag
   1    -41.6032995 -0.416033E+02  0.225E-01    1.09       0.0  T
   2    -41.6034600 -0.160490E-03  0.135E-01    1.10       1.0  T
   3    -41.6034768 -0.167587E-04  0.695E-02    1.12       1.0  T
   4    -41.6034881 -0.113256E-04  0.137E-02    1.13       1.7  T
   5    -41.6034886 -0.465521E-06  0.978E-03    1.13       2.4  T
   6    -41.6034890 -0.410047E-06  0.674E-03    1.13       3.5  T
   7    -41.6034892 -0.205493E-06  0.497E-03    1.13       4.7  T
   8    -41.6034894 -0.226158E-06  0.165E-03    1.13      14.3  T
   9    -41.6034894 -0.236565E-07  0.947E-04    1.13      24.9  T
  10    -41.6034894 -0.429440E-08  0.376E-04    1.13      62.7  T
     SCC iter.                  ...        0 min,  0.007 sec
     gradient                   ...        0 min,  0.003 sec
 * total energy  :   -41.2203191 Eh     change       -0.4468932E-02 Eh
   gradient norm :     0.0330260 Eh/α   predicted    -0.3390601E-02 ( -24.13%)
   displ. norm   :     0.1703307 α      lambda       -0.1959834E-02
   maximum displ.:     0.1116432 α      in ANC's #3, #6, #13, ...

........................................................................
.............................. CYCLE    3 ..............................
........................................................................

 iter      E             dE          RMSdq      gap      omega  full diag
   1    -41.6133026 -0.416133E+02  0.164E-01    1.14       0.0  T
   2    -41.6133891 -0.865716E-04  0.964E-02    1.15       1.0  T
   3    -41.6133962 -0.704041E-05  0.495E-02    1.17       1.0  T
   4    -41.6134015 -0.529409E-05  0.124E-02    1.18       1.9  T
   5    -41.6134024 -0.949113E-06  0.842E-03    1.18       2.8  T
   6    -41.6134028 -0.362638E-06  0.539E-03    1.17       4.4  T
   7    -41.6134029 -0.134475E-06  0.406E-03    1.17       5.8  T
   8    -41.6134031 -0.147040E-06  0.123E-03    1.17      19.1  T
   9    -41.6134031 -0.129898E-07  0.724E-04    1.17      32.6  T
  10    -41.6134031 -0.251062E-08  0.409E-04    1.17      57.7  T
     SCC iter.                  ...        0 min,  0.007 sec
     gradient                   ...        0 min,  0.002 sec
 * total energy  :   -41.2214431 Eh     change       -0.1124004E-02 Eh
   gradient norm :     0.0121205 Eh/α   predicted    -0.1008348E-02 ( -10.29%)
   displ. norm   :     0.2101369 α      lambda       -0.8392802E-03
   maximum displ.:     0.1685828 α      in ANC's #3, #6, #2, ...

........................................................................
.............................. CYCLE    4 ..............................
........................................................................

 iter      E             dE          RMSdq      gap      omega  full diag
   1    -41.6133558 -0.416134E+02  0.154E-01    1.23       0.0  T
   2    -41.6133968 -0.410171E-04  0.906E-02    1.23       1.0  T
   3    -41.6133907  0.612673E-05  0.410E-02    1.24       1.0  T
   4    -41.6134020 -0.113190E-04  0.127E-02    1.25       1.9  T
   5    -41.6134047 -0.266394E-05  0.577E-03    1.25       4.1  T
   6    -41.6134048 -0.120697E-06  0.370E-03    1.24       6.4  T
   7    -41.6134049 -0.591721E-07  0.278E-03    1.24       8.5  T
   8    -41.6134049 -0.590956E-07  0.141E-03    1.24      16.7  T
   9    -41.6134050 -0.176528E-07  0.698E-04    1.24      33.8  T
  10    -41.6134050 -0.255348E-08  0.341E-04    1.24      69.1  T
     SCC iter.                  ...        0 min,  0.007 sec
     gradient                   ...        0 min,  0.002 sec
 * total energy  :   -41.2216356 Eh     change       -0.1924561E-03 Eh
   gradient norm :     0.0137122 Eh/α   predicted    -0.4381718E-03 ( 127.67%)
   displ. norm   :     0.1243278 α      lambda       -0.6099605E-03
   maximum displ.:     0.1097052 α      in ANC's #3, #10, #2, ...

........................................................................
.............................. CYCLE    5 ..............................
........................................................................

 iter      E             dE          RMSdq      gap      omega  full diag
   1    -41.6116454 -0.416116E+02  0.832E-02    1.24       0.0  T
   2    -41.6116513 -0.588737E-05  0.495E-02    1.24       1.0  T
   3    -41.6116505  0.775252E-06  0.143E-02    1.25       1.6  T
   4    -41.6116518 -0.128127E-05  0.477E-03    1.25       4.9  T
   5    -41.6116521 -0.304307E-06  0.229E-03    1.25      10.3  T
   6    -41.6116521 -0.183685E-07  0.131E-03    1.25      17.9  T
   7    -41.6116521 -0.623014E-08  0.895E-04    1.25      26.3  T
   8    -41.6116521 -0.452182E-08  0.575E-04    1.25      41.0  T
     SCC iter.                  ...        0 min,  0.005 sec
     gradient                   ...        0 min,  0.002 sec
 * total energy  :   -41.2220193 Eh     change       -0.3837083E-03 Eh
   gradient norm :     0.0059991 Eh/α   predicted    -0.3096948E-03 ( -19.29%)
   displ. norm   :     0.1451578 α      lambda       -0.2098619E-03
   maximum displ.:     0.1330346 α      in ANC's #3, #2, #4, ...

........................................................................
.............................. CYCLE    6 ..............................
........................................................................

 iter      E             dE          RMSdq      gap      omega  full diag
   1    -41.6102373 -0.416102E+02  0.725E-02    1.25       0.0  T
   2    -41.6102395 -0.225356E-05  0.433E-02    1.26       1.0  T
   3    -41.6102357  0.382322E-05  0.163E-02    1.26       1.4  T
   4    -41.6102406 -0.494362E-05  0.317E-03    1.26       7.4  T
   5    -41.6102407 -0.499228E-07  0.193E-03    1.26      12.2  T
   6    -41.6102407 -0.112529E-07  0.120E-03    1.26      19.6  T
   7    -41.6102407 -0.570951E-08  0.782E-04    1.26      30.1  T
   8    -41.6102407 -0.337687E-08  0.502E-04    1.26      46.9  T
     SCC iter.                  ...        0 min,  0.005 sec
     gradient                   ...        0 min,  0.002 sec
 * total energy  :   -41.2221898 Eh     change       -0.1705379E-03 Eh
   gradient norm :     0.0064400 Eh/α   predicted    -0.1071439E-03 ( -37.17%)
   displ. norm   :     0.1894903 α      lambda       -0.2532238E-03
   maximum displ.:     0.1567711 α      in ANC's #3, #2, #4, ...

........................................................................
.............................. CYCLE    7 ..............................
........................................................................

 iter      E             dE          RMSdq      gap      omega  full diag
   1    -41.6096396 -0.416096E+02  0.918E-02    1.27       0.0  T
   2    -41.6096433 -0.368745E-05  0.553E-02    1.27       1.0  T
   3    -41.6096357  0.760335E-05  0.242E-02    1.27       1.0  T
   4    -41.6096456 -0.996563E-05  0.380E-03    1.27       6.2  T
   5    -41.6096457 -0.462894E-07  0.247E-03    1.27       9.6  T
   6    -41.6096457 -0.256735E-07  0.159E-03    1.27      14.8  T
   7    -41.6096457 -0.105186E-07  0.963E-04    1.27      24.5  T
   8    -41.6096457 -0.477697E-08  0.671E-04    1.27      35.1  T
     SCC iter.                  ...        0 min,  0.005 sec
     gradient                   ...        0 min,  0.002 sec
 * total energy  :   -41.2223982 Eh     change       -0.2083600E-03 Eh
   gradient norm :     0.0061982 Eh/α   predicted    -0.1311590E-03 ( -37.05%)
   displ. norm   :     0.2859464 α      lambda       -0.3100485E-03
   maximum displ.:     0.2302530 α      in ANC's #3, #2, #4, ...

........................................................................
.............................. CYCLE    8 ..............................
........................................................................

 iter      E             dE          RMSdq      gap      omega  full diag
   1    -41.6087466 -0.416087E+02  0.136E-01    1.31       0.0  T
   2    -41.6087562 -0.964803E-05  0.806E-02    1.32       1.0  T
   3    -41.6087431  0.131107E-04  0.331E-02    1.33       1.0  T
   4    -41.6087604 -0.173486E-04  0.611E-03    1.33       3.9  T
   5    -41.6087607 -0.292401E-06  0.348E-03    1.33       6.8  T
   6    -41.6087608 -0.218633E-07  0.201E-03    1.33      11.7  T
   7    -41.6087608 -0.215262E-07  0.130E-03    1.33      18.1  T
   8    -41.6087608 -0.809072E-08  0.787E-04    1.33      30.0  T
   9    -41.6087608 -0.220932E-08  0.476E-04    1.33      49.6  T
     SCC iter.                  ...        0 min,  0.006 sec
     gradient                   ...        0 min,  0.002 sec
 * total energy  :   -41.2226342 Eh     change       -0.2359936E-03 Eh
   gradient norm :     0.0074190 Eh/α   predicted    -0.1677018E-03 ( -28.94%)
   displ. norm   :     0.3137791 α      lambda       -0.2886374E-03
   maximum displ.:     0.2377521 α      in ANC's #3, #2, #4, ...

........................................................................
.............................. CYCLE    9 ..............................
........................................................................

 iter      E             dE          RMSdq      gap      omega  full diag
   1    -41.6093105 -0.416093E+02  0.147E-01    1.37       0.0  T
   2    -41.6093191 -0.852565E-05  0.883E-02    1.39       1.0  T
   3    -41.6093024  0.166935E-04  0.325E-02    1.40       1.0  T
   4    -41.6093233 -0.209501E-04  0.595E-03    1.40       4.0  T
   5    -41.6093235 -0.208497E-06  0.354E-03    1.40       6.7  T
   6    -41.6093236 -0.338298E-07  0.198E-03    1.40      11.9  T
   7    -41.6093236 -0.164766E-07  0.131E-03    1.40      17.9  T
   8    -41.6093236 -0.749626E-08  0.810E-04    1.40      29.1  T
   9    -41.6093236 -0.345442E-08  0.478E-04    1.40      49.3  T
     SCC iter.                  ...        0 min,  0.006 sec
     gradient                   ...        0 min,  0.002 sec
 * total energy  :   -41.2228121 Eh     change       -0.1778594E-03 Eh
   gradient norm :     0.0081481 Eh/α   predicted    -0.1585301E-03 ( -10.87%)
   displ. norm   :     0.1306827 α      lambda       -0.1863062E-03
   maximum displ.:     0.0755772 α      in ANC's #3, #1, #4, ...

........................................................................
.............................. CYCLE   10 ..............................
........................................................................

 iter      E             dE          RMSdq      gap      omega  full diag
   1    -41.6116557 -0.416117E+02  0.705E-02    1.41       0.0  T
   2    -41.6116573 -0.160526E-05  0.418E-02    1.42       1.0  T
   3    -41.6116559  0.137640E-05  0.108E-02    1.42       2.2  T
   4    -41.6116577 -0.175066E-05  0.271E-03    1.42       8.7  T
   5    -41.6116577 -0.629633E-07  0.136E-03    1.42      17.3  T
   6    -41.6116577 -0.455783E-08  0.763E-04    1.42      30.9  T
   7    -41.6116577 -0.196562E-08  0.471E-04    1.42      50.0  T
     SCC iter.                  ...        0 min,  0.005 sec
     gradient                   ...        0 min,  0.002 sec
 * total energy  :   -41.2229605 Eh     change       -0.1484552E-03 Eh
   gradient norm :     0.0063462 Eh/α   predicted    -0.9474262E-04 ( -36.18%)
   displ. norm   :     0.3200143 α      lambda       -0.3185406E-03
   maximum displ.:     0.2051162 α      in ANC's #3, #1, #4, ...

........................................................................
.............................. CYCLE   11 ..............................
........................................................................

 iter      E             dE          RMSdq      gap      omega  full diag
   1    -41.6117129 -0.416117E+02  0.176E-01    1.46       0.0  T
   2    -41.6117291 -0.162088E-04  0.104E-01    1.48       1.0  T
   3    -41.6117203  0.874861E-05  0.346E-02    1.48       1.0  T
   4    -41.6117325 -0.121696E-04  0.754E-03    1.49       3.1  T
   5    -41.6117329 -0.448907E-06  0.364E-03    1.49       6.5  T
   6    -41.6117330 -0.332246E-07  0.212E-03    1.49      11.1  T
   7    -41.6117330 -0.145436E-07  0.116E-03    1.49      20.3  T
   8    -41.6117330 -0.523931E-08  0.796E-04    1.49      29.6  T
   9    -41.6117330 -0.302803E-08  0.518E-04    1.49      45.5  T
     SCC iter.                  ...        0 min,  0.006 sec
     gradient                   ...        0 min,  0.002 sec
 * total energy  :   -41.2231667 Eh     change       -0.2061400E-03 Eh
   gradient norm :     0.0070579 Eh/α   predicted    -0.1755860E-03 ( -14.82%)
   displ. norm   :     0.3333572 α      lambda       -0.3253061E-03
   maximum displ.:     0.2389807 α      in ANC's #1, #3, #4, ...

........................................................................
.............................. CYCLE   12 ..............................
........................................................................

 iter      E             dE          RMSdq      gap      omega  full diag
   1    -41.6133472 -0.416133E+02  0.175E-01    1.48       0.0  T
   2    -41.6133648 -0.175631E-04  0.104E-01    1.50       1.0  T
   3    -41.6133516  0.131596E-04  0.419E-02    1.50       1.0  T
   4    -41.6133690 -0.174248E-04  0.738E-03    1.51       3.2  T
   5    -41.6133695 -0.484060E-06  0.314E-03    1.51       7.5  T
   6    -41.6133695 -0.153340E-07  0.197E-03    1.51      12.0  T
   7    -41.6133695 -0.161818E-07  0.110E-03    1.51      21.4  T
   8    -41.6133695 -0.506626E-08  0.749E-04    1.51      31.5  T
   9    -41.6133695 -0.259602E-08  0.486E-04    1.51      48.5  T
     SCC iter.                  ...        0 min,  0.006 sec
     gradient                   ...        0 min,  0.002 sec
 * total energy  :   -41.2233783 Eh     change       -0.2116052E-03 Eh
   gradient norm :     0.0091354 Eh/α   predicted    -0.1807300E-03 ( -14.59%)
   displ. norm   :     0.3643353 α      lambda       -0.2901879E-03
   maximum displ.:     0.2410286 α      in ANC's #1, #3, #4, ...

........................................................................
.............................. CYCLE   13 ..............................
........................................................................

 iter      E             dE          RMSdq      gap      omega  full diag
   1    -41.6107875 -0.416108E+02  0.185E-01    1.53       0.0  T
   2    -41.6108062 -0.187925E-04  0.110E-01    1.57       1.0  T
   3    -41.6107871  0.191180E-04  0.485E-02    1.58       1.0  T
   4    -41.6108128 -0.256262E-04  0.759E-03    1.59       3.1  T
   5    -41.6108131 -0.357018E-06  0.377E-03    1.59       6.3  T
   6    -41.6108131 -0.414656E-08  0.202E-03    1.59      11.7  T
   7    -41.6108131 -0.320502E-07  0.125E-03    1.59      18.9  T
   8    -41.6108132 -0.659755E-08  0.794E-04    1.59      29.7  T
   9    -41.6108132 -0.329988E-08  0.504E-04    1.59      46.8  T
     SCC iter.                  ...        0 min,  0.006 sec
     gradient                   ...        0 min,  0.002 sec
 * total energy  :   -41.2236361 Eh     change       -0.2578049E-03 Eh
   gradient norm :     0.0110571 Eh/α   predicted    -0.1643613E-03 ( -36.25%)
   displ. norm   :     0.5056580 α      lambda       -0.6380240E-03
   maximum displ.:     0.3734000 α      in ANC's #1, #3, #2, ...

........................................................................
.............................. CYCLE   14 ..............................
........................................................................

 iter      E             dE          RMSdq      gap      omega  full diag
   1    -41.6080892 -0.416081E+02  0.257E-01    1.57       0.0  T
   2    -41.6081539 -0.647282E-04  0.152E-01    1.63       1.0  T
   3    -41.6081172  0.367882E-04  0.803E-02    1.64       1.0  T
   4    -41.6081773 -0.601072E-04  0.134E-02    1.66       1.8  T
   5    -41.6081789 -0.159478E-05  0.591E-03    1.66       4.0  T
   6    -41.6081789 -0.353439E-07  0.374E-03    1.66       6.3  T
   7    -41.6081790 -0.883952E-07  0.231E-03    1.66      10.2  T
   8    -41.6081790 -0.237637E-07  0.163E-03    1.66      14.5  T
   9    -41.6081790 -0.168062E-07  0.982E-04    1.66      24.0  T
  10    -41.6081790 -0.710583E-08  0.457E-04    1.66      51.6  T
     SCC iter.                  ...        0 min,  0.007 sec
     gradient                   ...        0 min,  0.002 sec
 * total energy  :   -41.2241268 Eh     change       -0.4907377E-03 Eh
   gradient norm :     0.0107411 Eh/α   predicted    -0.4005732E-03 ( -18.37%)
   displ. norm   :     0.4520042 α      lambda       -0.5293799E-03
   maximum displ.:     0.3536471 α      in ANC's #1, #2, #3, ...

........................................................................
.............................. CYCLE   15 ..............................
........................................................................

 iter      E             dE          RMSdq      gap      omega  full diag
   1    -41.6072377 -0.416072E+02  0.227E-01    1.63       0.0  T
   2    -41.6072803 -0.425945E-04  0.134E-01    1.67       1.0  T
   3    -41.6072458  0.344923E-04  0.705E-02    1.67       1.0  T
   4    -41.6072985 -0.526915E-04  0.106E-02    1.69       2.2  T
   5    -41.6072995 -0.997501E-06  0.525E-03    1.68       4.5  T
   6    -41.6072996 -0.531840E-07  0.368E-03    1.68       6.4  T
   7    -41.6072996 -0.737644E-07  0.241E-03    1.68       9.8  T
   8    -41.6072997 -0.316763E-07  0.161E-03    1.68      14.6  T
   9    -41.6072997 -0.175196E-07  0.953E-04    1.68      24.7  T
  10    -41.6072997 -0.735063E-08  0.369E-04    1.68      63.8  T
     SCC iter.                  ...        0 min,  0.007 sec
     gradient                   ...        0 min,  0.002 sec
 * total energy  :   -41.2245210 Eh     change       -0.3942286E-03 Eh
   gradient norm :     0.0109980 Eh/α   predicted    -0.3187636E-03 ( -19.14%)
   displ. norm   :     0.3531086 α      lambda       -0.4481031E-03
   maximum displ.:     0.2910888 α      in ANC's #1, #2, #3, ...

........................................................................
.............................. CYCLE   16 ..............................
........................................................................

 iter      E             dE          RMSdq      gap      omega  full diag
   1    -41.6097556 -0.416098E+02  0.177E-01    1.65       0.0  T
   2    -41.6097823 -0.266995E-04  0.103E-01    1.67       1.0  T
   3    -41.6097623  0.200135E-04  0.503E-02    1.67       1.0  T
   4    -41.6097905 -0.282931E-04  0.873E-03    1.68       2.7  T
   5    -41.6097915 -0.916525E-06  0.331E-03    1.68       7.1  T
   6    -41.6097915 -0.283605E-07  0.222E-03    1.67      10.6  T
   7    -41.6097915 -0.224595E-07  0.141E-03    1.67      16.7  T
   8    -41.6097915 -0.100690E-07  0.920E-04    1.67      25.6  T
   9    -41.6097915 -0.461609E-08  0.665E-04    1.67      35.5  T
     SCC iter.                  ...        0 min,  0.006 sec
     gradient                   ...        0 min,  0.002 sec
 * total energy  :   -41.2248416 Eh     change       -0.3205988E-03 Eh
   gradient norm :     0.0094222 Eh/α   predicted    -0.2519903E-03 ( -21.40%)
   displ. norm   :     0.6263139 α      lambda       -0.5802920E-03
   maximum displ.:     0.4889159 α      in ANC's #1, #3, #2, ...

........................................................................
.............................. CYCLE   17 ..............................
........................................................................

 iter      E             dE          RMSdq      gap      omega  full diag
   1    -41.6039339 -0.416039E+02  0.326E-01    1.69       0.0  T
   2    -41.6039716 -0.376804E-04  0.190E-01    1.73       1.0  T
   3    -41.6039246  0.469898E-04  0.728E-02    1.73       1.0  T
   4    -41.6039844 -0.598209E-04  0.108E-02    1.74       2.2  T
   5    -41.6039852 -0.779138E-06  0.568E-03    1.74       4.1  T
   6    -41.6039852 -0.242445E-07  0.329E-03    1.74       7.2  T
   7    -41.6039853 -0.655000E-07  0.186E-03    1.74      12.7  T
   8    -41.6039853 -0.135422E-07  0.133E-03    1.74      17.8  T
   9    -41.6039853 -0.964402E-08  0.739E-04    1.74      31.9  T
  10    -41.6039853 -0.355566E-08  0.220E-04    1.74     107.2  T
     SCC iter.                  ...        0 min,  0.007 sec
     gradient                   ...        0 min,  0.002 sec
 * total energy  :   -41.2250058 Eh     change       -0.1641363E-03 Eh
   gradient norm :     0.0178296 Eh/α   predicted    -0.4039590E-03 ( 146.11%)
   displ. norm   :     0.1357091 α      lambda       -0.9082799E-03
   maximum displ.:     0.0812111 α      in ANC's #4, #1, #27, ...

........................................................................
.............................. CYCLE   18 ..............................
........................................................................

 iter      E             dE          RMSdq      gap      omega  full diag
   1    -41.6152540 -0.416153E+02  0.102E-01    1.73       0.0  T
   2    -41.6152751 -0.210310E-04  0.626E-02    1.72       1.0  T
   3    -41.6152747  0.382400E-06  0.306E-02    1.70       1.0  T
   4    -41.6152792 -0.454469E-05  0.107E-02    1.70       2.2  T
   5    -41.6152800 -0.739264E-06  0.725E-03    1.70       3.3  T
   6    -41.6152802 -0.206966E-06  0.546E-03    1.70       4.3  T
   7    -41.6152803 -0.189726E-06  0.319E-03    1.70       7.4  T
   8    -41.6152804 -0.860051E-07  0.161E-03    1.70      14.7  T
   9    -41.6152804 -0.139074E-07  0.654E-04    1.70      36.0  T
  10    -41.6152805 -0.313187E-08  0.393E-04    1.70      60.0  T
     SCC iter.                  ...        0 min,  0.007 sec
     gradient                   ...        0 min,  0.002 sec
 * total energy  :   -41.2254506 Eh     change       -0.4448551E-03 Eh
   gradient norm :     0.0090183 Eh/α   predicted    -0.4625052E-03 (   3.97%)
   displ. norm   :     0.3477100 α      lambda       -0.3813938E-03
   maximum displ.:     0.2754935 α      in ANC's #1, #3, #2, ...

........................................................................
.............................. CYCLE   19 ..............................
........................................................................

 iter      E             dE          RMSdq      gap      omega  full diag
   1    -41.6140473 -0.416140E+02  0.184E-01    1.69       0.0  T
   2    -41.6140851 -0.377629E-04  0.108E-01    1.73       1.0  T
   3    -41.6140704  0.146980E-04  0.546E-02    1.73       1.0  T
   4    -41.6140949 -0.245387E-04  0.102E-02    1.74       2.3  T
   5    -41.6140962 -0.129594E-05  0.363E-03    1.74       6.5  T
   6    -41.6140962 -0.244645E-07  0.247E-03    1.74       9.5  T
   7    -41.6140962 -0.318069E-07  0.151E-03    1.74      15.6  T
   8    -41.6140963 -0.103490E-07  0.108E-03    1.74      21.8  T
   9    -41.6140963 -0.783333E-08  0.665E-04    1.74      35.5  T
  10    -41.6140963 -0.355792E-08  0.310E-04    1.74      76.1  T
     SCC iter.                  ...        0 min,  0.007 sec
     gradient                   ...        0 min,  0.002 sec
 * total energy  :   -41.2256868 Eh     change       -0.2361856E-03 Eh
   gradient norm :     0.0107852 Eh/α   predicted    -0.2137546E-03 (  -9.50%)
   displ. norm   :     0.4429329 α      lambda       -0.3525836E-03
   maximum displ.:     0.3582984 α      in ANC's #1, #3, #2, ...

........................................................................
.............................. CYCLE   20 ..............................
........................................................................

 iter      E             dE          RMSdq      gap      omega  full diag
   1    -41.6105677 -0.416106E+02  0.236E-01    1.77       0.0  T
   2    -41.6106141 -0.463366E-04  0.139E-01    1.80       1.0  T
   3    -41.6105859  0.281601E-04  0.675E-02    1.78       1.0  T
   4    -41.6106293 -0.433795E-04  0.107E-02    1.79       2.2  T
   5    -41.6106304 -0.112334E-05  0.482E-03    1.79       4.9  T
   6    -41.6106305 -0.690349E-07  0.333E-03    1.79       7.1  T
   7    -41.6106305 -0.410089E-07  0.206E-03    1.79      11.4  T
   8    -41.6106305 -0.220482E-07  0.140E-03    1.79      16.8  T
   9    -41.6106306 -0.119132E-07  0.904E-04    1.79      26.1  T
  10    -41.6106306 -0.619993E-08  0.305E-04    1.79      77.2  T
     SCC iter.                  ...        0 min,  0.008 sec
     gradient                   ...        0 min,  0.002 sec
 * total energy  :   -41.2258435 Eh     change       -0.1567086E-03 Eh
   gradient norm :     0.0114321 Eh/α   predicted    -0.2108787E-03 (  34.57%)
   displ. norm   :     0.1522300 α      lambda       -0.2711787E-03
   maximum displ.:     0.0889621 α      in ANC's #3, #1, #27, ...
 * RMSD in coord.:     1.0888880 α      energy gain  -0.9993309E-02 Eh

generating ANC from exact Hessian ...
Using Lindh-Hessian (1995)
 Shifting diagonal of input Hessian by    8.6276421019003419E-003
 Lowest  eigenvalues of input Hessian
    0.000000    0.000000    0.000000    0.000000    0.000000    0.000000
    0.010000    0.011489    0.013325    0.018494    0.020416    0.025190
    0.026625    0.028355    0.041359    0.046060    0.051910    0.061191
 Highest eigenvalues
    1.650800    1.824584    1.885357    2.005575    2.152596    2.425671


........................................................................
.............................. CYCLE   21 ..............................
........................................................................

 iter      E             dE          RMSdq      gap      omega  full diag
   1    -41.6140411 -0.416140E+02  0.923E-02    1.81       0.0  T
   2    -41.6140481 -0.696627E-05  0.543E-02    1.82       1.0  T
   3    -41.6140446  0.345790E-05  0.246E-02    1.82       1.0  T
   4    -41.6140501 -0.547051E-05  0.417E-03    1.82       5.7  T
   5    -41.6140503 -0.206767E-06  0.183E-03    1.82      12.9  T
   6    -41.6140503 -0.987561E-08  0.115E-03    1.82      20.4  T
   7    -41.6140503 -0.496711E-08  0.729E-04    1.82      32.3  T
   8    -41.6140503 -0.255626E-08  0.476E-04    1.82      49.6  T
     SCC iter.                  ...        0 min,  0.005 sec
     gradient                   ...        0 min,  0.002 sec
 * total energy  :   -41.2259976 Eh     change       -0.1540614E-03 Eh
   gradient norm :     0.0065087 Eh/α   predicted     0.0000000E+00 (-100.00%)
   displ. norm   :     0.0426733 α      lambda       -0.1054943E-03
   maximum displ.:     0.0254181 α      in ANC's #6, #8, #2, ...

........................................................................
.............................. CYCLE   22 ..............................
........................................................................

 iter      E             dE          RMSdq      gap      omega  full diag
   1    -41.6155338 -0.416155E+02  0.303E-02    1.82       0.0  T
   2    -41.6155349 -0.108956E-05  0.178E-02    1.82       1.3  T
   3    -41.6155345  0.424766E-06  0.787E-03    1.82       3.0  T
   4    -41.6155352 -0.659912E-06  0.236E-03    1.82      10.0  T
   5    -41.6155352 -0.648698E-07  0.142E-03    1.82      16.6  T
   6    -41.6155352 -0.756832E-08  0.105E-03    1.82      22.5  T
   7    -41.6155352 -0.618402E-08  0.649E-04    1.82      36.3  T
   8    -41.6155352 -0.314432E-08  0.370E-04    1.82      63.7  T
     SCC iter.                  ...        0 min,  0.006 sec
     gradient                   ...        0 min,  0.002 sec
 * total energy  :   -41.2260718 Eh     change       -0.7418482E-04 Eh
   gradient norm :     0.0029511 Eh/α   predicted    -0.5284390E-04 ( -28.77%)
   displ. norm   :     0.0653817 α      lambda       -0.7941682E-04
   maximum displ.:     0.0318427 α      in ANC's #6, #1, #2, ...

........................................................................
.............................. CYCLE   23 ..............................
........................................................................

 iter      E             dE          RMSdq      gap      omega  full diag
   1    -41.6165091 -0.416165E+02  0.437E-02    1.80       0.0  T
   2    -41.6165114 -0.238854E-05  0.260E-02    1.81       1.0  T
   3    -41.6165108  0.684522E-06  0.109E-02    1.80       2.2  T
   4    -41.6165118 -0.107623E-05  0.330E-03    1.80       7.1  T
   5    -41.6165120 -0.131214E-06  0.186E-03    1.80      12.7  T
   6    -41.6165120 -0.113820E-07  0.132E-03    1.80      17.8  T
   7    -41.6165120 -0.865355E-08  0.867E-04    1.80      27.2  T
   8    -41.6165120 -0.535978E-08  0.506E-04    1.80      46.5  T
     SCC iter.                  ...        0 min,  0.005 sec
     gradient                   ...        0 min,  0.002 sec
 * total energy  :   -41.2260938 Eh     change       -0.2205608E-04 Eh
   gradient norm :     0.0040141 Eh/α   predicted    -0.3987804E-04 (  80.80%)
   displ. norm   :     0.0484801 α      lambda       -0.6390070E-04
   maximum displ.:     0.0239903 α      in ANC's #1, #6, #2, ...

........................................................................
.............................. CYCLE   24 ..............................
........................................................................

 iter      E             dE          RMSdq      gap      omega  full diag
   1    -41.6164206 -0.416164E+02  0.335E-02    1.80       0.0  T
   2    -41.6164214 -0.756284E-06  0.198E-02    1.81       1.2  T
   3    -41.6164204  0.998740E-06  0.915E-03    1.80       2.6  T
   4    -41.6164217 -0.133674E-05  0.190E-03    1.80      12.4  T
   5    -41.6164217 -0.250423E-07  0.127E-03    1.81      18.6  T
   6    -41.6164217 -0.571229E-08  0.958E-04    1.81      24.6  T
   7    -41.6164217 -0.517471E-08  0.534E-04    1.81      44.1  T
     SCC iter.                  ...        0 min,  0.005 sec
     gradient                   ...        0 min,  0.002 sec
 * total energy  :   -41.2261242 Eh     change       -0.3037566E-04 Eh
   gradient norm :     0.0032237 Eh/α   predicted    -0.3202534E-04 (   5.43%)
   displ. norm   :     0.0294519 α      lambda       -0.2397980E-04
   maximum displ.:     0.0193226 α      in ANC's #1, #2, #3, ...

........................................................................
.............................. CYCLE   25 ..............................
........................................................................

 iter      E             dE          RMSdq      gap      omega  full diag
   1    -41.6160305 -0.416160E+02  0.171E-02    1.81       0.0  T
   2    -41.6160307 -0.146179E-06  0.101E-02    1.81       2.3  T
   3    -41.6160305  0.164270E-06  0.435E-03    1.81       5.4  T
   4    -41.6160307 -0.221937E-06  0.744E-04    1.81      31.7  T
   5    -41.6160307 -0.407971E-08  0.452E-04    1.81      52.1  T
     SCC iter.                  ...        0 min,  0.003 sec
     gradient                   ...        0 min,  0.002 sec
 * total energy  :   -41.2261454 Eh     change       -0.2123251E-04 Eh
   gradient norm :     0.0020434 Eh/α   predicted    -0.1199979E-04 ( -43.48%)
   displ. norm   :     0.1846294 α      lambda       -0.1033047E-03
   maximum displ.:     0.1108070 α      in ANC's #1, #2, #8, ...

........................................................................
.............................. CYCLE   26 ..............................
........................................................................

 iter      E             dE          RMSdq      gap      omega  full diag
   1    -41.6146989 -0.416147E+02  0.106E-01    1.82       0.0  T
   2    -41.6147035 -0.458460E-05  0.626E-02    1.83       1.0  T
   3    -41.6146966  0.684467E-05  0.261E-02    1.82       1.0  T
   4    -41.6147055 -0.888883E-05  0.431E-03    1.83       5.5  T
   5    -41.6147056 -0.113656E-06  0.273E-03    1.83       8.6  T
   6    -41.6147056 -0.167697E-07  0.186E-03    1.83      12.7  T
   7    -41.6147056 -0.183651E-07  0.107E-03    1.83      22.0  T
   8    -41.6147056 -0.549131E-08  0.715E-04    1.83      33.0  T
   9    -41.6147057 -0.277375E-08  0.372E-04    1.83      63.3  T
     SCC iter.                  ...        0 min,  0.006 sec
     gradient                   ...        0 min,  0.002 sec
 * total energy  :   -41.2262188 Eh     change       -0.7342055E-04 Eh
   gradient norm :     0.0036793 Eh/α   predicted    -0.5340961E-04 ( -27.26%)
   displ. norm   :     0.2179151 α      lambda       -0.7846407E-04
   maximum displ.:     0.1245661 α      in ANC's #1, #2, #8, ...

........................................................................
.............................. CYCLE   27 ..............................
........................................................................

 iter      E             dE          RMSdq      gap      omega  full diag
   1    -41.6136181 -0.416136E+02  0.124E-01    1.83       0.0  T
   2    -41.6136220 -0.383651E-05  0.737E-02    1.84       1.0  T
   3    -41.6136141  0.785691E-05  0.258E-02    1.84       1.0  T
   4    -41.6136239 -0.979036E-05  0.444E-03    1.84       5.3  T
   5    -41.6136240 -0.901137E-07  0.292E-03    1.84       8.1  T
   6    -41.6136240 -0.164061E-07  0.188E-03    1.84      12.6  T
   7    -41.6136240 -0.209070E-07  0.109E-03    1.84      21.5  T
   8    -41.6136240 -0.533595E-08  0.719E-04    1.84      32.8  T
   9    -41.6136240 -0.259318E-08  0.345E-04    1.84      68.2  T
     SCC iter.                  ...        0 min,  0.006 sec
     gradient                   ...        0 min,  0.002 sec
 * total energy  :   -41.2262716 Eh     change       -0.5274401E-04 Eh
   gradient norm :     0.0068715 Eh/α   predicted    -0.4109786E-04 ( -22.08%)
   displ. norm   :     0.1881617 α      lambda       -0.9159120E-04
   maximum displ.:     0.0992101 α      in ANC's #2, #1, #3, ...

........................................................................
.............................. CYCLE   28 ..............................
........................................................................

 iter      E             dE          RMSdq      gap      omega  full diag
   1    -41.6136290 -0.416136E+02  0.108E-01    1.84       0.0  T
   2    -41.6136313 -0.230486E-05  0.641E-02    1.84       1.0  T
   3    -41.6136264  0.498468E-05  0.202E-02    1.84       1.2  T
   4    -41.6136325 -0.616283E-05  0.361E-03    1.84       6.5  T
   5    -41.6136326 -0.545683E-07  0.234E-03    1.84      10.1  T
   6    -41.6136326 -0.996794E-08  0.147E-03    1.84      16.0  T
   7    -41.6136326 -0.126907E-07  0.866E-04    1.84      27.2  T
   8    -41.6136326 -0.341506E-08  0.565E-04    1.84      41.7  T
     SCC iter.                  ...        0 min,  0.005 sec
     gradient                   ...        0 min,  0.002 sec
 * total energy  :   -41.2263496 Eh     change       -0.7803652E-04 Eh
   gradient norm :     0.0076600 Eh/α   predicted    -0.4741850E-04 ( -39.24%)
   displ. norm   :     0.4050340 α      lambda       -0.3232873E-03
   maximum displ.:     0.1987679 α      in ANC's #2, #1, #3, ...

........................................................................
.............................. CYCLE   29 ..............................
........................................................................

 iter      E             dE          RMSdq      gap      omega  full diag
   1    -41.6147411 -0.416147E+02  0.236E-01    1.84       0.0  T
   2    -41.6147489 -0.779882E-05  0.140E-01    1.84       1.0  T
   3    -41.6147334  0.155428E-04  0.353E-02    1.84       1.0  T
   4    -41.6147528 -0.194568E-04  0.747E-03    1.84       3.2  T
   5    -41.6147530 -0.223260E-06  0.484E-03    1.84       4.9  T
   6    -41.6147531 -0.473113E-07  0.282E-03    1.84       8.4  T
   7    -41.6147531 -0.430771E-07  0.176E-03    1.84      13.4  T
   8    -41.6147531 -0.147995E-07  0.115E-03    1.84      20.5  T
   9    -41.6147531 -0.557942E-08  0.485E-04    1.84      48.6  T
  10    -41.6147531 -0.234231E-08  0.118E-04    1.84     200.3  T
     SCC iter.                  ...        0 min,  0.007 sec
     gradient                   ...        0 min,  0.002 sec
 * total energy  :   -41.2266024 Eh     change       -0.2528113E-03 Eh
   gradient norm :     0.0084221 Eh/α   predicted    -0.1881709E-03 ( -25.57%)
   displ. norm   :     0.3690831 α      lambda       -0.4514242E-03
   maximum displ.:     0.1704791 α      in ANC's #3, #8, #2, ...

........................................................................
.............................. CYCLE   30 ..............................
........................................................................

 iter      E             dE          RMSdq      gap      omega  full diag
   1    -41.6175451 -0.416175E+02  0.222E-01    1.83       0.0  T
   2    -41.6175543 -0.921793E-05  0.132E-01    1.83       1.0  T
   3    -41.6175439  0.103991E-04  0.294E-02    1.82       1.0  T
   4    -41.6175572 -0.132672E-04  0.752E-03    1.82       3.1  T
   5    -41.6175576 -0.403501E-06  0.437E-03    1.82       5.4  T
   6    -41.6175577 -0.399859E-07  0.255E-03    1.82       9.2  T
   7    -41.6175577 -0.253658E-07  0.157E-03    1.82      15.0  T
   8    -41.6175577 -0.134024E-07  0.106E-03    1.82      22.2  T
   9    -41.6175577 -0.432834E-08  0.481E-04    1.82      49.0  T
  10    -41.6175577 -0.271758E-08  0.135E-04    1.82     175.0  T
     SCC iter.                  ...        0 min,  0.007 sec
     gradient                   ...        0 min,  0.002 sec
 * total energy  :   -41.2269585 Eh     change       -0.3560967E-03 Eh
   gradient norm :     0.0091936 Eh/α   predicted    -0.2564539E-03 ( -27.98%)
   displ. norm   :     0.6770283 α      lambda       -0.6497820E-03
   maximum displ.:     0.3101971 α      in ANC's #3, #8, #2, ...

........................................................................
.............................. CYCLE   31 ..............................
........................................................................

 iter      E             dE          RMSdq      gap      omega  full diag
   1    -41.6107369 -0.416107E+02  0.407E-01    1.82       0.0  T
   2    -41.6107707 -0.338410E-04  0.243E-01    1.80       1.0  T
   3    -41.6107565  0.141636E-04  0.423E-02    1.79       1.0  T
   4    -41.6107783 -0.217882E-04  0.143E-02    1.79       1.6  T
   5    -41.6107799 -0.153420E-05  0.876E-03    1.79       2.7  T
   6    -41.6107800 -0.176433E-06  0.462E-03    1.79       5.1  T
   7    -41.6107802 -0.127032E-06  0.306E-03    1.79       7.7  T
   8    -41.6107802 -0.400661E-07  0.196E-03    1.79      12.0  T
   9    -41.6107802 -0.254538E-07  0.839E-04    1.79      28.1  T
  10    -41.6107802 -0.494872E-08  0.338E-04    1.79      69.8  T
     SCC iter.                  ...        0 min,  0.007 sec
     gradient                   ...        0 min,  0.002 sec
 * total energy  :   -41.2270377 Eh     change       -0.7916126E-04 Eh
   gradient norm :     0.0246582 Eh/α   predicted    -0.4738209E-03 ( 498.55%)
   displ. norm   :     0.2899665 α      lambda       -0.1760746E-02
   maximum displ.:     0.2068901 α      in ANC's #1, #4, #2, ...

........................................................................
.............................. CYCLE   32 ..............................
........................................................................

 iter      E             dE          RMSdq      gap      omega  full diag
   1    -41.6194146 -0.416194E+02  0.167E-01    1.77       0.0  T
   2    -41.6194673 -0.527504E-04  0.104E-01    1.78       1.0  T
   3    -41.6194618  0.553444E-05  0.445E-02    1.76       1.0  T
   4    -41.6194753 -0.134620E-04  0.137E-02    1.76       1.7  T
   5    -41.6194769 -0.166991E-05  0.662E-03    1.76       3.6  T
   6    -41.6194771 -0.199846E-06  0.467E-03    1.76       5.0  T
   7    -41.6194772 -0.919025E-07  0.313E-03    1.76       7.5  T
   8    -41.6194773 -0.635363E-07  0.206E-03    1.76      11.4  T
   9    -41.6194773 -0.247123E-07  0.132E-03    1.76      17.9  T
  10    -41.6194773 -0.166871E-07  0.550E-04    1.76      42.8  T
  11    -41.6194773 -0.140403E-08  0.312E-04    1.76      75.6  T
     SCC iter.                  ...        0 min,  0.007 sec
     gradient                   ...        0 min,  0.002 sec
 * total energy  :   -41.2278300 Eh     change       -0.7923041E-03 Eh
   gradient norm :     0.0188208 Eh/α   predicted    -0.9544010E-03 (  20.46%)
   displ. norm   :     0.2912088 α      lambda       -0.8844677E-03
   maximum displ.:     0.1413523 α      in ANC's #2, #1, #3, ...

........................................................................
.............................. CYCLE   33 ..............................
........................................................................

 iter      E             dE          RMSdq      gap      omega  full diag
   1    -41.6213153 -0.416213E+02  0.134E-01    1.73       0.0  T
   2    -41.6213379 -0.226365E-04  0.806E-02    1.73       1.0  T
   3    -41.6213346  0.332947E-05  0.342E-02    1.74       1.0  T
   4    -41.6213416 -0.702406E-05  0.697E-03    1.73       3.4  T
   5    -41.6213422 -0.559778E-06  0.317E-03    1.73       7.4  T
   6    -41.6213422 -0.320713E-07  0.203E-03    1.73      11.6  T
   7    -41.6213422 -0.158729E-07  0.117E-03    1.73      20.1  T
   8    -41.6213422 -0.576626E-08  0.827E-04    1.73      28.5  T
   9    -41.6213422 -0.384772E-08  0.513E-04    1.73      46.0  T
     SCC iter.                  ...        0 min,  0.010 sec
     gradient                   ...        0 min,  0.003 sec
 * total energy  :   -41.2285497 Eh     change       -0.7197373E-03 Eh
   gradient norm :     0.0112562 Eh/α   predicted    -0.4797334E-03 ( -33.35%)
   displ. norm   :     0.7097568 α      lambda       -0.1474825E-02
   maximum displ.:     0.2725417 α      in ANC's #8, #3, #1, ...

........................................................................
.............................. CYCLE   34 ..............................
........................................................................

 iter      E             dE          RMSdq      gap      omega  full diag
   1    -41.6112972 -0.416113E+02  0.343E-01    1.74       0.0  T
   2    -41.6113769 -0.796701E-04  0.205E-01    1.70       1.0  T
   3    -41.6113128  0.641142E-04  0.903E-02    1.71       1.0  T
   4    -41.6114035 -0.907007E-04  0.163E-02    1.70       1.4  T
   5    -41.6114059 -0.239861E-05  0.835E-03    1.69       2.8  T
   6    -41.6114061 -0.176033E-06  0.531E-03    1.70       4.4  T
   7    -41.6114062 -0.114293E-06  0.308E-03    1.70       7.7  T
   8    -41.6114062 -0.453680E-07  0.208E-03    1.70      11.3  T
   9    -41.6114063 -0.205747E-07  0.139E-03    1.70      16.9  T
  10    -41.6114063 -0.147853E-07  0.439E-04    1.70      53.7  T
  11    -41.6114063 -0.118257E-08  0.236E-04    1.70     100.1  T
     SCC iter.                  ...        0 min,  0.008 sec
     gradient                   ...        0 min,  0.002 sec
 * total energy  :   -41.2288500 Eh     change       -0.3002999E-03 Eh
   gradient norm :     0.0271610 Eh/α   predicted    -0.1108865E-02 ( 269.25%)
   displ. norm   :     0.3211022 α      lambda       -0.2391442E-02
   maximum displ.:     0.2240901 α      in ANC's #1, #3, #9, ...

........................................................................
.............................. CYCLE   35 ..............................
........................................................................

 iter      E             dE          RMSdq      gap      omega  full diag
   1    -41.6207335 -0.416207E+02  0.245E-01    1.66       0.0  T
   2    -41.6208155 -0.820055E-04  0.142E-01    1.67       1.0  T
   3    -41.6208111  0.441783E-05  0.569E-02    1.69       1.0  T
   4    -41.6208262 -0.151653E-04  0.114E-02    1.69       2.1  T
   5    -41.6208274 -0.114108E-05  0.715E-03    1.69       3.3  T
   6    -41.6208275 -0.153389E-06  0.509E-03    1.69       4.6  T
   7    -41.6208277 -0.168275E-06  0.299E-03    1.69       7.9  T
   8    -41.6208278 -0.451694E-07  0.195E-03    1.69      12.1  T
   9    -41.6208278 -0.340746E-07  0.611E-04    1.69      38.6  T
  10    -41.6208278 -0.122441E-08  0.371E-04    1.69      63.6  T
     SCC iter.                  ...        0 min,  0.007 sec
     gradient                   ...        0 min,  0.003 sec
 * total energy  :   -41.2294123 Eh     change       -0.5623017E-03 Eh
   gradient norm :     0.0255352 Eh/α   predicted    -0.1319018E-02 ( 134.57%)
   displ. norm   :     0.2364130 α      lambda       -0.1920825E-02
   maximum displ.:     0.1889848 α      in ANC's #1, #3, #10, ...

........................................................................
.............................. CYCLE   36 ..............................
........................................................................

 iter      E             dE          RMSdq      gap      omega  full diag
   1    -41.6214319 -0.416214E+02  0.164E-01    1.65       0.0  T
   2    -41.6215611 -0.129254E-03  0.104E-01    1.70       1.0  T
   3    -41.6215828 -0.216904E-04  0.586E-02    1.68       1.0  T
   4    -41.6215896 -0.682580E-05  0.185E-02    1.68       1.3  T
   5    -41.6215935 -0.387093E-05  0.574E-03    1.68       4.1  T
   6    -41.6215937 -0.208326E-06  0.385E-03    1.68       6.1  T
   7    -41.6215938 -0.536295E-07  0.290E-03    1.68       8.1  T
   8    -41.6215938 -0.515034E-07  0.164E-03    1.68      14.4  T
   9    -41.6215938 -0.160934E-07  0.115E-03    1.68      20.4  T
  10    -41.6215939 -0.104981E-07  0.506E-04    1.68      46.6  T
  11    -41.6215939 -0.181584E-08  0.293E-04    1.68      80.4  T
     SCC iter.                  ...        0 min,  0.007 sec
     gradient                   ...        0 min,  0.002 sec
 * total energy  :   -41.2301795 Eh     change       -0.7671401E-03 Eh
   gradient norm :     0.0216587 Eh/α   predicted    -0.1014092E-02 (  32.19%)
   displ. norm   :     0.3768577 α      lambda       -0.1169948E-02
   maximum displ.:     0.2592741 α      in ANC's #1, #6, #3, ...

........................................................................
.............................. CYCLE   37 ..............................
........................................................................

 iter      E             dE          RMSdq      gap      omega  full diag
   1    -41.6161332 -0.416161E+02  0.169E-01    1.71       0.0  T
   2    -41.6161648 -0.316164E-04  0.103E-01    1.69       1.0  T
   3    -41.6161579  0.691666E-05  0.426E-02    1.69       1.0  T
   4    -41.6161724 -0.144796E-04  0.789E-03    1.68       3.0  T
   5    -41.6161731 -0.682153E-06  0.400E-03    1.68       5.9  T
   6    -41.6161731 -0.454617E-07  0.164E-03    1.68      14.4  T
   7    -41.6161731 -0.871893E-08  0.973E-04    1.68      24.2  T
   8    -41.6161731 -0.400762E-08  0.678E-04    1.68      34.8  T
     SCC iter.                  ...        0 min,  0.006 sec
     gradient                   ...        0 min,  0.002 sec
 * total energy  :   -41.2308775 Eh     change       -0.6980323E-03 Eh
   gradient norm :     0.0216851 Eh/α   predicted    -0.6680573E-03 (  -4.29%)
   displ. norm   :     0.2912679 α      lambda       -0.8207840E-03
   maximum displ.:     0.2520778 α      in ANC's #1, #3, #6, ...

........................................................................
.............................. CYCLE   38 ..............................
........................................................................

 iter      E             dE          RMSdq      gap      omega  full diag
   1    -41.6169812 -0.416170E+02  0.123E-01    1.67       0.0  T
   2    -41.6169935 -0.123541E-04  0.744E-02    1.67       1.0  T
   3    -41.6169864  0.712795E-05  0.320E-02    1.68       1.0  T
   4    -41.6169969 -0.105345E-04  0.655E-03    1.67       3.6  T
   5    -41.6169974 -0.472967E-06  0.322E-03    1.67       7.3  T
   6    -41.6169974 -0.330522E-07  0.234E-03    1.67      10.1  T
   7    -41.6169975 -0.244723E-07  0.144E-03    1.67      16.3  T
   8    -41.6169975 -0.134126E-07  0.854E-04    1.67      27.6  T
   9    -41.6169975 -0.400556E-08  0.508E-04    1.67      46.4  T
     SCC iter.                  ...        0 min,  0.006 sec
     gradient                   ...        0 min,  0.002 sec
 * total energy  :   -41.2314961 Eh     change       -0.6186238E-03 Eh
   gradient norm :     0.0178394 Eh/α   predicted    -0.4452088E-03 ( -28.03%)
   displ. norm   :     0.4748758 α      lambda       -0.1507257E-02
   maximum displ.:     0.4224665 α      in ANC's #1, #6, #2, ...

........................................................................
.............................. CYCLE   39 ..............................
........................................................................

 iter      E             dE          RMSdq      gap      omega  full diag
   1    -41.6219919 -0.416220E+02  0.216E-01    1.64       0.0  T
   2    -41.6220114 -0.195169E-04  0.128E-01    1.66       1.0  T
   3    -41.6219870  0.243394E-04  0.428E-02    1.66       1.0  T
   4    -41.6220168 -0.297336E-04  0.816E-03    1.66       2.9  T
   5    -41.6220177 -0.947500E-06  0.361E-03    1.66       6.5  T
   6    -41.6220177 -0.133040E-07  0.235E-03    1.66      10.0  T
   7    -41.6220178 -0.346523E-07  0.139E-03    1.66      16.9  T
   8    -41.6220178 -0.762651E-08  0.942E-04    1.66      25.0  T
   9    -41.6220178 -0.653085E-08  0.389E-04    1.66      60.6  T
     SCC iter.                  ...        0 min,  0.006 sec
     gradient                   ...        0 min,  0.002 sec
 * total energy  :   -41.2325372 Eh     change       -0.1041114E-02 Eh
   gradient norm :     0.0145420 Eh/α   predicted    -0.9235786E-03 ( -11.29%)
   displ. norm   :     0.6732611 α      lambda       -0.1449442E-02
   maximum displ.:     0.5947046 α      in ANC's #1, #3, #6, ...

........................................................................
.............................. CYCLE   40 ..............................
........................................................................

 iter      E             dE          RMSdq      gap      omega  full diag
   1    -41.6155157 -0.416155E+02  0.270E-01    1.65       0.0  T
   2    -41.6155465 -0.307812E-04  0.161E-01    1.68       1.0  T
   3    -41.6155010  0.455410E-04  0.630E-02    1.68       1.0  T
   4    -41.6155590 -0.579813E-04  0.918E-03    1.68       2.6  T
   5    -41.6155597 -0.766602E-06  0.469E-03    1.69       5.0  T
   6    -41.6155598 -0.580308E-07  0.271E-03    1.68       8.7  T
   7    -41.6155598 -0.390449E-07  0.173E-03    1.68      13.7  T
   8    -41.6155598 -0.131400E-07  0.120E-03    1.68      19.7  T
   9    -41.6155598 -0.819642E-08  0.735E-04    1.68      32.1  T
  10    -41.6155599 -0.391488E-08  0.310E-04    1.68      76.0  T
     SCC iter.                  ...        0 min,  0.007 sec
     gradient                   ...        0 min,  0.002 sec
 * total energy  :   -41.2333781 Eh     change       -0.8408578E-03 Eh
   gradient norm :     0.0210472 Eh/α   predicted    -0.1053217E-02 (  25.26%)
   displ. norm   :     0.3009258 α      lambda       -0.1678709E-02
   maximum displ.:     0.2134601 α      in ANC's #1, #3, #4, ...

........................................................................
.............................. CYCLE   41 ..............................
........................................................................

 iter      E             dE          RMSdq      gap      omega  full diag
   1    -41.6266303 -0.416266E+02  0.193E-01    1.64       0.0  T
   2    -41.6267575 -0.127217E-03  0.117E-01    1.68       1.0  T
   3    -41.6267682 -0.106620E-04  0.622E-02    1.68       1.0  T
   4    -41.6267749 -0.673059E-05  0.154E-02    1.69       1.5  T
   5    -41.6267785 -0.360795E-05  0.491E-03    1.69       4.8  T
   6    -41.6267786 -0.127379E-06  0.308E-03    1.69       7.6  T
   7    -41.6267787 -0.380287E-07  0.184E-03    1.69      12.8  T
   8    -41.6267787 -0.120448E-07  0.134E-03    1.69      17.5  T
   9    -41.6267787 -0.124179E-07  0.761E-04    1.69      31.0  T
  10    -41.6267787 -0.303734E-08  0.431E-04    1.69      54.7  T
     SCC iter.                  ...        0 min,  0.007 sec
     gradient                   ...        0 min,  0.002 sec
 * total energy  :   -41.2337841 Eh     change       -0.4059535E-03 Eh
   gradient norm :     0.0285801 Eh/α   predicted    -0.9153620E-03 ( 125.48%)
   displ. norm   :     0.3312489 α      lambda       -0.1251421E-02
   maximum displ.:     0.2941032 α      in ANC's #1, #6, #3, ...

........................................................................
.............................. CYCLE   42 ..............................
........................................................................

 iter      E             dE          RMSdq      gap      omega  full diag
   1    -41.6218147 -0.416218E+02  0.154E-01    1.74       0.0  T
   2    -41.6218737 -0.590149E-04  0.947E-02    1.73       1.0  T
   3    -41.6218772 -0.354341E-05  0.464E-02    1.73       1.0  T
   4    -41.6218847 -0.748985E-05  0.904E-03    1.72       2.6  T
   5    -41.6218862 -0.142984E-05  0.330E-03    1.72       7.1  T
   6    -41.6218862 -0.384647E-07  0.190E-03    1.72      12.4  T
   7    -41.6218862 -0.128778E-07  0.944E-04    1.72      25.0  T
   8    -41.6218862 -0.291750E-08  0.686E-04    1.72      34.4  T
     SCC iter.                  ...        0 min,  0.005 sec
     gradient                   ...        0 min,  0.002 sec
 * total energy  :   -41.2343779 Eh     change       -0.5938806E-03 Eh
   gradient norm :     0.0202812 Eh/α   predicted    -0.6943777E-03 (  16.92%)
   displ. norm   :     0.1368530 α      lambda       -0.5373602E-03
   maximum displ.:     0.0952111 α      in ANC's #1, #3, #10, ...
 * RMSD in coord.:     0.9803736 α      energy gain  -0.8534426E-02 Eh

generating ANC from exact Hessian ...
Using Lindh-Hessian (1995)
 Shifting diagonal of input Hessian by    9.1000786735039724E-003
 Lowest  eigenvalues of input Hessian
    0.000000    0.000000    0.000000    0.000000    0.000000    0.000000
    0.010000    0.011137    0.013504    0.017707    0.020785    0.024549
    0.026308    0.028839    0.040815    0.044125    0.053824    0.061641
 Highest eigenvalues
    1.639851    1.829689    1.887930    2.007785    2.154513    2.439709


........................................................................
.............................. CYCLE   43 ..............................
........................................................................

 iter      E             dE          RMSdq      gap      omega  full diag
   1    -41.6230044 -0.416230E+02  0.915E-02    1.71       0.0  T
   2    -41.6230777 -0.732644E-04  0.506E-02    1.71       1.0  T
   3    -41.6230826 -0.491217E-05  0.286E-02    1.71       1.0  T
   4    -41.6230814  0.118717E-05  0.118E-02    1.71       2.0  T
   5    -41.6230833 -0.184343E-05  0.223E-03    1.71      10.6  T
   6    -41.6230833 -0.197350E-07  0.157E-03    1.71      15.0  T
   7    -41.6230833 -0.105939E-07  0.988E-04    1.71      23.9  T
   8    -41.6230833 -0.493274E-08  0.646E-04    1.71      36.5  T
     SCC iter.                  ...        0 min,  0.006 sec
     gradient                   ...        0 min,  0.002 sec
 * total energy  :   -41.2345869 Eh     change       -0.2089737E-03 Eh
   gradient norm :     0.0133497 Eh/α   predicted     0.0000000E+00 (-100.00%)
   displ. norm   :     0.0986095 α      lambda       -0.3770830E-03
   maximum displ.:     0.0517958 α      in ANC's #3, #4, #1, ...

........................................................................
.............................. CYCLE   44 ..............................
........................................................................

 iter      E             dE          RMSdq      gap      omega  full diag
   1    -41.6258786 -0.416259E+02  0.606E-02    1.71       0.0  T
   2    -41.6258888 -0.102241E-04  0.361E-02    1.71       1.0  T
   3    -41.6258890 -0.161167E-06  0.187E-02    1.71       1.3  T
   4    -41.6258898 -0.810424E-06  0.542E-03    1.71       4.3  T
   5    -41.6258903 -0.576885E-06  0.180E-03    1.71      13.1  T
   6    -41.6258904 -0.130312E-07  0.134E-03    1.71      17.6  T
   7    -41.6258904 -0.861466E-08  0.869E-04    1.71      27.1  T
   8    -41.6258904 -0.438211E-08  0.566E-04    1.71      41.6  T
     SCC iter.                  ...        0 min,  0.006 sec
     gradient                   ...        0 min,  0.002 sec
 * total energy  :   -41.2347665 Eh     change       -0.1795824E-03 Eh
   gradient norm :     0.0070290 Eh/α   predicted    -0.1903727E-03 (   6.01%)
   displ. norm   :     0.1682975 α      lambda       -0.4424573E-03
   maximum displ.:     0.0864125 α      in ANC's #3, #4, #1, ...

........................................................................
.............................. CYCLE   45 ..............................
........................................................................

 iter      E             dE          RMSdq      gap      omega  full diag
   1    -41.6294721 -0.416295E+02  0.853E-02    1.69       0.0  T
   2    -41.6294948 -0.226933E-04  0.497E-02    1.70       1.0  T
   3    -41.6294955 -0.692478E-06  0.240E-02    1.69       1.0  T
   4    -41.6294958 -0.300937E-06  0.592E-03    1.69       4.0  T
   5    -41.6294964 -0.636370E-06  0.242E-03    1.69       9.8  T
   6    -41.6294965 -0.226768E-07  0.171E-03    1.69      13.8  T
   7    -41.6294965 -0.151814E-07  0.103E-03    1.69      22.8  T
   8    -41.6294965 -0.610229E-08  0.646E-04    1.69      36.5  T
   9    -41.6294965 -0.259102E-08  0.374E-04    1.69      63.0  T
     SCC iter.                  ...        0 min,  0.007 sec
     gradient                   ...        0 min,  0.002 sec
 * total energy  :   -41.2348905 Eh     change       -0.1240115E-03 Eh
   gradient norm :     0.0100257 Eh/α   predicted    -0.2274969E-03 (  83.45%)
   displ. norm   :     0.0642145 α      lambda       -0.1706813E-03
   maximum displ.:     0.0482711 α      in ANC's #1, #4, #2, ...

........................................................................
.............................. CYCLE   46 ..............................
........................................................................

 iter      E             dE          RMSdq      gap      omega  full diag
   1    -41.6277184 -0.416277E+02  0.354E-02    1.71       0.0  T
   2    -41.6277203 -0.189747E-05  0.212E-02    1.71       1.1  T
   3    -41.6277202  0.138674E-06  0.878E-03    1.70       2.7  T
   4    -41.6277206 -0.417433E-06  0.201E-03    1.70      11.7  T
   5    -41.6277206 -0.598581E-07  0.962E-04    1.70      24.5  T
   6    -41.6277207 -0.316697E-08  0.602E-04    1.70      39.1  T
     SCC iter.                  ...        0 min,  0.004 sec
     gradient                   ...        0 min,  0.002 sec
 * total energy  :   -41.2350162 Eh     change       -0.1256709E-03 Eh
   gradient norm :     0.0043812 Eh/α   predicted    -0.8569366E-04 ( -31.81%)
   displ. norm   :     0.1435609 α      lambda       -0.1337854E-03
   maximum displ.:     0.0991551 α      in ANC's #1, #4, #2, ...

........................................................................
.............................. CYCLE   47 ..............................
........................................................................

 iter      E             dE          RMSdq      gap      omega  full diag
   1    -41.6261827 -0.416262E+02  0.615E-02    1.72       0.0  T
   2    -41.6261842 -0.147246E-05  0.366E-02    1.72       1.0  T
   3    -41.6261821  0.213902E-05  0.123E-02    1.71       1.9  T
   4    -41.6261848 -0.274313E-05  0.285E-03    1.72       8.3  T
   5    -41.6261849 -0.730676E-07  0.181E-03    1.72      13.0  T
   6    -41.6261849 -0.109374E-07  0.105E-03    1.72      22.5  T
   7    -41.6261849 -0.529658E-08  0.695E-04    1.72      33.9  T
   8    -41.6261849 -0.235189E-08  0.447E-04    1.72      52.7  T
     SCC iter.                  ...        0 min,  0.006 sec
     gradient                   ...        0 min,  0.002 sec
 * total energy  :   -41.2351128 Eh     change       -0.9667325E-04 Eh
   gradient norm :     0.0039850 Eh/α   predicted    -0.6827344E-04 ( -29.38%)
   displ. norm   :     0.1557453 α      lambda       -0.9209116E-04
   maximum displ.:     0.1064184 α      in ANC's #1, #4, #2, ...

........................................................................
.............................. CYCLE   48 ..............................
........................................................................

 iter      E             dE          RMSdq      gap      omega  full diag
   1    -41.6255234 -0.416255E+02  0.689E-02    1.72       0.0  T
   2    -41.6255243 -0.888174E-06  0.408E-02    1.72       1.0  T
   3    -41.6255215  0.274431E-05  0.124E-02    1.72       1.9  T
   4    -41.6255249 -0.339666E-05  0.251E-03    1.72       9.4  T
   5    -41.6255249 -0.202855E-07  0.176E-03    1.72      13.4  T
   6    -41.6255249 -0.115327E-07  0.931E-04    1.72      25.3  T
   7    -41.6255249 -0.400652E-08  0.660E-04    1.72      35.7  T
     SCC iter.                  ...        0 min,  0.005 sec
     gradient                   ...        0 min,  0.002 sec
 * total energy  :   -41.2351843 Eh     change       -0.7144457E-04 Eh
   gradient norm :     0.0057580 Eh/α   predicted    -0.4716204E-04 ( -33.99%)
   displ. norm   :     0.2068139 α      lambda       -0.1157193E-03
   maximum displ.:     0.1430746 α      in ANC's #1, #4, #2, ...

........................................................................
.............................. CYCLE   49 ..............................
........................................................................

 iter      E             dE          RMSdq      gap      omega  full diag
   1    -41.6253375 -0.416253E+02  0.973E-02    1.73       0.0  T
   2    -41.6253390 -0.144739E-05  0.574E-02    1.73       1.0  T
   3    -41.6253339  0.504178E-05  0.166E-02    1.73       1.4  T
   4    -41.6253402 -0.626346E-05  0.330E-03    1.73       7.1  T
   5    -41.6253402 -0.206228E-07  0.227E-03    1.73      10.4  T
   6    -41.6253402 -0.240460E-07  0.114E-03    1.73      20.6  T
   7    -41.6253402 -0.555586E-08  0.840E-04    1.73      28.0  T
   8    -41.6253402 -0.385116E-08  0.467E-04    1.73      50.4  T
     SCC iter.                  ...        0 min,  0.005 sec
     gradient                   ...        0 min,  0.002 sec
 * total energy  :   -41.2352704 Eh     change       -0.8611296E-04 Eh
   gradient norm :     0.0070822 Eh/α   predicted    -0.6033423E-04 ( -29.94%)
   displ. norm   :     0.2114328 α      lambda       -0.1267424E-03
   maximum displ.:     0.1469543 α      in ANC's #1, #4, #2, ...

........................................................................
.............................. CYCLE   50 ..............................
........................................................................

 iter      E             dE          RMSdq      gap      omega  full diag
   1    -41.6259706 -0.416260E+02  0.107E-01    1.73       0.0  T
   2    -41.6259724 -0.178485E-05  0.629E-02    1.73       1.0  T
   3    -41.6259665  0.594124E-05  0.181E-02    1.73       1.3  T
   4    -41.6259739 -0.739822E-05  0.346E-03    1.73       6.8  T
   5    -41.6259739 -0.275704E-07  0.236E-03    1.73      10.0  T
   6    -41.6259739 -0.249078E-07  0.108E-03    1.73      21.9  T
   7    -41.6259739 -0.426204E-08  0.829E-04    1.73      28.4  T
   8    -41.6259739 -0.439520E-08  0.461E-04    1.73      51.2  T
     SCC iter.                  ...        0 min,  0.033 sec
     gradient                   ...        0 min,  0.003 sec
 * total energy  :   -41.2353650 Eh     change       -0.9464066E-04 Eh
   gradient norm :     0.0066691 Eh/α   predicted    -0.6620363E-04 ( -30.05%)
   displ. norm   :     0.1974432 α      lambda       -0.1354111E-03
   maximum displ.:     0.1265755 α      in ANC's #1, #4, #2, ...

........................................................................
.............................. CYCLE   51 ..............................
........................................................................

 iter      E             dE          RMSdq      gap      omega  full diag
   1    -41.6274622 -0.416275E+02  0.109E-01    1.73       0.0  T
   2    -41.6274647 -0.256686E-05  0.640E-02    1.73       1.0  T
   3    -41.6274594  0.534839E-05  0.180E-02    1.73       1.3  T
   4    -41.6274662 -0.680487E-05  0.386E-03    1.73       6.1  T
   5    -41.6274663 -0.920850E-07  0.251E-03    1.73       9.4  T
   6    -41.6274663 -0.183860E-07  0.124E-03    1.73      18.9  T
   7    -41.6274663 -0.809278E-08  0.877E-04    1.73      26.9  T
   8    -41.6274663 -0.384138E-08  0.591E-04    1.73      39.9  T
     SCC iter.                  ...        0 min,  0.006 sec
     gradient                   ...        0 min,  0.002 sec
[...]
.............................. CYCLE   76 ..............................
........................................................................

 iter      E             dE          RMSdq      gap      omega  full diag
   1    -41.6300114 -0.416300E+02  0.188E-02    1.92       0.0  T
   2    -41.6300124 -0.973464E-06  0.109E-02    1.92       2.2  T
   3    -41.6300124 -0.690604E-07  0.529E-03    1.92       4.5  T
   4    -41.6300125 -0.762755E-07  0.704E-04    1.92      33.5  T
   5    -41.6300125 -0.265690E-08  0.436E-04    1.92      54.0  T
     SCC iter.                  ...        0 min,  0.003 sec
     gradient                   ...        0 min,  0.004 sec
 * total energy  :   -41.2364732 Eh     change       -0.4961750E-05 Eh
   gradient norm :     0.0006715 Eh/α   predicted    -0.5769449E-05 (  16.28%)
   displ. norm   :     0.0094449 α      lambda       -0.1094018E-05
   maximum displ.:     0.0062736 α      in ANC's #3, #2, #6, ...

   *** GEOMETRY OPTIMIZATION CONVERGED AFTER 76 ITERATIONS ***

------------------------------------------------------------------------
 total energy gain   :        -0.0206230 Eh      -12.9411 kcal/mol
 total RMSD          :         1.4647718 a0        0.7751 Å
 total power (kW/mol):        -0.7124427 (step)  -69.7966 (real)
------------------------------------------------------------------------

 ANCopt (total)                0 d,  0 h,  0 min,  0.776 sec
 optimizer setup                ...        0 min,  0.000 sec (  0.008%)
 model hessian                  ...        0 min,  0.010 sec (  1.337%)
 ANC generation                 ...        0 min,  0.001 sec (  0.120%)
 coordinate transformation      ...        0 min,  0.000 sec (  0.059%)
 single point calculation       ...        0 min,  0.748 sec ( 96.474%)
 optimization log               ...        0 min,  0.004 sec (  0.562%)
 hessian update                 ...        0 min,  0.001 sec (  0.152%)
 rational function              ...        0 min,  0.007 sec (  0.955%)

================
 final structure:
================
18
 xtb: 6.7.1 (edcfbbe)
Cl          -1.90207123265512        1.75894339107728       -1.61741587942703
C           -0.92313458069159        0.60313185682013       -0.79359481120342
C           -1.53875877510707       -0.55328400938004       -0.28008488280969
O           -2.83439072423712       -0.71510322987477       -0.53893071073661
C           -3.54265927766434       -1.72742147732348        0.15013142647515
C           -3.46270115577060       -1.56266031259321        1.76027782492863
O           -2.79993016173833       -0.60298569090971        2.14484812836882
O           -4.07456826639503       -2.44072860582390        2.36409372376465
C           -0.70651201692295       -1.47628757072443        0.36691977029928
C            0.64599486129071       -1.24894224801134        0.50710506113457
C            1.20845551527820       -0.09553884760244       -0.01312740905723
C            0.42882043730057        0.84249458450059       -0.66744739068197
Cl           2.91199074615884        0.18558182112182        0.14760955210061
H           -4.58194192163792       -1.62481214059262       -0.16538653274264
H           -3.18306262089154       -2.72640958958639       -0.12459660402184
H           -1.13878953458068       -2.36227940036791        0.79998865966780
H            1.26446411563058       -1.96694950344221        1.02360160929153
H            0.86097459263235        1.74494097271408       -1.07018153534928

 Bond Distances (Angstroems)
 ---------------------------
Cl1-C2=1.7242        C2-Cl1=1.7242        C2-C3=1.4071         C2-C12=1.3788        C3-C2=1.4071         C3-O4=1.3311         
C3-C9=1.4011         O4-C3=1.3311         O4-C5=1.4147         C5-O4=1.4147         C5-C6=1.6205         C5-H14=1.0910        
C5-H15=1.0967        C6-C5=1.6205         C6-O7=1.2281         C6-O8=1.2288         O7-C6=1.2281         O8-C6=1.2288         
C9-C3=1.4011         C9-C10=1.3786        C9-H16=1.0768        C10-C9=1.3786        C10-C11=1.3847       C10-H17=1.0793       
C11-C10=1.3847       C11-C12=1.3842       C11-Cl13=1.7340      C12-C2=1.3788        C12-C11=1.3842       C12-H18=1.0786       
Cl13-C11=1.7340      H14-C5=1.0910        H15-C5=1.0967        H16-C9=1.0768        H17-C10=1.0793       H18-C12=1.0786       
 C  H  Rav=1.0845 sigma=0.0079  Rmin=1.0768  Rmax=1.0967     5
 C  C  Rav=1.4221 sigma=0.0816  Rmin=1.3786  Rmax=1.6205     7
 O  C  Rav=1.3007 sigma=0.0780  Rmin=1.2281  Rmax=1.4147     4
 Cl C  Rav=1.7291 sigma=0.0049  Rmin=1.7242  Rmax=1.7340     2

 selected bond angles (degree)
 --------------------
C3-C2-Cl1=118.48               C12-C2-Cl1=118.95              C12-C2-C3=122.57               O4-C3-C2=117.05                
C9-C3-C2=116.75                C9-C3-O4=126.01                C5-O4-C3=118.66                C6-C5-O4=112.74                
H14-C5-O4=105.59               H14-C5-C6=108.95               H15-C5-O4=111.45               H15-C5-C6=108.99               
H15-C5-H14=109.00              O7-C6-C5=114.66                O8-C6-C5=113.02                O8-C6-O7=132.32                
C10-C9-C3=121.40               H16-C9-C3=119.30               H16-C9-C10=119.25              C11-C10-C9=119.85              
H17-C10-C9=120.08              H17-C10-C11=120.08             

 selected dihedral angles (degree)
 ---------------------------------
O4-C3-C2-Cl1=  3.98           O4-C3-C2-C12=184.24           C9-C3-C2-Cl1=179.18           C9-C3-C2-C12=359.44           
C5-O4-C3-C2=191.13            C5-O4-C3-C9= 16.43            C6-C5-O4-C3= 57.15            H14-C5-O4-C3=176.01           
H15-C5-O4-C3=294.22           O7-C6-C5-O4=359.47            O7-C6-C5-H14=242.59           O7-C6-C5-H15=123.76           
O8-C6-C5-O4=180.11            O8-C6-C5-H14= 63.23           O8-C6-C5-H15=304.40           C10-C9-C3-C2=  0.87           
C10-C9-C3-O4=175.59           H16-C9-C3-C2=178.27           H16-C9-C3-O4=352.99           C11-C10-C9-C3=359.17          
C11-C10-C9-H16=181.77         H17-C10-C9-C3=179.00          H17-C10-C9-H16=  1.59         
           -------------------------------------------------
          |                Final Singlepoint                |
           -------------------------------------------------

          ...................................................
          :                      SETUP                      :
          :.................................................:
          :  # basis functions                  69          :
          :  # atomic orbitals                  67          :
          :  # shells                           33          :
          :  # electrons                        70          :
          :  max. iterations                   250          :
          :  Hamiltonian                  GFN2-xTB          :
          :  restarted?                      false          :
          :  GBSA solvation                  false          :
          :  PC potential                    false          :
          :  electronic temp.          300.0000000     K    :
          :  accuracy                    1.0000000          :
          :  -> integral cutoff          0.2500000E+02      :
          :  -> integral neglect         0.1000000E-07      :
          :  -> SCF convergence          0.1000000E-05 Eh   :
          :  -> wf. convergence          0.1000000E-03 e    :
          :  Broyden damping             0.4000000          :
          :  net charge                         -1          :
          :  unpaired electrons                  0          :
          ...................................................

 iter      E             dE          RMSdq      gap      omega  full diag
   1    -41.6300125 -0.416300E+02  0.261E-04    1.92       0.0  T
   2    -41.6300125 -0.248193E-09  0.197E-04    1.92     119.6  T
   3    -41.6300125 -0.216112E-09  0.152E-04    1.92     155.1  T

   *** convergence criteria satisfied after 3 iterations ***

         #    Occupation            Energy/Eh            Energy/eV
      -------------------------------------------------------------
         1        2.0000           -0.9662380             -26.2927
       ...           ...                  ...                  ...
        29        2.0000           -0.3183205              -8.6619
        30        2.0000           -0.3138546              -8.5404
        31        2.0000           -0.3036402              -8.2625
        32        2.0000           -0.2762028              -7.5159
        33        2.0000           -0.2406043              -6.5472
        34        2.0000           -0.2278046              -6.1989
        35        2.0000           -0.2054893              -5.5916 (HOMO)
        36                         -0.1349535              -3.6723 (LUMO)
        37                         -0.1221859              -3.3248
        38                         -0.0590437              -1.6067
        39                         -0.0293826              -0.7995
        40                         -0.0088197              -0.2400
       ...                                ...                  ...
        67                          0.8879940              24.1635
      -------------------------------------------------------------
                  HL-Gap            0.0705358 Eh            1.9194 eV
             Fermi-level           -0.1702214 Eh           -4.6320 eV

 SCC (total)                   0 d,  0 h,  0 min,  0.006 sec
 SCC setup                      ...        0 min,  0.000 sec (  1.079%)
 Dispersion                     ...        0 min,  0.000 sec (  1.036%)
 classical contributions        ...        0 min,  0.000 sec (  0.170%)
 integral evaluation            ...        0 min,  0.001 sec ( 17.550%)
 iterations                     ...        0 min,  0.002 sec ( 37.297%)
 molecular gradient             ...        0 min,  0.002 sec ( 41.336%)
 printout                       ...        0 min,  0.000 sec (  1.272%)

         :::::::::::::::::::::::::::::::::::::::::::::::::::::
         ::                     SUMMARY                     ::
         :::::::::::::::::::::::::::::::::::::::::::::::::::::
         :: total energy             -41.236473190157 Eh    ::
         :: gradient norm              0.000668903686 Eh/a0 ::
         :: HOMO-LUMO gap              1.919375741616 eV    ::
         ::.................................................::
         :: SCC energy               -41.629941694766 Eh    ::
         :: -> isotropic ES            0.187388543816 Eh    ::
         :: -> anisotropic ES         -0.000703478833 Eh    ::
         :: -> anisotropic XC          0.000180198323 Eh    ::
         :: -> dispersion             -0.020685880164 Eh    ::
         :: repulsion energy           0.393468504609 Eh    ::
         :: add. restraining           0.000000000000 Eh    ::
         :: total charge              -1.000000000000 e     ::
         :::::::::::::::::::::::::::::::::::::::::::::::::::::

           -------------------------------------------------
          |                Property Printout                |
           -------------------------------------------------

    * Orbital Energies and Occupations

         #    Occupation            Energy/Eh            Energy/eV
      -------------------------------------------------------------
         1        2.0000           -0.9662380             -26.2927
       ...           ...                  ...                  ...
        23        2.0000           -0.3617246              -9.8430
        24        2.0000           -0.3477250              -9.4621
        25        2.0000           -0.3440913              -9.3632
        26        2.0000           -0.3316865              -9.0256
        27        2.0000           -0.3292638              -8.9597
        28        2.0000           -0.3265638              -8.8863
        29        2.0000           -0.3183205              -8.6619
        30        2.0000           -0.3138546              -8.5404
        31        2.0000           -0.3036402              -8.2625
        32        2.0000           -0.2762028              -7.5159
        33        2.0000           -0.2406043              -6.5472
        34        2.0000           -0.2278046              -6.1989
        35        2.0000           -0.2054893              -5.5916 (HOMO)
        36                         -0.1349535              -3.6723 (LUMO)
        37                         -0.1221859              -3.3248
        38                         -0.0590437              -1.6067
        39                         -0.0293826              -0.7995
        40                         -0.0088197              -0.2400
        41                         -0.0057761              -0.1572
        42                          0.1086884               2.9576
        43                          0.1129377               3.0732
        44                          0.1130631               3.0766
        45                          0.1210221               3.2932
        46                          0.1247858               3.3956
       ...                                ...                  ...
        67                          0.8879940              24.1635
      -------------------------------------------------------------
                  HL-Gap            0.0705358 Eh            1.9194 eV
             Fermi-level           -0.1702214 Eh           -4.6320 eV

     #   Z          covCN         q      C6AA      α(0)
     1  17 Cl       0.975    -0.179   104.779    15.660
     2   6 C        2.895     0.066    26.521     8.443
     3   6 C        2.901     0.165    24.452     8.108
     4   8 O        1.706    -0.238    17.942     5.719
     5   6 C        3.685     0.031    20.251     6.443
     6   6 C        2.670     0.370    20.737     7.451
     7   8 O        0.856    -0.552    24.976     6.700
     8   8 O        0.856    -0.567    25.326     6.747
     9   6 C        2.924    -0.053    29.312     8.879
    10   6 C        2.948    -0.046    29.135     8.853
    11   6 C        2.893     0.075    26.328     8.413
    12   6 C        2.994    -0.057    29.399     8.894
    13  17 Cl       0.964    -0.217   106.008    15.752
    14   1 H        0.924     0.028     2.613     2.528
    15   1 H        0.924     0.004     2.996     2.707
    16   1 H        0.926     0.065     2.146     2.291
    17   1 H        0.926     0.048     2.344     2.394
    18   1 H        0.926     0.059     2.214     2.327

 Mol. C6AA /au·bohr⁶  :       6880.774597
 Mol. C8AA /au·bohr⁸  :     194408.908368
 Mol. α(0) /au        :        128.309553


Wiberg/Mayer (AO) data.
largest (>0.10) Wiberg bond orders for each atom

 ---------------------------------------------------------------------------
     #   Z sym  total        # sym  WBO       # sym  WBO       # sym  WBO
 ---------------------------------------------------------------------------
     1  17 Cl   1.094 --     2 C    0.964
     2   6 C    3.907 --    12 C    1.434     3 C    1.285     1 Cl   0.964
     3   6 C    3.952 --     9 C    1.315     2 C    1.285     4 O    1.148
     4   8 O    2.309 --     3 C    1.148     5 C    0.947
     5   6 C    3.870 --    14 H    0.972    15 H    0.967     4 O    0.947
                             6 C    0.807
     6   6 C    3.948 --     7 O    1.560     8 O    1.552     5 C    0.807
     7   8 O    1.918 --     6 C    1.560     8 O    0.237
     8   8 O    1.877 --     6 C    1.552     7 O    0.237
     9   6 C    3.986 --    10 C    1.466     3 C    1.315    16 H    0.961
    10   6 C    3.989 --     9 C    1.466    11 C    1.386    17 H    0.968
    11   6 C    3.895 --    12 C    1.388    10 C    1.386    13 Cl   0.940
    12   6 C    3.985 --     2 C    1.434    11 C    1.388    18 H    0.966
    13  17 Cl   1.051 --    11 C    0.940
    14   1 H    0.999 --     5 C    0.972
    15   1 H    1.000 --     5 C    0.967
    16   1 H    0.996 --     9 C    0.961
    17   1 H    0.997 --    10 C    0.968
    18   1 H    0.996 --    12 C    0.966
 ---------------------------------------------------------------------------

Topologies differ in total number of bonds
Writing topology from bond orders to xtbtopo.mol

molecular dipole:
                 x           y           z       tot (Debye)
 q only:        4.741       1.380      -2.940
   full:        4.550       1.138      -2.964      14.103
molecular quadrupole (traceless):
                xx          xy          yy          xz          yz          zz
 q only:      -29.398     -21.139      20.975      30.045      16.809       8.423
  q+dip:      -28.772     -21.119      22.670      32.734      18.874       6.103
   full:      -28.421     -21.706      21.895      32.511      19.719       6.526

           -------------------------------------------------
          |                Geometry Summary                 |
           -------------------------------------------------

      molecular mass/u    :      220.0296809
   center of mass at/Å    :       -1.0050221      -0.2766373       0.1102087
  moments of inertia/u·Å² :        0.5599002E+03   0.1302001E+04   0.1729725E+04
rotational constants/cm⁻¹ :        0.3010828E-01   0.1294748E-01   0.9745845E-02

 * 17 selected distances

     #   Z          #   Z                                           value/Å
     1  17 Cl       2   6 C                                       1.7242097
     2   6 C        3   6 C                                       1.4071189
     3   6 C        4   8 O                                       1.3311082
     4   8 O        5   6 C                                       1.4146518
     6   6 C        7   8 O                                       1.2280616
     6   6 C        8   8 O                                       1.2288121
     3   6 C        9   6 C                                       1.4011373
     9   6 C       10   6 C                                       1.3786272
    10   6 C       11   6 C                                       1.3846818
     2   6 C       12   6 C                                       1.3787641
    11   6 C       12   6 C                                       1.3841505
    11   6 C       13  17 Cl                                      1.7340410 (max)
     5   6 C       14   1 H                                       1.0909578
     5   6 C       15   1 H                                       1.0967054
     9   6 C       16   1 H                                       1.0767517 (min)
    10   6 C       17   1 H                                       1.0792625
    12   6 C       18   1 H                                       1.0785925

 * 4 distinct bonds (by element types)

   Z      Z             #   av. dist./Å        max./Å        min./Å
   1 H    6 C           5     1.0844540     1.0967054     1.0767517
   6 C    6 C           6     1.3890800     1.4071189     1.3786272
   6 C    8 O           4     1.3006584     1.4146518     1.2280616
   6 C   17 Cl          2     1.7291253     1.7340410     1.7242097


optimized geometry written to: xtbopt.xyz


           -------------------------------------------------
          | TOTAL ENERGY              -41.236473190157 Eh   |
          | GRADIENT NORM               0.000668903686 Eh/α |
          | HOMO-LUMO GAP               1.919375741616 eV   |
           -------------------------------------------------

------------------------------------------------------------------------
 * finished run on 2024/12/20 at 01:52:22.010     
------------------------------------------------------------------------
 total:
 * wall-time:     0 d,  0 h,  0 min,  0.814 sec
 *  cpu-time:     0 d,  0 h,  0 min,  6.434 sec
 * ratio c/w:     7.900 speedup
 SCF:
 * wall-time:     0 d,  0 h,  0 min,  0.017 sec
 *  cpu-time:     0 d,  0 h,  0 min,  0.134 sec
 * ratio c/w:     7.943 speedup
 ANC optimizer:
 * wall-time:     0 d,  0 h,  0 min,  0.782 sec
 *  cpu-time:     0 d,  0 h,  0 min,  6.188 sec
 * ratio c/w:     7.913 speedup

