51
 energy: -65.935172135255 gnorm: 0.000393504169 xtb: 6.7.1 (edcfbbe)
C           -1.41092948215668        1.68632206081336       -0.49408100846820
C           -0.65479287487705        1.09884541136080       -1.68984543508020
C            0.83738841846661        1.29079568388557       -1.54216887205050
C            1.54002882363821        0.73247183436423       -0.53701533938465
C            2.92952656571676        0.94146858473789       -0.34626034993562
C            3.74567044437987        0.20155077542895        0.48665327403912
C            3.73256715272122       -1.22462963093244        0.15730014524212
C            4.38871985151331       -1.16546912328229       -1.29426633421893
C            4.30749539965919        0.15845932736141       -2.17376921477276
C            3.73170281801228        1.49645062873061       -1.45926676681817
C            2.94410439608382        2.51412987279836       -2.28927785436801
C            1.49900522910471        2.11715280322760       -2.60837471155860
C            5.74477269394521        0.53358158466485       -2.57286987043539
C            3.51556802943729       -0.14184396682983       -3.44933727320256
C            4.09187046936396       -1.29292547591330       -4.28224135364251
C            4.57990008183075       -2.45770122648659       -3.41563584352812
C            3.95172523179054       -2.44913107178514       -2.02407957955766
C            2.44563183566912       -2.70444892003294       -2.08950292812650
C            4.68713183331796       -3.65992218664934       -1.21623027567098
O            5.91194590753543       -3.52457649012397       -1.11981502857633
O            3.96201465785970       -4.56478833921088       -0.79942413674037
C           -1.00838978244795       -0.38009708131852       -1.86933398473090
H           -1.13503297936742        1.16817551374469        0.42062805448288
H           -2.48676871038245        1.58932710203920       -0.63548572713316
H           -1.16984663431241        2.74101390307193       -0.37487989369827
H           -0.98195252306505        1.63399424050711       -2.59061066559693
H            1.02522827361573        0.15927323304421        0.22394242587467
H            4.74082572665598        0.60941209228556        0.66308450580104
H            2.72958280726900       -1.63424300949473        0.09742153893202
H            4.34533302344832       -1.86810251139787        0.78588094703159
H            5.45861479245362       -1.31456412916162       -1.10715088897674
H            4.61525579662935        2.01330822972922       -1.07042721326159
H            3.47469171360831        2.76365107055492       -3.21176774735525
H            2.91444022178547        3.42551461215686       -1.68236308173324
H            1.45006373352927        1.57045109375275       -3.55556056669223
H            0.91345638484424        3.03383759402220       -2.75723396885562
H            6.23363988598467       -0.28515534426290       -3.09038996582277
H            5.74171011727983        1.40554287994547       -3.22900438097209
H            6.33899376711931        0.76911685234858       -1.69096064446530
H            3.49242169074414        0.74548868703911       -4.08686893774555
H            2.49435853858316       -0.38648864691380       -3.16875572000353
H            4.91111994500114       -0.92409260559731       -4.90610871750133
H            3.30800982619752       -1.63475375632442       -4.96484902072897
H            4.35515084266845       -3.41082542460591       -3.90155732570333
H            5.66348986075467       -2.41863010803139       -3.28443966831499
H            2.14009351818768       -2.97640072227236       -3.09904918785446
H            2.22611566679661       -3.55447420697940       -1.43835788773257
H            1.84886679673925       -1.85176245908685       -1.77183776986337
H           -2.07921660549565       -0.50192158308234       -2.02943911246187
H           -0.48143057785012       -0.79342558601351       -2.72629571308090
H           -0.72373259998904       -0.95159206590289       -0.99004092499255
