      -----------------------------------------------------------      
     |                   =====================                   |     
     |                           x T B                           |     
     |                   =====================                   |     
     |                         S. Grimme                         |     
     |          Mulliken Center for Theoretical Chemistry        |     
     |                    University of Bonn                     |     
      -----------------------------------------------------------      

   * xtb version 6.7.1 (edcfbbe) compiled by 'conda@3ef47c1a292c' on 2024-11-25

   xtb is free software: you can redistribute it and/or modify it under
   the terms of the GNU Lesser General Public License as published by
   the Free Software Foundation, either version 3 of the License, or
   (at your option) any later version.
   
   xtb is distributed in the hope that it will be useful,
   but WITHOUT ANY WARRANTY; without even the implied warranty of
   MERCHANTABILITY or FITNESS FOR A PARTICULAR PURPOSE.  See the
   GNU Lesser General Public License for more details.
   
   Cite this work as:
   * C. Bannwarth, E. Caldeweyher, S. Ehlert, A. Hansen, P. Pracht,
     J. Seibert, S. Spicher, S. Grimme, WIREs Comput. Mol. Sci., 2020, 11,
     e01493. DOI: 10.1002/wcms.1493
   
   for GFN2-xTB:
   * C. Bannwarth, S. Ehlert and S. Grimme., J. Chem. Theory Comput., 2019,
     15, 1652-1671. DOI: 10.1021/acs.jctc.8b01176
   for GFN1-xTB:
   * S. Grimme, C. Bannwarth, P. Shushkov, J. Chem. Theory Comput., 2017,
     13, 1989-2009. DOI: 10.1021/acs.jctc.7b00118
   for GFN0-xTB:
   * P. Pracht, E. Caldeweyher, S. Ehlert, S. Grimme, ChemRxiv, 2019, preprint.
     DOI: 10.26434/chemrxiv.8326202.v1
   for GFN-FF:
   * S. Spicher and S. Grimme, Angew. Chem. Int. Ed., 2020, 59, 15665-15673.
     DOI: 10.1002/anie.202004239
   
   for ALPB and GBSA implicit solvation:
   * S. Ehlert, M. Stahn, S. Spicher, S. Grimme, J. Chem. Theory Comput.,
     2021, 17, 4250-4261. DOI: 10.1021/acs.jctc.1c00471
   
   for ddCOSMO and CPCM-X implicit solvation:
   * M. Stahn, S. Ehlert, S. Grimme, J. Phys. Chem. A,
     2023, XX, XXXX-XXXX. DOI: 10.1021/acs.jpca.3c04382
   
   for DFT-D4:
   * E. Caldeweyher, C. Bannwarth and S. Grimme, J. Chem. Phys., 2017,
     147, 034112. DOI: 10.1063/1.4993215
   * E. Caldeweyher, S. Ehlert, A. Hansen, H. Neugebauer, S. Spicher,
     C. Bannwarth and S. Grimme, J. Chem. Phys., 2019, 150, 154122.
     DOI: 10.1063/1.5090222
   * E. Caldeweyher, J.-M. Mewes, S. Ehlert and S. Grimme, Phys. Chem. Chem. Phys.
     2020, 22, 8499-8512. DOI: 10.1039/D0CP00502A
   
   for sTDA-xTB:
   * S. Grimme and C. Bannwarth, J. Chem. Phys., 2016, 145, 054103.
     DOI: 10.1063/1.4959605
   
   in the mass-spec context:
   * V. Asgeirsson, C. Bauer and S. Grimme, Chem. Sci., 2017, 8, 4879.
     DOI: 10.1039/c7sc00601b
   * J. Koopman and S. Grimme, ACS Omega 2019, 4, 12, 15120-15133.
     DOI: 10.1021/acsomega.9b02011
   
   for metadynamics refer to:
   * S. Grimme, J. Chem. Theory Comput., 2019, 155, 2847-2862
     DOI: 10.1021/acs.jctc.9b00143
   
   for SPH calculations refer to:
   * S. Spicher and S. Grimme, J. Chem. Theory Comput., 2021, 17, 1701-1714
     DOI: 10.1021/acs.jctc.0c01306
   
   for ONIOM refer to:
   * C. Plett, A. Katbashev, S. Ehlert, S. Grimme, M. Bursch,
     Phys. Chem. Chem. Phys., 2023, 25, 17860-17868. DOI: 10.1039/D3CP02178E
   
   for DIPRO refer to:
   * J. Kohn, N. Gildemeister, S. Grimme, D. Fazzi, A. Hansen,
     J. Chem. Phys., 2023, just accepted.
   
   for PTB refer to:
   * S. Grimme, M. Mueller, A. Hansen, J. Chem. Phys., 2023, 158, 124111.
     DOI: 10.1063/5.0137838
   
   with help from (in alphabetical order)
   P. Atkinson, C. Bannwarth, F. Bohle, G. Brandenburg, E. Caldeweyher
   M. Checinski, S. Dohm, S. Ehlert, S. Ehrlich, I. Gerasimov, C. Hölzer
   A. Katbashev, J. Kohn, J. Koopman, C. Lavigne, S. Lehtola, F. März, M. Müller,
   F. Musil, H. Neugebauer, J. Pisarek, C. Plett, P. Pracht, F. Pultar,
   J. Seibert, P. Shushkov, S. Spicher, M. Stahn, M. Steiner, T. Strunk,
   J. Stückrath, T. Rose, and J. Unsleber
   
 * started run on 2024/12/20 at 01:52:23.196     
   ID    Z sym.   atoms
    1    6 C      1-19, 22
    2    8 O      20, 21
    3    1 H      23-51

           -------------------------------------------------
          |                Calculation Setup                |
           -------------------------------------------------

          program call               : xtb A015.xyz --opt --namespace A015 --charge -1
          calculation namespace      : A015
          coordinate file            : A015.xyz
          omp threads                :                     8


           -------------------------------------------------
          |                 G F N 2 - x T B                 |
           -------------------------------------------------

        Reference                      10.1021/acs.jctc.8b01176
      * Hamiltonian:
        H0-scaling (s, p, d)           1.850000    2.230000    2.230000
        zeta-weighting                 0.500000
      * Dispersion:
        s8                             2.700000
        a1                             0.520000
        a2                             5.000000
        s9                             5.000000
      * Repulsion:
        kExp                           1.500000    1.000000
        rExp                           1.000000
      * Coulomb:
        alpha                          2.000000
        third order                    shell-resolved
        anisotropic                    true
        a3                             3.000000
        a5                             4.000000
        cn-shift                       1.200000
        cn-exp                         4.000000
        max-rad                        5.000000


          ...................................................
          :                      SETUP                      :
          :.................................................:
          :  # basis functions                 117          :
          :  # atomic orbitals                 117          :
          :  # shells                           73          :
          :  # electrons                       122          :
          :  max. iterations                   250          :
          :  Hamiltonian                  GFN2-xTB          :
          :  restarted?                      false          :
          :  GBSA solvation                  false          :
          :  PC potential                    false          :
          :  electronic temp.          300.0000000     K    :
          :  accuracy                    1.0000000          :
          :  -> integral cutoff          0.2500000E+02      :
          :  -> integral neglect         0.1000000E-07      :
          :  -> SCF convergence          0.1000000E-05 Eh   :
          :  -> wf. convergence          0.1000000E-03 e    :
          :  Broyden damping             0.4000000          :
          :  net charge                         -1          :
          :  unpaired electrons                  0          :
          ...................................................

 iter      E             dE          RMSdq      gap      omega  full diag
   1    -66.5002926 -0.665003E+02  0.354E+00    0.89       0.0  T
   2    -66.2984978  0.201795E+00  0.325E+00    1.68       1.0  T
   3    -66.5632302 -0.264732E+00  0.230E+00    0.47       1.0  T
   4    -65.9946753  0.568555E+00  0.237E+00    0.28       1.0  T
   5    -66.7092976 -0.714622E+00  0.106E+00    0.57       1.0  T
   6    -66.7319284 -0.226308E-01  0.604E-01    0.59       1.0  T
   7    -66.7245502  0.737821E-02  0.706E-01    0.57       1.0  T
   8    -66.7398575 -0.153073E-01  0.380E-01    0.56       1.0  T
   9    -66.7434063 -0.354877E-02  0.289E-01    0.56       1.0  T
  10    -66.7438366 -0.430316E-03  0.271E-01    0.56       1.0  T
  11    -66.7459986 -0.216193E-02  0.173E-01    0.52       1.0  T
  12    -66.7472648 -0.126622E-02  0.102E-01    0.33       1.0  T
  13    -66.7479562 -0.691404E-03  0.535E-02    0.17       1.0  T
  14    -66.7476478  0.308425E-03  0.752E-02    0.16       1.0  T
  15    -66.7240078  0.236399E-01  0.456E-01    0.09       1.0  T
  16    -66.7482311 -0.242233E-01  0.130E-02    0.21       1.1  T
  17    -66.7482400 -0.889203E-05  0.820E-03    0.21       1.7  T
  18    -66.7482186  0.213739E-04  0.161E-02    0.21       1.0  T
  19    -66.7482315 -0.128870E-04  0.119E-02    0.21       1.2  T
  20    -66.7482395 -0.794873E-05  0.836E-03    0.21       1.7  T
  21    -66.7482444 -0.492218E-05  0.505E-03    0.20       2.8  T
  22    -66.7482469 -0.248533E-05  0.171E-03    0.20       8.2  T
  23    -66.7482472 -0.324800E-06  0.155E-04    0.20      90.3  T
  24    -66.7482472 -0.708994E-09  0.132E-04    0.20     106.3  T

   *** convergence criteria satisfied after 24 iterations ***

         #    Occupation            Energy/Eh            Energy/eV
      -------------------------------------------------------------
         1        2.0000           -0.5467247             -14.8771
       ...           ...                  ...                  ...
        55        2.0000           -0.2868882              -7.8066
        56        2.0000           -0.2850303              -7.7561
        57        2.0000           -0.2778927              -7.5618
        58        2.0000           -0.2140071              -5.8234
        59        2.0000           -0.2004005              -5.4532
        60        2.0000           -0.1990940              -5.4176
        61        1.9588           -0.1854417              -5.0461 (HOMO)
        62        0.0412           -0.1781048              -4.8465 (LUMO)
        63                         -0.0610979              -1.6626
        64                         -0.0044359              -0.1207
        65                          0.0949870               2.5847
        66                          0.1238259               3.3695
       ...                                ...                  ...
       117                          0.7675703              20.8867
      -------------------------------------------------------------
                  HL-Gap            0.0073369 Eh            0.1996 eV
             Fermi-level           -0.1817732 Eh           -4.9463 eV

 SCC (total)                   0 d,  0 h,  0 min,  0.064 sec
 SCC setup                      ...        0 min,  0.000 sec (  0.257%)
 Dispersion                     ...        0 min,  0.001 sec (  1.188%)
 classical contributions        ...        0 min,  0.000 sec (  0.116%)
 integral evaluation            ...        0 min,  0.003 sec (  4.491%)
 iterations                     ...        0 min,  0.051 sec ( 79.891%)
 molecular gradient             ...        0 min,  0.009 sec ( 13.834%)
 printout                       ...        0 min,  0.000 sec (  0.195%)

         :::::::::::::::::::::::::::::::::::::::::::::::::::::
         ::                     SUMMARY                     ::
         :::::::::::::::::::::::::::::::::::::::::::::::::::::
         :: total energy             -65.885791845061 Eh    ::
         :: gradient norm              0.159978710087 Eh/a0 ::
         :: HOMO-LUMO gap              0.199646355143 eV    ::
         ::.................................................::
         :: SCC energy               -66.746668041839 Eh    ::
         :: -> isotropic ES            0.187379331994 Eh    ::
         :: -> anisotropic ES          0.022155845096 Eh    ::
         :: -> anisotropic XC          0.025088182882 Eh    ::
         :: -> dispersion             -0.057993417799 Eh    ::
         :: repulsion energy           0.860876196778 Eh    ::
         :: add. restraining           0.000000000000 Eh    ::
         :: total charge              -1.000000000000 e     ::
         :::::::::::::::::::::::::::::::::::::::::::::::::::::

      ----------------------------------------------------------- 
     |                   =====================                   |
     |                        A N C O P T                        |
     |                   =====================                   |
     |               Approximate Normal Coordinate               |
     |                Rational Function Optimizer                |
      ----------------------------------------------------------- 
      ----------------------------------------------------------- 
     |                   =====================                   |
     |                        A N C O P T                        |
     |                   =====================                   |
     |               Approximate Normal Coordinate               |
     |                Rational Function Optimizer                |
      ----------------------------------------------------------- 

          ...................................................
          :                      SETUP                      :
          :.................................................:
          :   optimization level            normal          :
          :   max. optcycles                   200          :
          :   ANC micro-cycles                  20          :
          :   degrees of freedom               147          :
          :.................................................:
          :   RF solver                   davidson          :
          :   write xtbopt.log                true          :
          :   linear?                        false          :
          :   energy convergence         0.5000000E-05 Eh   :
          :   grad. convergence          0.1000000E-02 Eh/α :
          :   maxmium RF displ.          1.0000000          :
          :   Hlow (freq-cutoff)         0.1000000E-01      :
          :   Hmax (freq-cutoff)         5.0000000          :
          :   S6 in model hess.         20.0000000          :
          ...................................................

generating ANC from exact Hessian ...
Using Lindh-Hessian (1995)
 Shifting diagonal of input Hessian by    9.7123501257758357E-003
 Lowest  eigenvalues of input Hessian
    0.000000    0.000000    0.000000    0.000000    0.000000    0.000000
    0.010000    0.010215    0.010759    0.011748    0.012387    0.012854
    0.013345    0.014528    0.014668    0.015447    0.016308    0.016839
 Highest eigenvalues
    1.331402    1.588312    1.594281    1.680487    1.948160    2.241815


........................................................................
.............................. CYCLE    1 ..............................
........................................................................

 iter      E             dE          RMSdq      gap      omega  full diag
   1    -66.7482472 -0.667482E+02  0.428E-06    0.20       0.0  T
   2    -66.7482472  0.348450E-10  0.191E-05    0.20     733.6  T
   3    -66.7482472 -0.359819E-10  0.371E-06    0.20    3776.9  T
     SCC iter.                  ...        0 min,  0.007 sec
     gradient                   ...        0 min,  0.009 sec
 * total energy  :   -65.8857918 Eh     change       -0.1894051E-08 Eh
   gradient norm :     0.1599741 Eh/α   predicted     0.0000000E+00 (-100.00%)
   displ. norm   :     0.5152648 α      lambda       -0.4082897E-01
   maximum displ.:     0.2001547 α      in ANC's #25, #59, #21, ...

........................................................................
.............................. CYCLE    2 ..............................
........................................................................

 iter      E             dE          RMSdq      gap      omega  full diag
   1    -66.7706989 -0.667707E+02  0.668E-01    0.37       0.0  T
   2    -66.6779170  0.927819E-01  0.143E+00    0.21       1.0  T
   3    -66.7795210 -0.101604E+00  0.351E-01    0.24       1.0  T
   4    -66.7827049 -0.318389E-02  0.123E-01    0.40       1.0  T
   5    -66.7834582 -0.753309E-03  0.231E-02    0.27       1.0  T
   6    -66.7834656 -0.740294E-05  0.122E-02    0.26       1.2  T
   7    -66.7834677 -0.206964E-05  0.599E-03    0.26       2.3  T
   8    -66.7834684 -0.704105E-06  0.317E-03    0.27       4.4  T
   9    -66.7834689 -0.538611E-06  0.123E-03    0.26      11.4  T
  10    -66.7834691 -0.141204E-06  0.428E-04    0.26      32.7  T
  11    -66.7834691 -0.620346E-08  0.152E-04    0.26      92.2  T
     SCC iter.                  ...        0 min,  0.021 sec
     gradient                   ...        0 min,  0.009 sec
 * total energy  :   -65.9136432 Eh     change       -0.2785134E-01 Eh
   gradient norm :     0.0598999 Eh/α   predicted    -0.2589057E-01 (  -7.04%)
   displ. norm   :     0.5051107 α      lambda       -0.1448393E-01
   maximum displ.:     0.2034910 α      in ANC's #21, #25, #9, ...

........................................................................
.............................. CYCLE    3 ..............................
........................................................................

 iter      E             dE          RMSdq      gap      omega  full diag
   1    -66.8042767 -0.668043E+02  0.434E-01    0.42       0.0  T
   2    -66.7613491  0.429276E-01  0.943E-01    0.33       1.0  T
   3    -66.8078762 -0.465272E-01  0.239E-01    0.36       1.0  T
   4    -66.8095480 -0.167182E-02  0.564E-02    0.42       1.0  T
   5    -66.8096713 -0.123309E-03  0.963E-03    0.37       1.5  T
   6    -66.8096727 -0.134273E-05  0.598E-03    0.37       2.3  T
   7    -66.8096733 -0.608429E-06  0.234E-03    0.37       6.0  T
   8    -66.8096734 -0.137853E-06  0.699E-04    0.37      20.0  T
   9    -66.8096735 -0.125674E-07  0.425E-04    0.37      33.0  T
     SCC iter.                  ...        0 min,  0.018 sec
     gradient                   ...        0 min,  0.009 sec
 * total energy  :   -65.9228318 Eh     change       -0.9188584E-02 Eh
   gradient norm :     0.0338527 Eh/α   predicted    -0.9089697E-02 (  -1.08%)
   displ. norm   :     0.4833401 α      lambda       -0.7154697E-02
   maximum displ.:     0.2269492 α      in ANC's #21, #7, #9, ...

........................................................................
.............................. CYCLE    4 ..............................
........................................................................

 iter      E             dE          RMSdq      gap      omega  full diag
   1    -66.8190793 -0.668191E+02  0.282E-01    0.53       0.0  T
   2    -66.8081589  0.109205E-01  0.485E-01    0.48       1.0  T
   3    -66.8198567 -0.116979E-01  0.170E-01    0.51       1.0  T
   4    -66.8206344 -0.777669E-03  0.311E-02    0.52       1.0  T
   5    -66.8206777 -0.432872E-04  0.704E-03    0.51       2.0  T
   6    -66.8206791 -0.136326E-05  0.363E-03    0.51       3.9  T
   7    -66.8206793 -0.216399E-06  0.118E-03    0.51      11.9  T
   8    -66.8206793 -0.293482E-07  0.363E-04    0.51      38.6  T
   9    -66.8206793 -0.544205E-09  0.208E-04    0.51      67.2  T
     SCC iter.                  ...        0 min,  0.018 sec
     gradient                   ...        0 min,  0.009 sec
 * total energy  :   -65.9248601 Eh     change       -0.2028299E-02 Eh
   gradient norm :     0.0413733 Eh/α   predicted    -0.4413169E-02 ( 117.58%)
   displ. norm   :     0.2984561 α      lambda       -0.4949211E-02
   maximum displ.:     0.1199566 α      in ANC's #7, #9, #60, ...

........................................................................
.............................. CYCLE    5 ..............................
........................................................................

 iter      E             dE          RMSdq      gap      omega  full diag
   1    -66.8272375 -0.668272E+02  0.127E-01    0.59       0.0  T
   2    -66.8268320  0.405452E-03  0.120E-01    0.56       1.0  T
   3    -66.8268765 -0.444969E-04  0.107E-01    0.57       1.0  T
   4    -66.8273202 -0.443714E-03  0.207E-02    0.58       1.0  T
   5    -66.8273395 -0.192463E-04  0.438E-03    0.57       3.2  T
   6    -66.8273402 -0.736650E-06  0.171E-03    0.57       8.2  T
   7    -66.8273403 -0.425265E-07  0.755E-04    0.57      18.5  T
   8    -66.8273403 -0.851489E-08  0.176E-04    0.57      79.4  T
     SCC iter.                  ...        0 min,  0.016 sec
     gradient                   ...        0 min,  0.009 sec
 * total energy  :   -65.9277232 Eh     change       -0.2863108E-02 Eh
   gradient norm :     0.0189818 Eh/α   predicted    -0.2695061E-02 (  -5.87%)
   displ. norm   :     0.2538307 α      lambda       -0.1063547E-02
   maximum displ.:     0.1083477 α      in ANC's #7, #1, #6, ...

........................................................................
.............................. CYCLE    6 ..............................
........................................................................

 iter      E             dE          RMSdq      gap      omega  full diag
   1    -66.8290757 -0.668291E+02  0.489E-02    0.63       0.0  T
   2    -66.8290800 -0.422615E-05  0.293E-02    0.61       1.0  T
   3    -66.8290660  0.139508E-04  0.206E-02    0.61       1.0  T
   4    -66.8290710 -0.498167E-05  0.152E-02    0.61       1.0  T
   5    -66.8290830 -0.120470E-04  0.191E-03    0.61       7.3  T
   6    -66.8290832 -0.138301E-06  0.830E-04    0.61      16.9  T
   7    -66.8290832 -0.131606E-07  0.287E-04    0.61      48.7  T
     SCC iter.                  ...        0 min,  0.014 sec
     gradient                   ...        0 min,  0.009 sec
 * total energy  :   -65.9285066 Eh     change       -0.7833759E-03 Eh
   gradient norm :     0.0074947 Eh/α   predicted    -0.5660427E-03 ( -27.74%)
   displ. norm   :     0.3337159 α      lambda       -0.7453510E-03
   maximum displ.:     0.1629260 α      in ANC's #1, #6, #7, ...

........................................................................
.............................. CYCLE    7 ..............................
........................................................................

 iter      E             dE          RMSdq      gap      omega  full diag
   1    -66.8314170 -0.668314E+02  0.527E-02    0.66       0.0  T
   2    -66.8313765  0.404623E-04  0.451E-02    0.65       1.0  T
   3    -66.8313691  0.743062E-05  0.401E-02    0.66       1.0  T
   4    -66.8314246 -0.554757E-04  0.130E-02    0.66       1.1  T
   5    -66.8314334 -0.879856E-05  0.188E-03    0.65       7.5  T
   6    -66.8314335 -0.117420E-06  0.761E-04    0.65      18.4  T
   7    -66.8314335 -0.629048E-08  0.226E-04    0.65      62.1  T
     SCC iter.                  ...        0 min,  0.014 sec
     gradient                   ...        0 min,  0.009 sec
 * total energy  :   -65.9290079 Eh     change       -0.5012983E-03 Eh
   gradient norm :     0.0074362 Eh/α   predicted    -0.4141814E-03 ( -17.38%)
   displ. norm   :     0.2646655 α      lambda       -0.3425265E-03
   maximum displ.:     0.1583757 α      in ANC's #1, #6, #3, ...

........................................................................
.............................. CYCLE    8 ..............................
........................................................................

 iter      E             dE          RMSdq      gap      omega  full diag
   1    -66.8323963 -0.668324E+02  0.368E-02    0.67       0.0  T
   2    -66.8323741  0.221675E-04  0.315E-02    0.67       1.0  T
   3    -66.8323701  0.399814E-05  0.288E-02    0.67       1.0  T
   4    -66.8324013 -0.311703E-04  0.537E-03    0.67       2.6  T
   5    -66.8324029 -0.160354E-05  0.993E-04    0.67      14.1  T
   6    -66.8324029 -0.265084E-07  0.444E-04    0.67      31.5  T
   7    -66.8324029 -0.142272E-08  0.110E-04    0.67     127.5  T
     SCC iter.                  ...        0 min,  0.016 sec
     gradient                   ...        0 min,  0.009 sec
 * total energy  :   -65.9292855 Eh     change       -0.2776367E-03 Eh
   gradient norm :     0.0089840 Eh/α   predicted    -0.1832734E-03 ( -33.99%)
   displ. norm   :     0.3539544 α      lambda       -0.4350808E-03
   maximum displ.:     0.2201517 α      in ANC's #1, #3, #6, ...

........................................................................
.............................. CYCLE    9 ..............................
........................................................................

 iter      E             dE          RMSdq      gap      omega  full diag
   1    -66.8326568 -0.668327E+02  0.491E-02    0.67       0.0  T
   2    -66.8326451  0.117069E-04  0.341E-02    0.67       1.0  T
   3    -66.8325512  0.938555E-04  0.475E-02    0.67       1.0  T
   4    -66.8326605 -0.109303E-03  0.367E-03    0.67       3.8  T
   5    -66.8326613 -0.754054E-06  0.842E-04    0.67      16.6  T
   6    -66.8326613 -0.322089E-08  0.399E-04    0.67      35.1  T
     SCC iter.                  ...        0 min,  0.012 sec
     gradient                   ...        0 min,  0.009 sec
 * total energy  :   -65.9296461 Eh     change       -0.3606406E-03 Eh
   gradient norm :     0.0072886 Eh/α   predicted    -0.2447964E-03 ( -32.12%)
   displ. norm   :     0.4348114 α      lambda       -0.4708199E-03
   maximum displ.:     0.2771040 α      in ANC's #1, #3, #2, ...

........................................................................
.............................. CYCLE   10 ..............................
........................................................................

 iter      E             dE          RMSdq      gap      omega  full diag
   1    -66.8320059 -0.668320E+02  0.615E-02    0.66       0.0  T
   2    -66.8320074 -0.150501E-05  0.365E-02    0.66       1.0  T
   3    -66.8319758  0.315462E-04  0.251E-02    0.66       1.0  T
   4    -66.8320039 -0.281112E-04  0.986E-03    0.66       1.4  T
   5    -66.8320089 -0.499093E-05  0.157E-03    0.66       8.9  T
   6    -66.8320090 -0.722349E-07  0.753E-04    0.66      18.6  T
   7    -66.8320090 -0.729284E-08  0.230E-04    0.66      60.8  T
     SCC iter.                  ...        0 min,  0.014 sec
     gradient                   ...        0 min,  0.009 sec
 * total energy  :   -65.9300291 Eh     change       -0.3829320E-03 Eh
   gradient norm :     0.0054431 Eh/α   predicted    -0.2799185E-03 ( -26.90%)
   displ. norm   :     0.4505879 α      lambda       -0.4094752E-03
   maximum displ.:     0.2925074 α      in ANC's #1, #3, #2, ...

........................................................................
.............................. CYCLE   11 ..............................
........................................................................

 iter      E             dE          RMSdq      gap      omega  full diag
   1    -66.8315861 -0.668316E+02  0.650E-02    0.64       0.0  T
   2    -66.8315309  0.552103E-04  0.504E-02    0.65       1.0  T
   3    -66.8314396  0.913103E-04  0.613E-02    0.65       1.0  T
   4    -66.8315994 -0.159816E-03  0.658E-03    0.65       2.1  T
   5    -66.8316016 -0.217641E-05  0.154E-03    0.65       9.1  T
   6    -66.8316017 -0.669253E-07  0.747E-04    0.65      18.8  T
   7    -66.8316017 -0.577245E-08  0.224E-04    0.65      62.4  T
     SCC iter.                  ...        0 min,  0.014 sec
     gradient                   ...        0 min,  0.009 sec
 * total energy  :   -65.9303642 Eh     change       -0.3351231E-03 Eh
   gradient norm :     0.0059828 Eh/α   predicted    -0.2463071E-03 ( -26.50%)
   displ. norm   :     0.4437597 α      lambda       -0.3661939E-03
   maximum displ.:     0.2910054 α      in ANC's #1, #3, #2, ...

........................................................................
.............................. CYCLE   12 ..............................
........................................................................

 iter      E             dE          RMSdq      gap      omega  full diag
   1    -66.8320040 -0.668320E+02  0.637E-02    0.64       0.0  T
   2    -66.8318621  0.141865E-03  0.650E-02    0.64       1.0  T
   3    -66.8319614 -0.992693E-04  0.471E-02    0.64       1.0  T
   4    -66.8320351 -0.737013E-04  0.578E-03    0.64       2.4  T
   5    -66.8320367 -0.167054E-05  0.140E-03    0.64      10.0  T
   6    -66.8320368 -0.561560E-07  0.666E-04    0.64      21.0  T
   7    -66.8320368 -0.463859E-08  0.209E-04    0.64      67.0  T
     SCC iter.                  ...        0 min,  0.014 sec
     gradient                   ...        0 min,  0.009 sec
 * total energy  :   -65.9306710 Eh     change       -0.3068565E-03 Eh
   gradient norm :     0.0066688 Eh/α   predicted    -0.2191543E-03 ( -28.58%)
   displ. norm   :     0.4693375 α      lambda       -0.3695082E-03
   maximum displ.:     0.3073298 α      in ANC's #1, #3, #2, ...

........................................................................
.............................. CYCLE   13 ..............................
........................................................................

 iter      E             dE          RMSdq      gap      omega  full diag
   1    -66.8328005 -0.668328E+02  0.643E-02    0.64       0.0  T
   2    -66.8326142  0.186328E-03  0.719E-02    0.64       1.0  T
   3    -66.8327856 -0.171399E-03  0.435E-02    0.64       1.0  T
   4    -66.8328420 -0.563769E-04  0.378E-03    0.64       3.7  T
   5    -66.8328427 -0.696935E-06  0.128E-03    0.64      10.9  T
   6    -66.8328427 -0.437066E-07  0.650E-04    0.64      21.6  T
   7    -66.8328427 -0.606130E-08  0.231E-04    0.64      60.6  T
     SCC iter.                  ...        0 min,  0.014 sec
     gradient                   ...        0 min,  0.009 sec
 * total energy  :   -65.9309830 Eh     change       -0.3119625E-03 Eh
   gradient norm :     0.0064162 Eh/α   predicted    -0.2254527E-03 ( -27.73%)
   displ. norm   :     0.5075961 α      lambda       -0.3733553E-03
   maximum displ.:     0.3316818 α      in ANC's #1, #3, #2, ...

........................................................................
.............................. CYCLE   14 ..............................
........................................................................

 iter      E             dE          RMSdq      gap      omega  full diag
   1    -66.8336012 -0.668336E+02  0.623E-02    0.65       0.0  T
   2    -66.8334986  0.102575E-03  0.590E-02    0.65       1.0  T
   3    -66.8335445 -0.459065E-04  0.476E-02    0.64       1.0  T
   4    -66.8336256 -0.810885E-04  0.343E-03    0.65       4.1  T
   5    -66.8336262 -0.644782E-06  0.103E-03    0.65      13.5  T
   6    -66.8336262 -0.167266E-07  0.612E-04    0.65      22.9  T
   7    -66.8336262 -0.549625E-08  0.229E-04    0.65      61.0  T
     SCC iter.                  ...        0 min,  0.017 sec
     gradient                   ...        0 min,  0.009 sec
 * total energy  :   -65.9312927 Eh     change       -0.3097272E-03 Eh
   gradient norm :     0.0056831 Eh/α   predicted    -0.2347778E-03 ( -24.20%)
   displ. norm   :     0.5220193 α      lambda       -0.3322777E-03
   maximum displ.:     0.3422475 α      in ANC's #1, #3, #2, ...

........................................................................
.............................. CYCLE   15 ..............................
........................................................................

 iter      E             dE          RMSdq      gap      omega  full diag
   1    -66.8338361 -0.668338E+02  0.578E-02    0.66       0.0  T
   2    -66.8338257  0.103649E-04  0.378E-02    0.66       1.0  T
   3    -66.8336599  0.165874E-03  0.593E-02    0.66       1.0  T
   4    -66.8338400 -0.180178E-03  0.597E-03    0.66       2.3  T
   5    -66.8338418 -0.176996E-05  0.146E-03    0.66       9.6  T
   6    -66.8338419 -0.745672E-07  0.603E-04    0.66      23.2  T
   7    -66.8338419 -0.208779E-08  0.211E-04    0.66      66.5  T
     SCC iter.                  ...        0 min,  0.014 sec
     gradient                   ...        0 min,  0.009 sec
 * total energy  :   -65.9315620 Eh     change       -0.2692461E-03 Eh
   gradient norm :     0.0052245 Eh/α   predicted    -0.2114149E-03 ( -21.48%)
   displ. norm   :     0.4897488 α      lambda       -0.2695001E-03
   maximum displ.:     0.3260582 α      in ANC's #1, #3, #2, ...

........................................................................
.............................. CYCLE   16 ..............................
........................................................................

 iter      E             dE          RMSdq      gap      omega  full diag
   1    -66.8347064 -0.668347E+02  0.543E-02    0.68       0.0  T
   2    -66.8346972  0.914973E-05  0.349E-02    0.67       1.0  T
   3    -66.8346023  0.949607E-04  0.491E-02    0.68       1.0  T
   4    -66.8347060 -0.103761E-03  0.105E-02    0.68       1.3  T
   5    -66.8347125 -0.644094E-05  0.130E-03    0.68      10.7  T
   6    -66.8347125 -0.572587E-07  0.535E-04    0.68      26.2  T
   7    -66.8347125 -0.681808E-09  0.191E-04    0.68      73.2  T
     SCC iter.                  ...        0 min,  0.014 sec
     gradient                   ...        0 min,  0.009 sec
 * total energy  :   -65.9317749 Eh     change       -0.2129736E-03 Eh
   gradient norm :     0.0053216 Eh/α   predicted    -0.1670742E-03 ( -21.55%)
   displ. norm   :     0.4707621 α      lambda       -0.2170239E-03
   maximum displ.:     0.3195195 α      in ANC's #1, #3, #2, ...

........................................................................
.............................. CYCLE   17 ..............................
........................................................................

 iter      E             dE          RMSdq      gap      omega  full diag
   1    -66.8338732 -0.668339E+02  0.519E-02    0.69       0.0  T
   2    -66.8338337  0.395452E-04  0.420E-02    0.69       1.0  T
   3    -66.8338156  0.180421E-04  0.424E-02    0.69       1.0  T
   4    -66.8338816 -0.659211E-04  0.907E-03    0.69       1.5  T
   5    -66.8338863 -0.471253E-05  0.133E-03    0.69      10.5  T
   6    -66.8338863 -0.639280E-07  0.537E-04    0.69      26.1  T
   7    -66.8338863 -0.120336E-08  0.119E-04    0.69     117.8  T
     SCC iter.                  ...        0 min,  0.014 sec
     gradient                   ...        0 min,  0.009 sec
 * total energy  :   -65.9319397 Eh     change       -0.1647172E-03 Eh
   gradient norm :     0.0046757 Eh/α   predicted    -0.1325638E-03 ( -19.52%)
   displ. norm   :     0.4297956 α      lambda       -0.2076466E-03
   maximum displ.:     0.3012606 α      in ANC's #1, #3, #2, ...

........................................................................
.............................. CYCLE   18 ..............................
........................................................................

 iter      E             dE          RMSdq      gap      omega  full diag
   1    -66.8373351 -0.668373E+02  0.482E-02    0.69       0.0  T
   2    -66.8372938  0.413685E-04  0.403E-02    0.69       1.0  T
   3    -66.8372929  0.897315E-06  0.389E-02    0.69       1.0  T
   4    -66.8373453 -0.523901E-04  0.876E-03    0.69       1.6  T
   5    -66.8373496 -0.429189E-05  0.120E-03    0.69      11.7  T
   6    -66.8373496 -0.380176E-07  0.521E-04    0.69      26.9  T
   7    -66.8373496 -0.993339E-10  0.214E-04    0.69      65.5  T
     SCC iter.                  ...        0 min,  0.014 sec
     gradient                   ...        0 min,  0.009 sec
 * total energy  :   -65.9320714 Eh     change       -0.1317444E-03 Eh
   gradient norm :     0.0058001 Eh/α   predicted    -0.1230027E-03 (  -6.64%)
   displ. norm   :     0.3983754 α      lambda       -0.1507675E-03
   maximum displ.:     0.2830336 α      in ANC's #1, #3, #2, ...

........................................................................
.............................. CYCLE   19 ..............................
........................................................................

 iter      E             dE          RMSdq      gap      omega  full diag
   1    -66.8350466 -0.668350E+02  0.424E-02    0.70       0.0  T
   2    -66.8350420  0.455546E-05  0.275E-02    0.70       1.0  T
   3    -66.8349787  0.632834E-04  0.386E-02    0.70       1.0  T
   4    -66.8350482 -0.694951E-04  0.573E-03    0.69       2.4  T
   5    -66.8350501 -0.185253E-05  0.986E-04    0.70      14.2  T
   6    -66.8350501 -0.284855E-07  0.503E-04    0.70      27.8  T
   7    -66.8350501 -0.323682E-08  0.206E-04    0.70      68.1  T
     SCC iter.                  ...        0 min,  0.014 sec
     gradient                   ...        0 min,  0.009 sec
 * total energy  :   -65.9321859 Eh     change       -0.1145285E-03 Eh
   gradient norm :     0.0043537 Eh/α   predicted    -0.8735111E-04 ( -23.73%)
   displ. norm   :     0.3286332 α      lambda       -0.1438378E-03
   maximum displ.:     0.2434140 α      in ANC's #1, #3, #2, ...

........................................................................
.............................. CYCLE   20 ..............................
........................................................................

 iter      E             dE          RMSdq      gap      omega  full diag
   1    -66.8360769 -0.668361E+02  0.318E-02    0.69       0.0  T
   2    -66.8360709  0.600520E-05  0.222E-02    0.69       1.0  T
   3    -66.8360348  0.360634E-04  0.308E-02    0.69       1.0  T
   4    -66.8360794 -0.445403E-04  0.181E-03    0.69       7.7  T
   5    -66.8360795 -0.117967E-06  0.695E-04    0.69      20.1  T
   6    -66.8360795 -0.120652E-07  0.361E-04    0.69      38.8  T
     SCC iter.                  ...        0 min,  0.012 sec
     gradient                   ...        0 min,  0.009 sec
 * total energy  :   -65.9322924 Eh     change       -0.1064602E-03 Eh
   gradient norm :     0.0038421 Eh/α   predicted    -0.7968914E-04 ( -25.15%)
   displ. norm   :     0.4985293 α      lambda       -0.1756630E-03
   maximum displ.:     0.3699358 α      in ANC's #1, #3, #2, ...
 * RMSD in coord.:     0.9297895 α      energy gain  -0.4650055E-01 Eh

generating ANC from exact Hessian ...
Using Lindh-Hessian (1995)
 Shifting diagonal of input Hessian by    9.7397235072836531E-003
 Lowest  eigenvalues of input Hessian
    0.000000    0.000000    0.000000    0.000000    0.000000    0.000000
    0.010000    0.010152    0.010677    0.011067    0.012281    0.012845
    0.013481    0.014061    0.015414    0.015705    0.016803    0.017134
 Highest eigenvalues
    1.392065    1.602153    1.635563    1.674192    1.972429    2.407701


........................................................................
.............................. CYCLE   21 ..............................
........................................................................

 iter      E             dE          RMSdq      gap      omega  full diag
   1    -66.8345328 -0.668345E+02  0.540E-02    0.69       0.0  T
   2    -66.8344583  0.745194E-04  0.505E-02    0.69       1.0  T
   3    -66.8344963 -0.379749E-04  0.404E-02    0.68       1.0  T
   4    -66.8345525 -0.562116E-04  0.397E-03    0.68       3.5  T
   5    -66.8345532 -0.727907E-06  0.116E-03    0.68      12.1  T
   6    -66.8345532 -0.409345E-07  0.553E-04    0.68      25.3  T
   7    -66.8345533 -0.513923E-08  0.211E-04    0.68      66.5  T
     SCC iter.                  ...        0 min,  0.014 sec
     gradient                   ...        0 min,  0.009 sec
 * total energy  :   -65.9324251 Eh     change       -0.1326859E-03 Eh
   gradient norm :     0.0038426 Eh/α   predicted     0.0000000E+00 (-100.00%)
   displ. norm   :     0.0527890 α      lambda       -0.6763320E-04
   maximum displ.:     0.0317427 α      in ANC's #15, #1, #16, ...

........................................................................
.............................. CYCLE   22 ..............................
........................................................................

 iter      E             dE          RMSdq      gap      omega  full diag
   1    -66.8360368 -0.668360E+02  0.141E-02    0.68       0.0  T
   2    -66.8360279  0.887922E-05  0.159E-02    0.68       1.0  T
   3    -66.8360371 -0.912936E-05  0.880E-03    0.68       1.6  T
   4    -66.8360392 -0.214086E-05  0.831E-04    0.68      16.9  T
   5    -66.8360392 -0.193151E-07  0.322E-04    0.68      43.5  T
   6    -66.8360392 -0.184340E-08  0.164E-04    0.68      85.1  T
     SCC iter.                  ...        0 min,  0.012 sec
     gradient                   ...        0 min,  0.009 sec
 * total energy  :   -65.9324800 Eh     change       -0.5487663E-04 Eh
   gradient norm :     0.0019795 Eh/α   predicted    -0.3413466E-04 ( -37.80%)
   displ. norm   :     0.2587492 α      lambda       -0.1441828E-03
   maximum displ.:     0.1652649 α      in ANC's #15, #1, #3, ...

........................................................................
.............................. CYCLE   23 ..............................
........................................................................

 iter      E             dE          RMSdq      gap      omega  full diag
   1    -66.8389117 -0.668389E+02  0.533E-02    0.69       0.0  T
   2    -66.8388200  0.916235E-04  0.542E-02    0.69       1.0  T
   3    -66.8388995 -0.794401E-04  0.358E-02    0.68       1.0  T
   4    -66.8389392 -0.397357E-04  0.371E-03    0.69       3.8  T
   5    -66.8389396 -0.351207E-06  0.117E-03    0.69      12.0  T
   6    -66.8389396 -0.182823E-07  0.643E-04    0.69      21.8  T
   7    -66.8389396 -0.522752E-08  0.272E-04    0.69      51.4  T
     SCC iter.                  ...        0 min,  0.015 sec
     gradient                   ...        0 min,  0.009 sec
 * total energy  :   -65.9325337 Eh     change       -0.5371886E-04 Eh
   gradient norm :     0.0070563 Eh/α   predicted    -0.7423668E-04 (  38.19%)
   displ. norm   :     0.1263730 α      lambda       -0.1597980E-03
   maximum displ.:     0.0727405 α      in ANC's #15, #1, #3, ...

........................................................................
.............................. CYCLE   24 ..............................
........................................................................

 iter      E             dE          RMSdq      gap      omega  full diag
   1    -66.8384136 -0.668384E+02  0.277E-02    0.68       0.0  T
   2    -66.8384090  0.451883E-05  0.193E-02    0.69       1.0  T
   3    -66.8383829  0.261575E-04  0.265E-02    0.68       1.0  T
   4    -66.8384154 -0.324747E-04  0.139E-03    0.69      10.1  T
   5    -66.8384154 -0.424621E-07  0.613E-04    0.69      22.8  T
   6    -66.8384154 -0.660707E-08  0.349E-04    0.69      40.1  T
     SCC iter.                  ...        0 min,  0.012 sec
     gradient                   ...        0 min,  0.009 sec
 * total energy  :   -65.9325936 Eh     change       -0.5993026E-04 Eh
   gradient norm :     0.0069009 Eh/α   predicted    -0.8117626E-04 (  35.45%)
   displ. norm   :     0.0389450 α      lambda       -0.1012106E-03
   maximum displ.:     0.0135595 α      in ANC's #3, #1, #25, ...

........................................................................
.............................. CYCLE   25 ..............................
........................................................................

 iter      E             dE          RMSdq      gap      omega  full diag
   1    -66.8375037 -0.668375E+02  0.182E-02    0.68       0.0  T
   2    -66.8374808  0.229750E-04  0.245E-02    0.68       1.0  T
   3    -66.8375082 -0.274559E-04  0.926E-03    0.68       1.5  T
   4    -66.8375101 -0.185356E-05  0.111E-03    0.68      12.6  T
   5    -66.8375101 -0.181530E-07  0.453E-04    0.68      30.9  T
   6    -66.8375101 -0.280997E-08  0.216E-04    0.68      64.9  T
     SCC iter.                  ...        0 min,  0.017 sec
     gradient                   ...        0 min,  0.009 sec
 * total energy  :   -65.9326642 Eh     change       -0.7061220E-04 Eh
   gradient norm :     0.0030376 Eh/α   predicted    -0.5068960E-04 ( -28.21%)
   displ. norm   :     0.1227614 α      lambda       -0.7738208E-04
   maximum displ.:     0.0686860 α      in ANC's #3, #1, #15, ...

........................................................................
.............................. CYCLE   26 ..............................
........................................................................

 iter      E             dE          RMSdq      gap      omega  full diag
   1    -66.8361934 -0.668362E+02  0.219E-02    0.68       0.0  T
   2    -66.8361740  0.194357E-04  0.242E-02    0.68       1.0  T
   3    -66.8361936 -0.195689E-04  0.136E-02    0.68       1.0  T
   4    -66.8361988 -0.517353E-05  0.116E-03    0.68      12.0  T
   5    -66.8361988 -0.413198E-07  0.410E-04    0.68      34.1  T
   6    -66.8361988 -0.208742E-08  0.235E-04    0.68      59.7  T
     SCC iter.                  ...        0 min,  0.012 sec
     gradient                   ...        0 min,  0.009 sec
 * total energy  :   -65.9327214 Eh     change       -0.5713008E-04 Eh
   gradient norm :     0.0014920 Eh/α   predicted    -0.3927457E-04 ( -31.25%)
   displ. norm   :     0.2801566 α      lambda       -0.6307365E-04
   maximum displ.:     0.1595362 α      in ANC's #1, #3, #15, ...

........................................................................
.............................. CYCLE   27 ..............................
........................................................................

 iter      E             dE          RMSdq      gap      omega  full diag
   1    -66.8346352 -0.668346E+02  0.390E-02    0.68       0.0  T
   2    -66.8346166  0.185745E-04  0.308E-02    0.67       1.0  T
   3    -66.8345962  0.203711E-04  0.331E-02    0.68       1.0  T
   4    -66.8346415 -0.453162E-04  0.242E-03    0.67       5.8  T
   5    -66.8346418 -0.209253E-06  0.829E-04    0.67      16.9  T
   6    -66.8346418 -0.154443E-07  0.466E-04    0.67      30.1  T
     SCC iter.                  ...        0 min,  0.012 sec
     gradient                   ...        0 min,  0.009 sec
 * total energy  :   -65.9327830 Eh     change       -0.6162123E-04 Eh
   gradient norm :     0.0033402 Eh/α   predicted    -0.3264524E-04 ( -47.02%)
   displ. norm   :     0.1230758 α      lambda       -0.4482017E-04
   maximum displ.:     0.0761622 α      in ANC's #1, #3, #15, ...

........................................................................
.............................. CYCLE   28 ..............................
........................................................................

 iter      E             dE          RMSdq      gap      omega  full diag
   1    -66.8354057 -0.668354E+02  0.149E-02    0.68       0.0  T
   2    -66.8354058 -0.701648E-07  0.898E-03    0.67       1.6  T
   3    -66.8354013  0.443334E-05  0.952E-03    0.67       1.5  T
   4    -66.8354058 -0.448693E-05  0.158E-03    0.67       8.8  T
   5    -66.8354060 -0.128576E-06  0.409E-04    0.67      34.3  T
   6    -66.8354060 -0.475897E-08  0.194E-04    0.67      72.3  T
     SCC iter.                  ...        0 min,  0.012 sec
     gradient                   ...        0 min,  0.009 sec
 * total energy  :   -65.9328228 Eh     change       -0.3983796E-04 Eh
   gradient norm :     0.0025491 Eh/α   predicted    -0.2274993E-04 ( -42.89%)
   displ. norm   :     0.2339854 α      lambda       -0.8359161E-04
   maximum displ.:     0.1500934 α      in ANC's #1, #3, #6, ...

........................................................................
.............................. CYCLE   29 ..............................
........................................................................

 iter      E             dE          RMSdq      gap      omega  full diag
   1    -66.8369260 -0.668369E+02  0.282E-02    0.68       0.0  T
   2    -66.8369258  0.153064E-06  0.173E-02    0.67       1.0  T
   3    -66.8369001  0.257613E-04  0.225E-02    0.67       1.0  T
   4    -66.8369269 -0.267889E-04  0.195E-03    0.67       7.2  T
   5    -66.8369270 -0.131234E-06  0.747E-04    0.67      18.7  T
   6    -66.8369270 -0.163779E-07  0.351E-04    0.67      39.8  T
     SCC iter.                  ...        0 min,  0.012 sec
     gradient                   ...        0 min,  0.009 sec
 * total energy  :   -65.9328908 Eh     change       -0.6800345E-04 Eh
   gradient norm :     0.0012573 Eh/α   predicted    -0.4408649E-04 ( -35.17%)
   displ. norm   :     0.4346691 α      lambda       -0.7359681E-04
   maximum displ.:     0.2778113 α      in ANC's #1, #3, #6, ...

........................................................................
.............................. CYCLE   30 ..............................
........................................................................

 iter      E             dE          RMSdq      gap      omega  full diag
   1    -66.8375756 -0.668376E+02  0.507E-02    0.68       0.0  T
   2    -66.8375764 -0.797912E-06  0.304E-02    0.67       1.0  T
   3    -66.8375304  0.459196E-04  0.296E-02    0.67       1.0  T
   4    -66.8375776 -0.471530E-04  0.324E-03    0.67       4.3  T
   5    -66.8375780 -0.375237E-06  0.117E-03    0.67      11.9  T
   6    -66.8375780 -0.385664E-07  0.572E-04    0.67      24.5  T
   7    -66.8375780 -0.637523E-08  0.173E-04    0.67      81.1  T
     SCC iter.                  ...        0 min,  0.014 sec
     gradient                   ...        0 min,  0.009 sec
 * total energy  :   -65.9329769 Eh     change       -0.8605352E-04 Eh
   gradient norm :     0.0021145 Eh/α   predicted    -0.3988961E-04 ( -53.65%)
   displ. norm   :     0.2167505 α      lambda       -0.4939522E-04
   maximum displ.:     0.1436003 α      in ANC's #1, #3, #6, ...

........................................................................
.............................. CYCLE   31 ..............................
........................................................................

 iter      E             dE          RMSdq      gap      omega  full diag
   1    -66.8377056 -0.668377E+02  0.236E-02    0.67       0.0  T
   2    -66.8377058 -0.243784E-06  0.140E-02    0.67       1.0  T
   3    -66.8377027  0.315250E-05  0.802E-03    0.67       1.7  T
   4    -66.8377057 -0.300908E-05  0.228E-03    0.67       6.1  T
   5    -66.8377060 -0.267904E-06  0.487E-04    0.67      28.7  T
   6    -66.8377060 -0.607864E-08  0.248E-04    0.67      56.5  T
     SCC iter.                  ...        0 min,  0.012 sec
     gradient                   ...        0 min,  0.009 sec
 * total energy  :   -65.9330218 Eh     change       -0.4496638E-04 Eh
   gradient norm :     0.0020864 Eh/α   predicted    -0.2585848E-04 ( -42.49%)
   displ. norm   :     0.2481389 α      lambda       -0.5923600E-04
   maximum displ.:     0.1638217 α      in ANC's #1, #3, #6, ...

........................................................................
.............................. CYCLE   32 ..............................
........................................................................

 iter      E             dE          RMSdq      gap      omega  full diag
   1    -66.8375013 -0.668375E+02  0.270E-02    0.67       0.0  T
   2    -66.8375017 -0.369526E-06  0.160E-02    0.67       1.0  T
   3    -66.8375014  0.279758E-06  0.281E-03    0.67       5.0  T
   4    -66.8375014 -0.203158E-07  0.253E-03    0.67       5.5  T
   5    -66.8375017 -0.314824E-06  0.573E-04    0.67      24.4  T
   6    -66.8375017 -0.952782E-08  0.289E-04    0.67      48.5  T
     SCC iter.                  ...        0 min,  0.012 sec
     gradient                   ...        0 min,  0.009 sec
 * total energy  :   -65.9330761 Eh     change       -0.5426759E-04 Eh
   gradient norm :     0.0015316 Eh/α   predicted    -0.3144570E-04 ( -42.05%)
   displ. norm   :     0.4458441 α      lambda       -0.7177127E-04
   maximum displ.:     0.2967423 α      in ANC's #1, #3, #2, ...

........................................................................
.............................. CYCLE   33 ..............................
........................................................................

 iter      E             dE          RMSdq      gap      omega  full diag
   1    -66.8370043 -0.668370E+02  0.487E-02    0.67       0.0  T
   2    -66.8370048 -0.508419E-06  0.288E-02    0.66       1.0  T
   3    -66.8369849  0.198730E-04  0.194E-02    0.66       1.0  T
   4    -66.8370054 -0.204491E-04  0.202E-03    0.66       6.9  T
   5    -66.8370055 -0.127136E-06  0.817E-04    0.66      17.1  T
   6    -66.8370055 -0.332567E-08  0.461E-04    0.66      30.4  T
     SCC iter.                  ...        0 min,  0.012 sec
     gradient                   ...        0 min,  0.009 sec
 * total energy  :   -65.9331652 Eh     change       -0.8914062E-04 Eh
   gradient norm :     0.0023588 Eh/α   predicted    -0.3905646E-04 ( -56.19%)
   displ. norm   :     0.3517925 α      lambda       -0.7534918E-04
   maximum displ.:     0.2362128 α      in ANC's #1, #3, #2, ...

........................................................................
.............................. CYCLE   34 ..............................
........................................................................

 iter      E             dE          RMSdq      gap      omega  full diag
   1    -66.8361737 -0.668362E+02  0.385E-02    0.67       0.0  T
   2    -66.8361730  0.712768E-06  0.232E-02    0.66       1.0  T
   3    -66.8361271  0.459146E-04  0.302E-02    0.66       1.0  T
   4    -66.8361749 -0.478300E-04  0.147E-03    0.66       9.5  T
   5    -66.8361749 -0.492223E-07  0.684E-04    0.66      20.5  T
   6    -66.8361749 -0.215655E-08  0.329E-04    0.66      42.6  T
     SCC iter.                  ...        0 min,  0.012 sec
     gradient                   ...        0 min,  0.009 sec
 * total energy  :   -65.9332267 Eh     change       -0.6142795E-04 Eh
   gradient norm :     0.0024915 Eh/α   predicted    -0.4234017E-04 ( -31.07%)
   displ. norm   :     0.5388795 α      lambda       -0.1092375E-03
   maximum displ.:     0.3612751 α      in ANC's #1, #3, #2, ...

........................................................................
.............................. CYCLE   35 ..............................
........................................................................

 iter      E             dE          RMSdq      gap      omega  full diag
   1    -66.8358758 -0.668359E+02  0.631E-02    0.67       0.0  T
   2    -66.8358743  0.151780E-05  0.377E-02    0.66       1.0  T
   3    -66.8357696  0.104713E-03  0.452E-02    0.66       1.0  T
   4    -66.8358781 -0.108567E-03  0.227E-03    0.66       6.2  T
   5    -66.8358783 -0.153193E-06  0.115E-03    0.66      12.2  T
   6    -66.8358783 -0.199208E-08  0.622E-04    0.66      22.5  T
   7    -66.8358783 -0.696724E-08  0.235E-04    0.66      59.6  T
     SCC iter.                  ...        0 min,  0.014 sec
     gradient                   ...        0 min,  0.009 sec
 * total energy  :   -65.9332983 Eh     change       -0.7167081E-04 Eh
   gradient norm :     0.0038204 Eh/α   predicted    -0.7048192E-04 (  -1.66%)
   displ. norm   :     0.2537963 α      lambda       -0.6180738E-04
   maximum displ.:     0.1712054 α      in ANC's #1, #3, #2, ...

........................................................................
.............................. CYCLE   36 ..............................
........................................................................

 iter      E             dE          RMSdq      gap      omega  full diag
   1    -66.8369575 -0.668370E+02  0.338E-02    0.66       0.0  T
   2    -66.8369563  0.120911E-05  0.205E-02    0.66       1.0  T
   3    -66.8369138  0.425376E-04  0.293E-02    0.66       1.0  T
   4    -66.8369585 -0.447432E-04  0.139E-03    0.66      10.0  T
   5    -66.8369586 -0.536385E-07  0.759E-04    0.66      18.5  T
   6    -66.8369586 -0.494381E-08  0.454E-04    0.66      30.9  T
     SCC iter.                  ...        0 min,  0.012 sec
     gradient                   ...        0 min,  0.009 sec
 * total energy  :   -65.9333432 Eh     change       -0.4484833E-04 Eh
   gradient norm :     0.0023850 Eh/α   predicted    -0.3289587E-04 ( -26.65%)
   displ. norm   :     0.3429579 α      lambda       -0.5126246E-04
   maximum displ.:     0.2242614 α      in ANC's #1, #3, #2, ...

........................................................................
.............................. CYCLE   37 ..............................
........................................................................

 iter      E             dE          RMSdq      gap      omega  full diag
   1    -66.8362572 -0.668363E+02  0.482E-02    0.66       0.0  T
   2    -66.8362567  0.492590E-06  0.286E-02    0.66       1.0  T
   3    -66.8362061  0.505500E-04  0.312E-02    0.66       1.0  T
   4    -66.8362585 -0.523613E-04  0.203E-03    0.66       6.9  T
   5    -66.8362586 -0.120043E-06  0.112E-03    0.66      12.6  T
   6    -66.8362586 -0.202558E-07  0.613E-04    0.66      22.8  T
   7    -66.8362586 -0.455405E-08  0.175E-04    0.66      80.2  T
     SCC iter.                  ...        0 min,  0.014 sec
     gradient                   ...        0 min,  0.009 sec
 * total energy  :   -65.9333733 Eh     change       -0.3015485E-04 Eh
   gradient norm :     0.0028415 Eh/α   predicted    -0.2864625E-04 (  -5.00%)
   displ. norm   :     0.1214277 α      lambda       -0.4973741E-04
   maximum displ.:     0.0535206 α      in ANC's #3, #1, #20, ...

........................................................................
.............................. CYCLE   38 ..............................
........................................................................

 iter      E             dE          RMSdq      gap      omega  full diag
   1    -66.8393656 -0.668394E+02  0.312E-02    0.66       0.0  T
   2    -66.8393661 -0.491410E-06  0.184E-02    0.66       1.0  T
   3    -66.8393528  0.133304E-04  0.161E-02    0.66       1.0  T
   4    -66.8393662 -0.133763E-04  0.385E-03    0.66       3.6  T
   5    -66.8393668 -0.640937E-06  0.107E-03    0.66      13.1  T
   6    -66.8393668 -0.332686E-07  0.515E-04    0.66      27.2  T
   7    -66.8393668 -0.164567E-08  0.165E-04    0.66      84.7  T
     SCC iter.                  ...        0 min,  0.014 sec
     gradient                   ...        0 min,  0.009 sec
 * total energy  :   -65.9333896 Eh     change       -0.1622461E-04 Eh
   gradient norm :     0.0023069 Eh/α   predicted    -0.2523678E-04 (  55.55%)
   displ. norm   :     0.1189939 α      lambda       -0.2217929E-04
   maximum displ.:     0.0799925 α      in ANC's #3, #1, #2, ...

........................................................................
.............................. CYCLE   39 ..............................
........................................................................

 iter      E             dE          RMSdq      gap      omega  full diag
   1    -66.8380421 -0.668380E+02  0.180E-02    0.66       0.0  T
   2    -66.8380423 -0.186702E-06  0.107E-02    0.66       1.3  T
   3    -66.8380366  0.563898E-05  0.107E-02    0.66       1.3  T
   4    -66.8380424 -0.578359E-05  0.171E-03    0.66       8.2  T
   5    -66.8380426 -0.127034E-06  0.398E-04    0.66      35.2  T
   6    -66.8380426 -0.119783E-08  0.234E-04    0.66      59.8  T
     SCC iter.                  ...        0 min,  0.012 sec
     gradient                   ...        0 min,  0.016 sec
 * total energy  :   -65.9334046 Eh     change       -0.1504728E-04 Eh
   gradient norm :     0.0015702 Eh/α   predicted    -0.1124764E-04 ( -25.25%)
   displ. norm   :     0.1200871 α      lambda       -0.1990467E-04
   maximum displ.:     0.0696420 α      in ANC's #3, #20, #1, ...

........................................................................
.............................. CYCLE   40 ..............................
........................................................................

 iter      E             dE          RMSdq      gap      omega  full diag
   1    -66.8368608 -0.668369E+02  0.274E-02    0.67       0.0  T
   2    -66.8368611 -0.308963E-06  0.160E-02    0.66       1.0  T
   3    -66.8368543  0.673059E-05  0.116E-02    0.66       1.2  T
   4    -66.8368613 -0.692431E-05  0.177E-03    0.66       7.9  T
   5    -66.8368614 -0.121648E-06  0.580E-04    0.66      24.1  T
   6    -66.8368614  0.329962E-09  0.309E-04    0.66      45.3  T
     SCC iter.                  ...        0 min,  0.012 sec
     gradient                   ...        0 min,  0.009 sec
 * total energy  :   -65.9334236 Eh     change       -0.1898377E-04 Eh
   gradient norm :     0.0027307 Eh/α   predicted    -0.1001766E-04 ( -47.23%)
   displ. norm   :     0.0987399 α      lambda       -0.3118453E-04
   maximum displ.:     0.0590812 α      in ANC's #20, #13, #17, ...

........................................................................
.............................. CYCLE   41 ..............................
........................................................................

 iter      E             dE          RMSdq      gap      omega  full diag
   1    -66.8364532 -0.668365E+02  0.304E-02    0.67       0.0  T
   2    -66.8364533 -0.139707E-06  0.179E-02    0.66       1.0  T
   3    -66.8364423  0.109712E-04  0.147E-02    0.66       1.0  T
   4    -66.8364537 -0.113490E-04  0.175E-03    0.66       8.0  T
   5    -66.8364538 -0.116336E-06  0.675E-04    0.66      20.7  T
   6    -66.8364538 -0.732300E-09  0.302E-04    0.66      46.3  T
     SCC iter.                  ...        0 min,  0.012 sec
     gradient                   ...        0 min,  0.009 sec
 * total energy  :   -65.9334498 Eh     change       -0.2616306E-04 Eh
   gradient norm :     0.0038036 Eh/α   predicted    -0.1574521E-04 ( -39.82%)
   displ. norm   :     0.2794142 α      lambda       -0.8354509E-04
   maximum displ.:     0.1687227 α      in ANC's #20, #17, #4, ...

........................................................................
.............................. CYCLE   42 ..............................
........................................................................

 iter      E             dE          RMSdq      gap      omega  full diag
   1    -66.8350489 -0.668350E+02  0.863E-02    0.67       0.0  T
   2    -66.8350503 -0.143509E-05  0.513E-02    0.67       1.0  T
   3    -66.8349382  0.112100E-03  0.473E-02    0.66       1.0  T
   4    -66.8350535 -0.115229E-03  0.693E-03    0.66       2.0  T
   5    -66.8350556 -0.216152E-05  0.191E-03    0.66       7.3  T
   6    -66.8350556 -0.129901E-07  0.825E-04    0.66      17.0  T
   7    -66.8350556 -0.381750E-08  0.258E-04    0.66      54.3  T
     SCC iter.                  ...        0 min,  0.014 sec
     gradient                   ...        0 min,  0.009 sec
 * total energy  :   -65.9334931 Eh     change       -0.4338079E-04 Eh
   gradient norm :     0.0078978 Eh/α   predicted    -0.4503634E-04 (   3.82%)
   displ. norm   :     0.1260696 α      lambda       -0.6800618E-04
   maximum displ.:     0.0939832 α      in ANC's #1, #3, #15, ...
 * RMSD in coord.:     0.5673858 α      energy gain  -0.1200746E-02 Eh

generating ANC from exact Hessian ...
Using Lindh-Hessian (1995)
 Shifting diagonal of input Hessian by    9.5953267977022128E-003
 Lowest  eigenvalues of input Hessian
    0.000000    0.000000    0.000000    0.000000    0.000000    0.000000
    0.010000    0.010160    0.010728    0.011624    0.012424    0.012912
    0.013476    0.014248    0.015140    0.015566    0.016498    0.017202
 Highest eigenvalues
    1.395875    1.613585    1.637766    1.675587    1.973236    2.408046


........................................................................
.............................. CYCLE   43 ..............................
........................................................................

 iter      E             dE          RMSdq      gap      omega  full diag
   1    -66.8368629 -0.668369E+02  0.178E-02    0.65       0.0  T
   2    -66.8368665 -0.357783E-05  0.109E-02    0.66       1.3  T
   3    -66.8368669 -0.420678E-06  0.585E-03    0.66       2.4  T
   4    -66.8368667  0.235698E-06  0.303E-03    0.66       4.6  T
   5    -66.8368671 -0.400027E-06  0.136E-03    0.66      10.3  T
   6    -66.8368672 -0.828684E-07  0.400E-04    0.66      35.0  T
   7    -66.8368672 -0.382934E-08  0.194E-04    0.66      72.2  T
     SCC iter.                  ...        0 min,  0.014 sec
     gradient                   ...        0 min,  0.009 sec
 * total energy  :   -65.9335283 Eh     change       -0.3517075E-04 Eh
   gradient norm :     0.0031476 Eh/α   predicted     0.0000000E+00 (-100.00%)
   displ. norm   :     0.0355409 α      lambda       -0.4127358E-04
   maximum displ.:     0.0142232 α      in ANC's #13, #21, #3, ...

........................................................................
.............................. CYCLE   44 ..............................
........................................................................

 iter      E             dE          RMSdq      gap      omega  full diag
   1    -66.8380901 -0.668381E+02  0.125E-02    0.66       0.0  T
   2    -66.8380900  0.527935E-07  0.764E-03    0.66       1.8  T
   3    -66.8380855  0.450678E-05  0.976E-03    0.66       1.4  T
   4    -66.8380902 -0.471917E-05  0.137E-03    0.66      10.2  T
   5    -66.8380903 -0.874998E-07  0.404E-04    0.66      34.7  T
   6    -66.8380903 -0.402015E-08  0.219E-04    0.66      63.9  T
     SCC iter.                  ...        0 min,  0.012 sec
     gradient                   ...        0 min,  0.009 sec
 * total energy  :   -65.9335557 Eh     change       -0.2742452E-04 Eh
   gradient norm :     0.0019160 Eh/α   predicted    -0.2069980E-04 ( -24.52%)
   displ. norm   :     0.1436432 α      lambda       -0.7234445E-04
   maximum displ.:     0.0589863 α      in ANC's #13, #21, #3, ...

........................................................................
.............................. CYCLE   45 ..............................
........................................................................

 iter      E             dE          RMSdq      gap      omega  full diag
   1    -66.8410270 -0.668410E+02  0.490E-02    0.64       0.0  T
   2    -66.8410201  0.699543E-05  0.319E-02    0.64       1.0  T
   3    -66.8409329  0.871516E-04  0.452E-02    0.64       1.0  T
   4    -66.8410315 -0.985584E-04  0.404E-03    0.64       3.5  T
   5    -66.8410321 -0.676351E-06  0.154E-03    0.64       9.1  T
   6    -66.8410322 -0.631946E-07  0.826E-04    0.64      16.9  T
   7    -66.8410322 -0.538542E-08  0.296E-04    0.64      47.4  T
     SCC iter.                  ...        0 min,  0.014 sec
     gradient                   ...        0 min,  0.009 sec
 * total energy  :   -65.9335438 Eh     change        0.1195347E-04 Eh
   gradient norm :     0.0064321 Eh/α   predicted    -0.3650717E-04 (-405.41%)
   displ. norm   :     0.0296543 α      lambda       -0.8583951E-04
   maximum displ.:     0.0132135 α      in ANC's #21, #13, #3, ...

........................................................................
.............................. CYCLE   46 ..............................
........................................................................

 iter      E             dE          RMSdq      gap      omega  full diag
   1    -66.8399375 -0.668399E+02  0.136E-02    0.64       0.0  T
   2    -66.8399376 -0.714624E-07  0.816E-03    0.64       1.7  T
   3    -66.8399327  0.486608E-05  0.100E-02    0.64       1.4  T
   4    -66.8399378 -0.507441E-05  0.162E-03    0.64       8.6  T
   5    -66.8399379 -0.963369E-07  0.365E-04    0.64      38.3  T
   6    -66.8399379 -0.247607E-08  0.209E-04    0.64      66.8  T
     SCC iter.                  ...        0 min,  0.017 sec
     gradient                   ...        0 min,  0.009 sec
 * total energy  :   -65.9336070 Eh     change       -0.6318628E-04 Eh
   gradient norm :     0.0036603 Eh/α   predicted    -0.4295880E-04 ( -32.01%)
   displ. norm   :     0.0697678 α      lambda       -0.6758932E-04
   maximum displ.:     0.0369184 α      in ANC's #21, #13, #3, ...

........................................................................
.............................. CYCLE   47 ..............................
........................................................................

 iter      E             dE          RMSdq      gap      omega  full diag
   1    -66.8382515 -0.668383E+02  0.235E-02    0.64       0.0  T
   2    -66.8382516 -0.630336E-07  0.138E-02    0.64       1.0  T
   3    -66.8382425  0.914114E-05  0.134E-02    0.64       1.0  T
   4    -66.8382520 -0.949421E-05  0.123E-03    0.64      11.4  T
   5    -66.8382520 -0.385709E-07  0.552E-04    0.64      25.4  T
   6    -66.8382520 -0.842448E-09  0.288E-04    0.64      48.6  T
     SCC iter.                  ...        0 min,  0.012 sec
     gradient                   ...        0 min,  0.009 sec
 * total energy  :   -65.9336527 Eh     change       -0.4573357E-04 Eh
   gradient norm :     0.0019686 Eh/α   predicted    -0.3395937E-04 ( -25.75%)
   displ. norm   :     0.1698367 α      lambda       -0.4495286E-04
   maximum displ.:     0.0930638 α      in ANC's #21, #22, #3, ...

........................................................................
.............................. CYCLE   48 ..............................
........................................................................

 iter      E             dE          RMSdq      gap      omega  full diag
   1    -66.8362053 -0.668362E+02  0.553E-02    0.65       0.0  T
   2    -66.8362065 -0.119794E-05  0.323E-02    0.65       1.0  T
   3    -66.8362047  0.172448E-05  0.705E-03    0.64       2.0  T
   4    -66.8362061 -0.132616E-05  0.461E-03    0.64       3.0  T
   5    -66.8362071 -0.100414E-05  0.135E-03    0.64      10.4  T
   6    -66.8362071 -0.968504E-08  0.658E-04    0.64      21.3  T
   7    -66.8362071 -0.120889E-07  0.197E-04    0.64      71.0  T
     SCC iter.                  ...        0 min,  0.014 sec
     gradient                   ...        0 min,  0.009 sec
 * total energy  :   -65.9336981 Eh     change       -0.4537717E-04 Eh
   gradient norm :     0.0047713 Eh/α   predicted    -0.2276631E-04 ( -49.83%)
   displ. norm   :     0.1361087 α      lambda       -0.5810985E-04
   maximum displ.:     0.0739809 α      in ANC's #21, #22, #3, ...

........................................................................
.............................. CYCLE   49 ..............................
........................................................................

 iter      E             dE          RMSdq      gap      omega  full diag
   1    -66.8356737 -0.668357E+02  0.427E-02    0.65       0.0  T
   2    -66.8356745 -0.861404E-06  0.251E-02    0.65       1.0  T
   3    -66.8356706  0.393650E-05  0.919E-03    0.64       1.5  T
   4    -66.8356741 -0.349310E-05  0.423E-03    0.64       3.3  T
   5    -66.8356750 -0.874769E-06  0.942E-04    0.64      14.9  T
   6    -66.8356750 -0.402065E-08  0.460E-04    0.64      30.4  T
     SCC iter.                  ...        0 min,  0.014 sec
     gradient                   ...        0 min,  0.009 sec
 * total energy  :   -65.9337459 Eh     change       -0.4783691E-04 Eh
   gradient norm :     0.0052015 Eh/α   predicted    -0.2959442E-04 ( -38.13%)
   displ. norm   :     0.2540735 α      lambda       -0.1156971E-03
   maximum displ.:     0.1348449 α      in ANC's #21, #22, #3, ...

........................................................................
.............................. CYCLE   50 ..............................
........................................................................

 iter      E             dE          RMSdq      gap      omega  full diag
   1    -66.8353200 -0.668353E+02  0.768E-02    0.65       0.0  T
   2    -66.8353232 -0.320139E-05  0.452E-02    0.65       1.0  T
   3    -66.8353077  0.155096E-04  0.182E-02    0.64       1.0  T
   4    -66.8353209 -0.132604E-04  0.880E-03    0.65       1.6  T
   5    -66.8353248 -0.385748E-05  0.178E-03    0.65       7.8  T
   6    -66.8353248 -0.209205E-07  0.876E-04    0.65      16.0  T
   7    -66.8353248 -0.617089E-08  0.165E-04    0.65      84.9  T
     SCC iter.                  ...        0 min,  0.014 sec
     gradient                   ...        0 min,  0.009 sec
 * total energy  :   -65.9338250 Eh     change       -0.7903643E-04 Eh
   gradient norm :     0.0072529 Eh/α   predicted    -0.6158840E-04 ( -22.08%)
   displ. norm   :     0.1704868 α      lambda       -0.1318903E-03
   maximum displ.:     0.0727417 α      in ANC's #21, #1, #2, ...

........................................................................
.............................. CYCLE   51 ..............................
........................................................................

 iter      E             dE          RMSdq      gap      omega  full diag
   1    -66.8378088 -0.668378E+02  0.441E-02    0.65       0.0  T
   2    -66.8378132 -0.442589E-05  0.260E-02    0.65       1.0  T
   3    -66.8378122  0.108120E-05  0.842E-03    0.65       1.7  T
   4    -66.8378129 -0.735549E-06  0.496E-03    0.65       2.8  T
   5    -66.8378140 -0.113881E-05  0.164E-03    0.65       8.5  T
   6    -66.8378141 -0.861441E-07  0.719E-04    0.65      19.5  T
   7    -66.8378141 -0.167960E-08  0.381E-04    0.65      36.7  T
     SCC iter.                  ...        0 min,  0.014 sec
     gradient                   ...        0 min,  0.009 sec
 * total energy  :   -65.9338984 Eh     change       -0.7348590E-04 Eh
   gradient norm :     0.0048129 Eh/α   predicted    -0.6786439E-04 (  -7.65%)
   displ. norm   :     0.3990405 α      lambda       -0.1740448E-03
   maximum displ.:     0.2014255 α      in ANC's #21, #1, #2, ...

........................................................................
.............................. CYCLE   52 ..............................
........................................................................

 iter      E             dE          RMSdq      gap      omega  full diag
   1    -66.8355590 -0.668356E+02  0.119E-01    0.68       0.0  T
   2    -66.8355785 -0.195908E-04  0.698E-02    0.67       1.0  T
   3    -66.8355264  0.521299E-04  0.360E-02    0.65       1.0  T
   4    -66.8355510 -0.245766E-04  0.260E-02    0.66       1.0  T
   5    -66.8355862 -0.352092E-04  0.304E-03    0.66       4.6  T
   6    -66.8355862 -0.201995E-07  0.183E-03    0.66       7.7  T
   7    -66.8355863 -0.462529E-07  0.751E-04    0.66      18.6  T
   8    -66.8355863 -0.170383E-07  0.218E-04    0.66      64.4  T
     SCC iter.                  ...        0 min,  0.016 sec
     gradient                   ...        0 min,  0.009 sec
 * total energy  :   -65.9339160 Eh     change       -0.1756151E-04 Eh
   gradient norm :     0.0152668 Eh/α   predicted    -0.1008819E-03 ( 474.45%)
   displ. norm   :     0.1478181 α      lambda       -0.2748155E-03
   maximum displ.:     0.0811944 α      in ANC's #21, #22, #3, ...

........................................................................
.............................. CYCLE   53 ..............................
........................................................................

 iter      E             dE          RMSdq      gap      omega  full diag
   1    -66.8399209 -0.668399E+02  0.513E-02    0.63       0.0  T
   2    -66.8399368 -0.159269E-04  0.310E-02    0.64       1.0  T
   3    -66.8399376 -0.754306E-06  0.143E-02    0.65       1.0  T
   4    -66.8399403 -0.277810E-05  0.193E-03    0.65       7.2  T
   5    -66.8399403  0.590919E-07  0.178E-03    0.65       7.9  T
   6    -66.8399403 -0.533236E-07  0.125E-03    0.65      11.2  T
   7    -66.8399404 -0.552973E-07  0.395E-04    0.65      35.4  T
   8    -66.8399404 -0.511359E-08  0.156E-04    0.65      89.8  T
     SCC iter.                  ...        0 min,  0.016 sec
     gradient                   ...        0 min,  0.009 sec
 * total energy  :   -65.9340252 Eh     change       -0.1092251E-03 Eh
   gradient norm :     0.0049116 Eh/α   predicted    -0.1404164E-03 (  28.56%)
   displ. norm   :     0.1421755 α      lambda       -0.7113806E-04
   maximum displ.:     0.0667914 α      in ANC's #2, #21, #1, ...

........................................................................
.............................. CYCLE   54 ..............................
........................................................................

 iter      E             dE          RMSdq      gap      omega  full diag
   1    -66.8391802 -0.668392E+02  0.351E-02    0.65       0.0  T
   2    -66.8391813 -0.110505E-05  0.209E-02    0.65       1.0  T
   3    -66.8391688  0.125242E-04  0.160E-02    0.65       1.0  T
   4    -66.8391807 -0.119200E-04  0.503E-03    0.65       2.8  T
   5    -66.8391820 -0.126722E-05  0.929E-04    0.65      15.1  T
   6    -66.8391820 -0.126320E-07  0.589E-04    0.65      23.8  T
   7    -66.8391820 -0.508795E-08  0.122E-04    0.65     114.5  T
     SCC iter.                  ...        0 min,  0.014 sec
     gradient                   ...        0 min,  0.009 sec
 * total energy  :   -65.9340904 Eh     change       -0.6519470E-04 Eh
   gradient norm :     0.0030221 Eh/α   predicted    -0.3628947E-04 ( -44.34%)
   displ. norm   :     0.6559515 α      lambda       -0.2814583E-03
   maximum displ.:     0.3149268 α      in ANC's #2, #21, #1, ...

........................................................................
.............................. CYCLE   55 ..............................
........................................................................

 iter      E             dE          RMSdq      gap      omega  full diag
   1    -66.8309639 -0.668310E+02  0.167E-01    0.69       0.0  T
   2    -66.8309887 -0.248874E-04  0.984E-02    0.68       1.0  T
   3    -66.8308219  0.166882E-03  0.607E-02    0.66       1.0  T
   4    -66.8309539 -0.132061E-03  0.309E-02    0.66       1.0  T
   5    -66.8310038 -0.498216E-04  0.436E-03    0.66       3.2  T
   6    -66.8310037  0.848431E-08  0.291E-03    0.66       4.8  T
   7    -66.8310040 -0.213220E-06  0.748E-04    0.67      18.7  T
   8    -66.8310040 -0.826068E-08  0.248E-04    0.67      56.5  T
     SCC iter.                  ...        0 min,  0.016 sec
     gradient                   ...        0 min,  0.009 sec
 * total energy  :   -65.9340546 Eh     change        0.3577651E-04 Eh
   gradient norm :     0.0208564 Eh/α   predicted    -0.2012850E-03 (-662.62%)
   displ. norm   :     0.2558760 α      lambda       -0.5777868E-03
   maximum displ.:     0.1317785 α      in ANC's #21, #1, #2, ...

........................................................................
.............................. CYCLE   56 ..............................
........................................................................

 iter      E             dE          RMSdq      gap      omega  full diag
   1    -66.8377646 -0.668378E+02  0.823E-02    0.62       0.0  T
   2    -66.8377984 -0.338030E-04  0.485E-02    0.63       1.0  T
   3    -66.8377921  0.625597E-05  0.246E-02    0.65       1.0  T
   4    -66.8377803  0.118296E-04  0.223E-02    0.65       1.0  T
   5    -66.8378063 -0.260499E-04  0.256E-03    0.65       5.5  T
   6    -66.8378064 -0.884805E-07  0.144E-03    0.65       9.7  T
   7    -66.8378065 -0.134389E-07  0.732E-04    0.65      19.1  T
   8    -66.8378065 -0.148905E-07  0.203E-04    0.65      69.1  T
     SCC iter.                  ...        0 min,  0.024 sec
     gradient                   ...        0 min,  0.023 sec
 * total energy  :   -65.9342556 Eh     change       -0.2009107E-03 Eh
   gradient norm :     0.0026468 Eh/α   predicted    -0.3078093E-03 (  53.21%)
   displ. norm   :     0.1441515 α      lambda       -0.6160567E-04
   maximum displ.:     0.0854508 α      in ANC's #2, #21, #1, ...

[...]
          :  # atomic orbitals                 117          :
          :  # shells                           73          :
          :  # electrons                       122          :
          :  max. iterations                   250          :
          :  Hamiltonian                  GFN2-xTB          :
          :  restarted?                      false          :
          :  GBSA solvation                  false          :
          :  PC potential                    false          :
          :  electronic temp.          300.0000000     K    :
          :  accuracy                    1.0000000          :
          :  -> integral cutoff          0.2500000E+02      :
          :  -> integral neglect         0.1000000E-07      :
          :  -> SCF convergence          0.1000000E-05 Eh   :
          :  -> wf. convergence          0.1000000E-03 e    :
          :  Broyden damping             0.4000000          :
          :  net charge                         -1          :
          :  unpaired electrons                  0          :
          ...................................................

 iter      E             dE          RMSdq      gap      omega  full diag
   1    -66.8394695 -0.668395E+02  0.200E-04    0.71       0.0  T
   2    -66.8394695  0.602483E-08  0.385E-04    0.71      36.4  T
   3    -66.8394695 -0.779583E-08  0.473E-05    0.71     296.0  T

   *** convergence criteria satisfied after 3 iterations ***

         #    Occupation            Energy/Eh            Energy/eV
      -------------------------------------------------------------
         1        2.0000           -0.5425264             -14.7629
       ...           ...                  ...                  ...
        55        2.0000           -0.2821911              -7.6788
        56        2.0000           -0.2779533              -7.5635
        57        2.0000           -0.2732327              -7.4350
        58        2.0000           -0.2164165              -5.8890
        59        2.0000           -0.2135656              -5.8114
        60        2.0000           -0.1975608              -5.3759
        61        2.0000           -0.1785058              -4.8574 (HOMO)
        62        0.0000           -0.1524961              -4.1496 (LUMO)
        63                         -0.0515448              -1.4026
        64                          0.0138064               0.3757
        65                          0.0948770               2.5817
        66                          0.1232777               3.3546
       ...                                ...                  ...
       117                          0.8743501              23.7923
      -------------------------------------------------------------
                  HL-Gap            0.0260097 Eh            0.7078 eV
             Fermi-level           -0.1655010 Eh           -4.5035 eV

 SCC (total)                   0 d,  0 h,  0 min,  0.018 sec
 SCC setup                      ...        0 min,  0.000 sec (  0.551%)
 Dispersion                     ...        0 min,  0.000 sec (  1.737%)
 classical contributions        ...        0 min,  0.000 sec (  0.279%)
 integral evaluation            ...        0 min,  0.002 sec ( 12.644%)
 iterations                     ...        0 min,  0.006 sec ( 33.881%)
 molecular gradient             ...        0 min,  0.009 sec ( 50.051%)
 printout                       ...        0 min,  0.000 sec (  0.768%)

         :::::::::::::::::::::::::::::::::::::::::::::::::::::
         ::                     SUMMARY                     ::
         :::::::::::::::::::::::::::::::::::::::::::::::::::::
         :: total energy             -65.935172135255 Eh    ::
         :: gradient norm              0.000393504169 Eh/a0 ::
         :: HOMO-LUMO gap              0.707758733970 eV    ::
         ::.................................................::
         :: SCC energy               -66.837393881538 Eh    ::
         :: -> isotropic ES            0.188892916876 Eh    ::
         :: -> anisotropic ES          0.018210757458 Eh    ::
         :: -> anisotropic XC          0.025366344252 Eh    ::
         :: -> dispersion             -0.061710464230 Eh    ::
         :: repulsion energy           0.902221746283 Eh    ::
         :: add. restraining           0.000000000000 Eh    ::
         :: total charge              -1.000000000000 e     ::
         :::::::::::::::::::::::::::::::::::::::::::::::::::::

           -------------------------------------------------
          |                Property Printout                |
           -------------------------------------------------

    * Orbital Energies and Occupations

         #    Occupation            Energy/Eh            Energy/eV
      -------------------------------------------------------------
         1        2.0000           -0.5425264             -14.7629
       ...           ...                  ...                  ...
        49        2.0000           -0.3123998              -8.5008
        50        2.0000           -0.3099113              -8.4331
        51        2.0000           -0.3038030              -8.2669
        52        2.0000           -0.3015812              -8.2064
        53        2.0000           -0.2997792              -8.1574
        54        2.0000           -0.2937203              -7.9925
        55        2.0000           -0.2821911              -7.6788
        56        2.0000           -0.2779533              -7.5635
        57        2.0000           -0.2732327              -7.4350
        58        2.0000           -0.2164165              -5.8890
        59        2.0000           -0.2135656              -5.8114
        60        2.0000           -0.1975608              -5.3759
        61        2.0000           -0.1785058              -4.8574 (HOMO)
        62        0.0000           -0.1524961              -4.1496 (LUMO)
        63                         -0.0515448              -1.4026
        64                          0.0138064               0.3757
        65                          0.0948770               2.5817
        66                          0.1232777               3.3546
        67                          0.1511005               4.1117
        68                          0.1723954               4.6911
        69                          0.1730573               4.7091
        70                          0.1883467               5.1252
        71                          0.1973992               5.3715
        72                          0.2021608               5.5011
       ...                                ...                  ...
       117                          0.8743501              23.7923
      -------------------------------------------------------------
                  HL-Gap            0.0260097 Eh            0.7078 eV
             Fermi-level           -0.1655010 Eh           -4.5035 eV

     #   Z          covCN         q      C6AA      α(0)
     1   6 C        3.755    -0.098    22.421     6.752
     2   6 C        3.854    -0.012    20.754     6.479
     3   6 C        2.952    -0.024    28.597     8.771
     4   6 C        2.903    -0.043    29.061     8.839
     5   6 C        2.992    -0.021    28.520     8.760
     6   6 C        2.961    -0.064    29.589     8.922
     7   6 C        3.823    -0.039    21.247     6.559
     8   6 C        3.879    -0.023    20.942     6.506
     9   6 C        3.888     0.010    20.364     6.416
    10   6 C        3.881    -0.019    20.867     6.495
    11   6 C        3.803    -0.048    21.425     6.590
    12   6 C        3.806    -0.051    21.482     6.598
    13   6 C        3.760    -0.095    22.364     6.742
    14   6 C        3.807    -0.052    21.509     6.602
    15   6 C        3.800    -0.047    21.417     6.589
    16   6 C        3.810    -0.047    21.401     6.585
    17   6 C        3.886    -0.034    21.134     6.536
    18   6 C        3.752    -0.096    22.394     6.748
    19   6 C        2.675     0.364    20.820     7.466
    20   8 O        0.856    -0.590    25.875     6.820
    21   8 O        0.856    -0.576    25.527     6.774
    22   6 C        3.755    -0.097    22.412     6.750
    23   1 H        0.925     0.035     2.517     2.481
    24   1 H        0.925     0.021     2.721     2.580
    25   1 H        0.925     0.023     2.683     2.561
    26   1 H        0.924     0.014     2.833     2.632
    27   1 H        0.925     0.015     2.808     2.620
    28   1 H        0.925     0.002     3.021     2.718
    29   1 H        0.925     0.050     2.318     2.381
    30   1 H        0.925     0.039     2.465     2.455
    31   1 H        0.924     0.056     2.242     2.342
    32   1 H        0.924     0.024     2.669     2.555
    33   1 H        0.924     0.015     2.811     2.622
    34   1 H        0.924     0.017     2.775     2.605
    35   1 H        0.924     0.030     2.581     2.512
    36   1 H        0.924     0.014     2.826     2.629
    37   1 H        0.925     0.043     2.406     2.426
    38   1 H        0.924     0.013     2.842     2.636
    39   1 H        0.925     0.020     2.735     2.586
    40   1 H        0.924     0.010     2.897     2.662
    41   1 H        0.925     0.041     2.432     2.439
    42   1 H        0.924     0.005     2.966     2.693
    43   1 H        0.924     0.007     2.948     2.685
    44   1 H        0.924     0.014     2.828     2.630
    45   1 H        0.924     0.033     2.544     2.494
    46   1 H        0.925     0.006     2.963     2.692
    47   1 H        0.924     0.053     2.283     2.363
    48   1 H        0.925     0.009     2.914     2.669
    49   1 H        0.925     0.019     2.746     2.592
    50   1 H        0.925     0.033     2.538     2.491
    51   1 H        0.925     0.039     2.458     2.452

 Mol. C6AA /au·bohr⁶  :      23366.846842
 Mol. C8AA /au·bohr⁸  :     523004.454533
 Mol. α(0) /au        :        229.503179


Wiberg/Mayer (AO) data.
largest (>0.10) Wiberg bond orders for each atom

 ---------------------------------------------------------------------------
     #   Z sym  total        # sym  WBO       # sym  WBO       # sym  WBO
 ---------------------------------------------------------------------------
     1   6 C    3.991 --     2 C    0.996    25 H    0.988    24 H    0.987
                            23 H    0.986
     2   6 C    3.994 --    22 C    0.997     3 C    0.996     1 C    0.996
                            26 H    0.970
     3   6 C    3.976 --     4 C    1.686    12 C    1.015     2 C    0.996
                             6 C    0.179
     4   6 C    3.990 --     3 C    1.686     5 C    1.218    27 H    0.960
     5   6 C    3.965 --     6 C    1.580     4 C    1.218    10 C    1.018
     6   6 C    3.931 --     5 C    1.580     7 C    1.067    28 H    0.964
                             3 C    0.179
     7   6 C    3.991 --     6 C    1.067    30 H    0.976    29 H    0.963
                             8 C    0.900
     8   6 C    3.974 --     9 C    0.972    17 C    0.969    31 H    0.960
                             7 C    0.900
     9   6 C    3.978 --    13 C    0.998    14 C    0.996     8 C    0.972
                            10 C    0.903
    10   6 C    3.989 --     5 C    1.018    11 C    0.995    32 H    0.958
                             9 C    0.903
    11   6 C    3.997 --    12 C    1.003    10 C    0.995    34 H    0.978
                            33 H    0.973
    12   6 C    3.998 --     3 C    1.015    11 C    1.003    36 H    0.965
                            35 H    0.957
    13   6 C    3.996 --     9 C    0.998    38 H    0.985    39 H    0.984
                            37 H    0.978
    14   6 C    3.998 --    15 C    1.000     9 C    0.996    40 H    0.972
                            41 H    0.969
    15   6 C    3.998 --    14 C    1.000    16 C    0.998    43 H    0.981
                            42 H    0.980
    16   6 C    3.992 --    15 C    0.998    17 C    0.984    44 H    0.976
                            45 H    0.972
    17   6 C    3.952 --    18 C    1.005    16 C    0.984     8 C    0.969
                            19 C    0.811
    18   6 C    3.995 --    17 C    1.005    46 H    0.986    48 H    0.976
                            47 H    0.970
    19   6 C    3.942 --    21 O    1.552    20 O    1.536    17 C    0.811
    20   8 O    1.862 --    19 C    1.536    21 O    0.228
    21   8 O    1.887 --    19 C    1.552    20 O    0.228
    22   6 C    3.990 --     2 C    0.997    50 H    0.987    49 H    0.987
                            51 H    0.985
    23   1 H    0.999 --     1 C    0.986
    24   1 H    0.999 --     1 C    0.987
    25   1 H    0.999 --     1 C    0.988
    26   1 H    1.000 --     2 C    0.970
    27   1 H    1.000 --     4 C    0.960
    28   1 H    0.999 --     6 C    0.964
    29   1 H    0.997 --     7 C    0.963
    30   1 H    0.998 --     7 C    0.976
    31   1 H    0.996 --     8 C    0.960
    32   1 H    0.999 --    10 C    0.958
    33   1 H    0.999 --    11 C    0.973
    34   1 H    0.999 --    11 C    0.978
    35   1 H    0.999 --    12 C    0.957
    36   1 H    0.998 --    12 C    0.965
    37   1 H    0.998 --    13 C    0.978
    38   1 H    0.999 --    13 C    0.985
    39   1 H    1.000 --    13 C    0.984
    40   1 H    1.000 --    14 C    0.972
    41   1 H    0.998 --    14 C    0.969
    42   1 H    1.000 --    15 C    0.980
    43   1 H    0.999 --    15 C    0.981
    44   1 H    0.997 --    16 C    0.976
    45   1 H    0.999 --    16 C    0.972
    46   1 H    1.000 --    18 C    0.986
    47   1 H    0.997 --    18 C    0.970
    48   1 H    1.000 --    18 C    0.976
    49   1 H    0.999 --    22 C    0.987
    50   1 H    0.999 --    22 C    0.987
    51   1 H    0.998 --    22 C    0.985
 ---------------------------------------------------------------------------

Topologies differ in total number of bonds
Writing topology from bond orders to xtbtopo.mol

molecular dipole:
                 x           y           z       tot (Debye)
 q only:       -8.432       6.017       2.078
   full:       -8.506       6.331       1.675      27.286
molecular quadrupole (traceless):
                xx          xy          yy          xz          yz          zz
 q only:      -51.313      86.200      -8.813      25.455     -16.402      60.126
  q+dip:      -51.118      90.713     -12.951      23.408     -17.967      64.069
   full:      -52.127      90.530     -12.562      22.339     -16.377      64.689

           -------------------------------------------------
          |                Geometry Summary                 |
           -------------------------------------------------

      molecular mass/u    :      301.4438096
   center of mass at/Å    :        2.9779646      -0.5400630      -1.6826916
  moments of inertia/u·Å² :        0.1089912E+04   0.2307436E+04   0.2580499E+04
rotational constants/cm⁻¹ :        0.1546697E-01   0.7305785E-02   0.6532703E-02

 * 47 selected distances

     #   Z          #   Z                                           value/Å
     1   6 C        2   6 C                                       1.5319022
     3   6 C        4   6 C                                       1.3475025
     4   6 C        5   6 C                                       1.4180167
     5   6 C        6   6 C                                       1.3810556
     6   6 C        7   6 C                                       1.4637746
     5   6 C       10   6 C                                       1.4799579
    10   6 C       11   6 C                                       1.5313070
    11   6 C       12   6 C                                       1.5322290
     9   6 C       13   6 C                                       1.5381042
     9   6 C       14   6 C                                       1.5311451
    14   6 C       15   6 C                                       1.5332458
    15   6 C       16   6 C                                       1.5316269
     8   6 C       17   6 C                                       1.5399286 (max)
    16   6 C       17   6 C                                       1.5267961
    17   6 C       18   6 C                                       1.5289817
    19   6 C       20   8 O                                       1.2360357
    19   6 C       21   8 O                                       1.2321953
     2   6 C       22   6 C                                       1.5311820
     1   6 C       23   1 H                                       1.0868706
     1   6 C       24   1 H                                       1.0894189
     1   6 C       25   1 H                                       1.0884415
     2   6 C       26   1 H                                       1.0976320
     4   6 C       27   1 H                                       1.0828819 (min)
     6   6 C       28   1 H                                       1.0898684
     7   6 C       29   1 H                                       1.0850559
     7   6 C       30   1 H                                       1.0884178
     8   6 C       31   1 H                                       1.0963197
    10   6 C       32   1 H                                       1.0949904
    11   6 C       33   1 H                                       1.0930561
    11   6 C       34   1 H                                       1.0953757
    12   6 C       35   1 H                                       1.0947325
    12   6 C       36   1 H                                       1.0978788
    13   6 C       37   1 H                                       1.0849648
    13   6 C       38   1 H                                       1.0912555
    13   6 C       39   1 H                                       1.0891922
    14   6 C       40   1 H                                       1.0928595
    14   6 C       41   1 H                                       1.0869435
    15   6 C       42   1 H                                       1.0938090
    15   6 C       43   1 H                                       1.0941835
    16   6 C       44   1 H                                       1.0931962
    16   6 C       45   1 H                                       1.0922024
    18   6 C       46   1 H                                       1.0892637
    18   6 C       47   1 H                                       1.0930327
    18   6 C       48   1 H                                       1.0881701
    22   6 C       49   1 H                                       1.0895619
    22   6 C       50   1 H                                       1.0876167
    22   6 C       51   1 H                                       1.0866429

 * 3 distinct bonds (by element types)

   Z      Z             #   av. dist./Å        max./Å        min./Å
   1 H    6 C          29     1.0908219     1.0978788     1.0828819
   6 C    6 C          16     1.4966723     1.5399286     1.3475025
   6 C    8 O           2     1.2341155     1.2360357     1.2321953


optimized geometry written to: xtbopt.xyz


           -------------------------------------------------
          | TOTAL ENERGY              -65.935172135255 Eh   |
          | GRADIENT NORM               0.000393504169 Eh/α |
          | HOMO-LUMO GAP               0.707758733970 eV   |
           -------------------------------------------------

------------------------------------------------------------------------
 * finished run on 2024/12/20 at 01:52:25.765     
------------------------------------------------------------------------
 total:
 * wall-time:     0 d,  0 h,  0 min,  2.569 sec
 *  cpu-time:     0 d,  0 h,  0 min, 20.298 sec
 * ratio c/w:     7.902 speedup
 SCF:
 * wall-time:     0 d,  0 h,  0 min,  0.064 sec
 *  cpu-time:     0 d,  0 h,  0 min,  0.506 sec
 * ratio c/w:     7.964 speedup
 ANC optimizer:
 * wall-time:     0 d,  0 h,  0 min,  2.486 sec
 *  cpu-time:     0 d,  0 h,  0 min, 19.653 sec
 * ratio c/w:     7.904 speedup

