51
 energy: -65.885791846955 gnorm: 0.159974197151 xtb: 6.7.1 (edcfbbe)
C           -1.54715000000000        1.77078000000000        0.05838000000000
C           -0.89804000000000        1.86259000000000       -1.33075000000000
C            0.59648000000000        1.54776000000000       -1.37700000000000
C            1.29109000000000        1.02527000000000       -0.35014000000000
C            2.72125000000000        0.82594000000000       -0.37018000000000
C            3.32518000000000        0.06672000000000        0.55942000000000
C            3.62169000000000       -1.31743000000000        0.01889000000000
C            4.49476000000000       -1.28207000000000       -1.27407000000000
C            4.27366000000000       -0.02296000000000       -2.25677000000000
C            3.54705000000000        1.21799000000000       -1.56242000000000
C            2.79291000000000        2.20530000000000       -2.47688000000000
C            1.30787000000000        1.88790000000000       -2.66986000000000
C            5.67836000000000        0.53697000000000       -2.66451000000000
C            3.57992000000000       -0.49125000000000       -3.55531000000000
C            4.30512000000000       -1.62404000000000       -4.29248000000000
C            5.06011000000000       -2.59988000000000       -3.39306000000000
C            4.46922000000000       -2.69468000000000       -1.98013000000000
C            3.06466000000000       -3.33838000000000       -2.05180000000000
C            5.37202000000000       -3.76005000000000       -1.26432000000000
O            6.15567000000000       -3.32006000000000       -0.37858000000000
O            5.23088000000000       -4.95592000000000       -1.66017000000000
C           -1.69242000000000        0.99922000000000       -2.31463000000000
H           -1.56900000000000        0.73978000000000        0.42846000000000
H           -2.58190000000000        2.13008000000000        0.02326000000000
H           -1.01403000000000        2.39059000000000        0.78787000000000
H           -1.00828000000000        2.91049000000000       -1.64303000000000
H            0.79653000000000        0.73856000000000        0.57447000000000
H            4.32239000000000        0.39984000000000        0.87528000000000
H            2.65939000000000       -1.81535000000000       -0.13379000000000
H            4.13984000000000       -1.89332000000000        0.79608000000000
H            5.51504000000000       -1.12948000000000       -0.89276000000000
H            4.35143000000000        1.83719000000000       -1.13202000000000
H            3.28886000000000        2.32215000000000       -3.44593000000000
H            2.84948000000000        3.20011000000000       -2.01015000000000
H            1.17864000000000        1.05691000000000       -3.37182000000000
H            0.83698000000000        2.76302000000000       -3.13415000000000
H            6.32010000000000       -0.20293000000000       -3.14507000000000
H            5.57894000000000        1.37920000000000       -3.35879000000000
H            6.22697000000000        0.89741000000000       -1.78566000000000
H            3.47874000000000        0.33194000000000       -4.27133000000000
H            2.55758000000000       -0.80650000000000       -3.32669000000000
H            5.01516000000000       -1.20023000000000       -5.01445000000000
H            3.56953000000000       -2.17277000000000       -4.89349000000000
H            5.08337000000000       -3.57923000000000       -3.89023000000000
H            6.11540000000000       -2.30549000000000       -3.32853000000000
H            3.01194000000000       -4.10956000000000       -2.83011000000000
H            2.79193000000000       -3.82684000000000       -1.10883000000000
H            2.28055000000000       -2.61202000000000       -2.27859000000000
H           -2.75382000000000        1.27259000000000       -2.29626000000000
H           -1.34175000000000        1.13604000000000       -3.34271000000000
H           -1.61416000000000       -0.06453000000000       -2.06598000000000
51
 energy: -65.913643185706 gnorm: 0.059900063537 xtb: 6.7.1 (edcfbbe)
C           -1.53597056967927        1.76861312124010        0.05687932763995
C           -0.89629242471825        1.87153058933433       -1.33228365801090
C            0.58622660191194        1.53550841981649       -1.39468018249812
C            1.29207893622761        0.95553072922525       -0.39613937191958
C            2.70764061043238        0.79721241539986       -0.42372696921541
C            3.41508213293945        0.04700980669972        0.51710506227222
C            3.59054477343803       -1.37611434478650        0.04005464875276
C            4.46921540956599       -1.27576666148314       -1.26011691284048
C            4.26920318182013       -0.02258396485741       -2.23648458128351
C            3.56218809462338        1.25876478149768       -1.56417196839968
C            2.78243400529605        2.21733184974158       -2.47496124312989
C            1.29882924031851        1.88631087865137       -2.67646871870232
C            5.66341773137644        0.53109160639035       -2.64962700873713
C            3.57188141954025       -0.48214743688787       -3.53519171811577
C            4.30016770421395       -1.60752913156469       -4.28985943573609
C            5.05183491271538       -2.57843054271709       -3.38033868757056
C            4.44535203278479       -2.67834126934387       -1.97439468534945
C            3.05073337675908       -3.32248796641810       -2.05397446166576
C            5.36900720504235       -3.74024816212087       -1.23878385253642
O            6.15903051809201       -3.31296839609406       -0.37948093146800
O            5.24221368332450       -4.90880691780561       -1.65228111692568
C           -1.68953545155730        1.00238231999924       -2.31566940773768
H           -1.55573895448791        0.74070733357250        0.41849844132156
H           -2.56805208224518        2.12504109365907        0.01447732887246
H           -1.00282003920159        2.38355565049442        0.78187698198936
H           -1.00665180257554        2.91811756992107       -1.65275877089106
H            0.81505685883523        0.72046987115239        0.55003931027184
H            4.40483114587976        0.44730783389005        0.79696626110338
H            2.62638530353034       -1.84867624785388       -0.14621674192821
H            4.14667288630806       -1.95137446896797        0.78328247305818
H            5.49883294899941       -1.16419325910147       -0.89038394445200
H            4.38974920019219        1.83944516121684       -1.13243334022660
H            3.27747484481999        2.31519024495009       -3.44472933884313
H            2.83853900582772        3.20468072673946       -2.00077697634045
H            1.18682253447684        1.05308945863152       -3.37707865254905
H            0.82240301784566        2.75917441870162       -3.13819722077638
H            6.28691451395770       -0.21707320628723       -3.13379403287361
H            5.55860548667532        1.36863242930960       -3.34537630309961
H            6.21474185080506        0.88987118347584       -1.77849397679006
H            3.47772031660356        0.34877143843309       -4.24291237629716
H            2.55681961896529       -0.80809599746435       -3.30060453215465
H            5.00930622515009       -1.18328148318988       -5.01032966065378
H            3.56134860975284       -2.15977318219267       -4.88128684090399
H            5.06632806277101       -3.57091566658816       -3.84787302693872
H            6.10547177092445       -2.28807094932075       -3.29898581279481
H            3.03640907751197       -4.09709296831015       -2.82351628631624
H            2.80245314637197       -3.81700983784575       -1.11307162416537
H            2.26725689487745       -2.60037053108896       -2.28312970579193
H           -2.74765690442196        1.27219004841488       -2.29245166558718
H           -1.33469231776439        1.13531918582759       -3.33750335749975
H           -1.60367434485267       -0.05412757409586       -2.05996073556563
51
 energy: -65.922831769628 gnorm: 0.033853064176 xtb: 6.7.1 (edcfbbe)
C           -1.51642213380095        1.76693510938373        0.05249373533560
C           -0.88465479462877        1.87328993539197       -1.33666579064662
C            0.58827778420256        1.52888896784748       -1.40354682655073
C            1.29753957995467        0.90778920608796       -0.42514638470312
C            2.69810845713104        0.77840026631335       -0.45141667571503
C            3.48575314401251        0.03527540354205        0.46323214890381
C            3.58502793174722       -1.39434159784864        0.04768889385475
C            4.46134116808221       -1.27332285467246       -1.26019872016179
C            4.26457984431915       -0.02552397546335       -2.22214388656263
C            3.55425177279107        1.27432961300075       -1.56160086089640
C            2.77906412250823        2.23036457768968       -2.47218624159245
C            1.29912438182739        1.87996156371558       -2.68192828500996
C            5.65365341769202        0.51371215308064       -2.63116583183898
C            3.55434372876820       -0.47062790242633       -3.51317912153460
C            4.28733933259762       -1.58668548516177       -4.28163621117813
C            5.03978053776861       -2.55522350395045       -3.36999345557340
C            4.42389927033667       -2.66266520553306       -1.97363317622682
C            3.03845731851348       -3.31260329833007       -2.05653201578530
C            5.39383991239266       -3.71289362665994       -1.23595527461060
O            6.14384567627273       -3.28033973255309       -0.35924577719041
O            5.24133822328997       -4.87666588630712       -1.61553781317098
C           -1.68414352106454        1.00270271105601       -2.31739558191763
H           -1.52994140381611        0.73866234835716        0.40332922882054
H           -2.54773525162361        2.11963648158547        0.00899781507551
H           -0.98012407293133        2.37700019977595        0.77456945321552
H           -0.99556708202325        2.91887803588062       -1.66314683035566
H            0.81896291988256        0.64018423032270        0.50541349724405
H            4.47087666570339        0.46879579238994        0.69498508217426
H            2.61087927754948       -1.82765102401733       -0.15812745541051
H            4.14327311275386       -2.00522186987202        0.75666662935722
H            5.49103848691508       -1.19496642919382       -0.88436362714301
H            4.39465135424776        1.83288199022616       -1.13320885205840
H            3.26833542781741        2.32119714997393       -3.44413988969631
H            2.82266950991403        3.21454885805937       -1.99476991376814
H            1.21081977702723        1.04516445001508       -3.38417644322693
H            0.81313821188085        2.74528790096146       -3.14750611667926
H            6.25939985556008       -0.24107489849417       -3.12138462860832
H            5.53810290023805        1.35050264330165       -3.32359837912291
H            6.20752053657776        0.86853688111834       -1.76384115896075
H            3.45834368976869        0.37368519487284       -4.20293718039585
H            2.54847232049369       -0.80848828775166       -3.26604601765953
H            4.99135680180384       -1.15294064685901       -4.99940184469388
H            3.54597808473407       -2.13907164203894       -4.86641695326245
H            5.05138145636164       -3.55736576247120       -3.81125011547782
H            6.08904608694426       -2.26151871442338       -3.26847766794409
H            3.05333086775711       -4.08713409919741       -2.82106899727274
H            2.80194267590235       -3.80953592064840       -1.11728113643891
H            2.25043234105513       -2.59968962241645       -2.29140203348657
H           -2.74040402313274        1.27049799084467       -2.29023242362771
H           -1.32509142306296        1.13352587883916       -3.33469878145471
H           -1.58929425901187       -0.04771354734447       -2.05211210637149
51
 energy: -65.924860068306 gnorm: 0.041374369813 xtb: 6.7.1 (edcfbbe)
C           -1.49069653426588        1.76258310173808        0.04705331149584
C           -0.86853622139770        1.86748111458831       -1.34486113869000
C            0.59682818952436        1.51302099175619       -1.41547529115308
C            1.30338199568473        0.86813013550829       -0.44887682191421
C            2.70021998245450        0.76964984557475       -0.45985284382054
C            3.52485568513056        0.02761501583651        0.42255506514204
C            3.57956053942949       -1.39521587443845        0.05147368893647
C            4.45163707598345       -1.27028064224438       -1.26255944207713
C            4.26187376523226       -0.02492676401986       -2.21420450205381
C            3.55194346443362        1.28378737746533       -1.55521598389642
C            2.78222445642392        2.24137924807801       -2.46865112950473
C            1.30644778603452        1.87472371213768       -2.68949501318729
C            5.64814464722854        0.50339944215006       -2.61982048751885
C            3.53679578717833       -0.46286070639574       -3.49309652423729
C            4.27065428324841       -1.57155899351956       -4.27109595144483
C            5.02316690054151       -2.53980892627318       -3.35742757555608
C            4.40014056360170       -2.64943308095712       -1.96714697797921
C            3.02200485355618       -3.30530793962650       -2.05536397267041
C            5.35154801466888       -3.69938202906845       -1.17220288687033
O            6.16625909833977       -3.22325465473296       -0.37696152425279
O            5.29123788813486       -4.84817658460676       -1.62214389835828
C           -1.67646975959273        0.99774555616720       -2.32104813263632
H           -1.49928688379435        0.73260147866358        0.39080860612163
H           -2.52161571984886        2.11476777085166        0.01012695766148
H           -0.94657342775558        2.36841164198205        0.76597894886690
H           -0.97576827639976        2.91327262933352       -1.67430919786344
H            0.81388488853203        0.55265708483603        0.46068636555344
H            4.51171472384433        0.46759644951456        0.60875190255333
H            2.59364909003818       -1.79462193575119       -0.16623456002934
H            4.12720286792989       -2.04703528717918        0.73340145615011
H            5.47979623619638       -1.21272930520184       -0.88049018279843
H            4.39501543348734        1.83610737327467       -1.12870732446252
H            3.27011042548078        2.33899717871674       -3.43957704053531
H            2.80990831990665        3.22357884281102       -1.98710789039416
H            1.24035878214295        1.03774850946243       -3.39217575352008
H            0.80813023406092        2.73008778813845       -3.16149763359527
H            6.24032968991335       -0.25825800439343       -3.11216088161883
H            5.53283446596356        1.34321541519142       -3.30705484464985
H            6.20378912143505        0.84673515628962       -1.74999225386172
H            3.43024959790148        0.39027147136538       -4.16815252607514
H            2.53860636991004       -0.80821046896103       -3.22933976453479
H            4.96885299044246       -1.12519814786990       -4.98600805177346
H            3.52796102127865       -2.12163688582521       -4.85403316869533
H            5.03775063586262       -3.54342774562892       -3.78903286642071
H            6.06796817322954       -2.23873679159280       -3.24260162878623
H            3.05779838800669       -4.08223449414899       -2.81512342477551
H            2.78549723818858       -3.79869532780135       -1.11570940801871
H            2.22959393999470       -2.60168488488299       -2.30226832661600
H           -2.73125777631027        1.26741755193789       -2.28966411083648
H           -1.31633269407257        1.12650806112714       -3.33718325046806
H           -1.57725031713756       -0.04944446937829       -2.04823211433083
51
 energy: -65.927723176240 gnorm: 0.018982573610 xtb: 6.7.1 (edcfbbe)
C           -1.47023943843343        1.75550094149984        0.04370652228806
C           -0.85684378246739        1.85641301493230       -1.35245803154932
C            0.60597904537766        1.49527704537760       -1.42599595117469
C            1.30757224630674        0.84695509117094       -0.46147130031466
C            2.71074596538893        0.77128740279757       -0.45439238147755
C            3.52914312124176        0.02680318998370        0.41119088813361
C            3.57226574818308       -1.39063012857412        0.05139822345769
C            4.44405440869986       -1.26887080643388       -1.26479772289599
C            4.25968007185540       -0.02031814652720       -2.21274631897693
C            3.55788678259337        1.29087798293224       -1.55063650128643
C            2.78785604581462        2.24922562705461       -2.46554077365271
C            1.31596700176251        1.87276872833923       -2.69548095643230
C            5.64720968340574        0.50277972411406       -2.61821201447810
C            3.52324608966579       -0.45724929473832       -3.48279140693773
C            4.25292704165803       -1.56159428578477       -4.26749556833052
C            5.01204069424616       -2.52994778733970       -3.36008179017378
C            4.39548132350590       -2.64248017822033       -1.96897805637012
C            3.01999783836499       -3.30752525758817       -2.05168429070968
C            5.38403700236609       -3.67921770333544       -1.19410995999308
O            6.13870048138347       -3.19191133911233       -0.34867916752883
O            5.27553664677998       -4.84561805237923       -1.57762228916659
C           -1.67079568144128        0.98897431895383       -2.32482509580509
H           -1.47799425490245        0.72461276844220        0.38724952580620
H           -2.50049302096923        2.11094509692788        0.01642227921248
H           -0.91695635942591        2.35934940935617        0.75890087292327
H           -0.95845626368561        2.90306098996728       -1.68149932339347
H            0.80802689991167        0.50165207369261        0.43522137442178
H            4.52167564683879        0.45540851254900        0.57615568319005
H            2.57960198740923       -1.77652676235357       -0.16723307711195
H            4.10919003467779       -2.05934307742299        0.72619916342570
H            5.47194382465632       -1.21262477636508       -0.88338603630587
H            4.39784018821903        1.84782051025989       -1.12421780591014
H            3.28056843610503        2.35919822483613       -3.43261954702135
H            2.80477077204311        3.22980939554784       -1.97885122952027
H            1.26124715960927        1.03506504736476       -3.39835853938486
H            0.80925999981844        2.72176832502025       -3.17070480927789
H            6.23474679294929       -0.26212297541122       -3.11050975879648
H            5.54044529450190        1.34719341983155       -3.30081675201248
H            6.20423622757700        0.83459141333908       -1.74368365616412
H            3.40391306774303        0.39670867153051       -4.15330192820621
H            2.52911673652017       -0.80541222698985       -3.20551487982325
H            4.94723906333707       -1.10760292114147       -4.98139471784546
H            3.50997816267118       -2.11063980313576       -4.85072761845496
H            5.03307720253312       -3.53045951322957       -3.79540496810978
H            6.05415661197899       -2.22224063614193       -3.24386667389507
H            3.05818352172246       -4.08651794627959       -2.80922735691184
H            2.77830334799679       -3.79586281057924       -1.11004833068249
H            2.22055572116951       -2.61214942510328       -2.30494179113760
H           -2.72474426077780        1.26250184753031       -2.29070489318846
H           -1.31256088245674        1.11604037849573       -3.34252599148068
H           -1.57317999402879       -0.05835329766238       -2.05022527097079
51
 energy: -65.928506552140 gnorm: 0.007495931143 xtb: 6.7.1 (edcfbbe)
C           -1.45019944207839        1.74191682875806        0.03899703739317
C           -0.84728147484526        1.83804138615554       -1.36210289622280
C            0.61653308334884        1.48111919250958       -1.43591047371418
C            1.31340533279519        0.83538218475059       -0.47116191668918
C            2.72227695280029        0.77993186345003       -0.44662697762126
C            3.52954525963478        0.03394418764352        0.40773647570264
C            3.55908483619844       -1.38566004462717        0.05162102867227
C            4.43539251534310       -1.26717871099119       -1.26445741326936
C            4.25592284851405       -0.01230927846191       -2.21098123186328
C            3.56425380904218        1.30198497192190       -1.54831057394647
C            2.79492757153252        2.26313572485211       -2.46029427894794
C            1.32897031796393        1.87435393046497       -2.70011467906526
C            5.64852572518912        0.50246703617026       -2.61662336405212
C            3.51061975098072       -0.44939810704740       -3.47531733239481
C            4.23491201603751       -1.55263591442728       -4.26381865822105
C            4.99848447350495       -2.52489113223595       -3.36326883016084
C            4.38838896722678       -2.63986783277802       -1.96892807335327
C            3.01515879547469       -3.31221783566464       -2.04721849709841
C            5.38440050265415       -3.66935686617506       -1.19166410747239
O            6.13435832256316       -3.16976159380098       -0.34685445173967
O            5.27718599087271       -4.84145022591192       -1.56022888460713
C           -1.66625647480908        0.97332996015255       -2.33129229783021
H           -1.45931681163443        0.71172406200418        0.38566890509939
H           -2.47871974629645        2.10330956260794        0.02299646004398
H           -0.88517520625770        2.34427750530663        0.74743604707269
H           -0.94488913761876        2.88493748901105       -1.69028290953410
H            0.80778774857432        0.47152105844881        0.41517828008669
H            4.52592655842190        0.44891288280918        0.56788036213536
H            2.56274416654320       -1.76420576551085       -0.16414952687714
H            4.08846023298363       -2.05716006761918        0.72625459123760
H            5.46188297892314       -1.20893118274194       -0.87875658044406
H            4.40425676269026        1.86156557242602       -1.12391238615991
H            3.29735885971945        2.38557412781756       -3.42150569228336
H            2.80212345165997        3.24016962369370       -1.96484701922647
H            1.28380805899082        1.03891515607623       -3.40604877092769
H            0.81696441489396        2.71975289492355       -3.17454850369490
H            6.23480264957307       -0.26078895563922       -3.11339965810366
H            5.54959835892937        1.35253890562169       -3.29322157796633
H            6.20771644305295        0.82518686169947       -1.73917199256901
H            3.37889133283564        0.40122730702856       -4.14732275687624
H            2.52042488812279       -0.80061356316417       -3.18537651330457
H            4.92644392435268       -1.09651667141003       -4.97903114281381
H            3.48989919061629       -2.09952030457500       -4.84693419776611
H            5.02191438085732       -3.52156688856123       -3.80725361107592
H            6.04016153676809       -2.21482467785169       -3.25181255826280
H            3.05437466143501       -4.09854091330239       -2.79794218496558
H            2.77024390147243       -3.79150251355935       -1.10100292010180
H            2.21178713551747       -2.62314665516309       -2.30901669304231
H           -2.71946848043838        1.25046064129919       -2.29585129432637
H           -1.31028316751554        1.09862513108864       -3.35062550672812
H           -1.57218876711606       -0.07489034747540       -2.05790025212508
51
 energy: -65.929007850486 gnorm: 0.007437596106 xtb: 6.7.1 (edcfbbe)
C           -1.42605666135862        1.72087696704562        0.02991459036677
C           -0.83653427338131        1.81337615823607       -1.37691042054718
C            0.63012717531031        1.46733913029965       -1.44964287502729
C            1.32221535432355        0.82221233505022       -0.48490541165300
C            2.73490823404099        0.79132717506849       -0.43787654074430
C            3.53362201989128        0.04231784020729        0.40546681950949
C            3.54434458345768       -1.37904978020656        0.05372258990887
C            4.42367392711686       -1.26259749768557       -1.26308704591043
C            4.25115885124893       -0.00103212096347       -2.20833998572989
C            3.57390629119211        1.31769699080044       -1.54326507297509
C            2.80413191989284        2.28140567195525       -2.45046417421773
C            1.34565041206614        1.88230099179242       -2.70604637527174
C            5.64868909032849        0.50275659397059       -2.61464494084677
C            3.49471927767900       -0.43842806794570       -3.46535186465379
C            4.21060627286836       -1.54077476853993       -4.26027101099605
C            4.97846177059760       -2.51799499976362       -3.36716897702991
C            4.37893873388628       -2.63529193853583       -1.96773817175981
C            3.00893275479910       -3.31566475224156       -2.03790337318328
C            5.37969263986404       -3.65942612744942       -1.18720337610043
O            6.13718033094931       -3.15193648275905       -0.35435475790664
O            5.27521906808330       -4.83352145058205       -1.54672287181999
C           -1.65832550446329        0.94776854763991       -2.34111281496383
H           -1.43754236457611        0.69151569829342        0.37927196533985
H           -2.45180011349704        2.09011953602184        0.02806615638913
H           -0.84560744342479        2.32003277020830        0.72920107181300
H           -0.93500371548269        2.85946839581479       -1.70584351031035
H            0.81230957541290        0.44387104868530        0.39132839383892
H            4.53318582434691        0.44254449231803        0.56835001830047
H            2.54310645888809       -1.74445500757337       -0.16340537152192
H            4.06478229431371       -2.05603700397300        0.72783188884704
H            5.44902633946477       -1.20562519310774       -0.87276602095404
H            4.41754344684204        1.87569015880220       -1.12232882617092
H            3.31894544085028        2.42045807358122       -3.40388716693010
H            2.79869411801624        3.25238966706392       -1.94243319476600
H            1.31240753966390        1.05268146275427       -3.41842318370705
H            0.82790024451539        2.72550179550848       -3.17633111975139
H            6.22990621624934       -0.25987591000318       -3.11902026081908
H            5.55817729646123        1.36029824268329       -3.28324031775836
H            6.21157344190946        0.81246746868408       -1.73430975666029
H            3.34999101831367        0.40932698355319       -4.13852140686524
H            2.51003005183938       -0.79321225510282       -3.15948582083292
H            4.89899403126124       -1.08453570654474       -4.97834513344802
H            3.46042235729775       -2.08396192214813       -4.84100709055236
H            4.99867612505323       -3.51166440935900       -3.81949197691948
H            6.02117066929637       -2.20921651162466       -3.26370076319096
H            3.05303672501951       -4.11521344087917       -2.77544470140624
H            2.76218032550819       -3.78035002962277       -1.08430788706366
H            2.20183808971996       -2.63559214107984       -2.31453750570369
H           -2.71074076106777        1.22798759740731       -2.30472679442297
H           -1.30460800071652        1.07013996709018       -3.36205319757982
H           -1.56771749987053       -0.10104424285019       -2.06785242564335
51
 energy: -65.929285487199 gnorm: 0.008984882673 xtb: 6.7.1 (edcfbbe)
C           -1.41221043685327        1.70322739516288        0.02063476741490
C           -0.83039797599925        1.79482216924213       -1.38919806582298
C            0.64012862065460        1.46263267805267       -1.45929213127158
C            1.33049148432266        0.81926576737080       -0.49334517432886
C            2.74311146478777        0.80175532802396       -0.43195946202381
C            3.53739587131343        0.04789028619462        0.40788625490836
C            3.53547562251653       -1.37343978303136        0.05462278119759
C            4.41817552869228       -1.25899486089933       -1.26079595151389
C            4.24888257622775        0.00596874530104       -2.20514564179441
C            3.58156978408700        1.32829045589912       -1.53895102742837
C            2.81231019218887        2.29621413514800       -2.44109817855570
C            1.35833614275459        1.89366660687108       -2.70893311774963
C            5.64830028328142        0.50193663440818       -2.61449304787707
C            3.48378303614074       -0.42925408867261       -3.45741236492209
C            4.19167563313988       -1.53208409230208       -4.25777506797330
C            4.96148824238722       -2.51383068992253       -3.37060419258013
C            4.37106943413235       -2.63179595840038       -1.96716975881762
C            3.00318752095012       -3.31669533542279       -2.02833825268361
C            5.37636584512293       -3.65271870728277       -1.18831478977145
O            6.14369888973898       -3.14162867057813       -0.36697854503994