24
 energy: -33.427913994616 gnorm: 0.115052463961 xtb: 6.7.1 (edcfbbe)
C            0.93247000000000       -0.01277000000000       -0.06434000000000
C            0.60487000000000        1.31981000000000       -0.73860000000000
C            0.60487000000000       -1.19304000000000       -0.97940000000000
N            0.38402000000000       -0.14455000000000        1.31090000000000
C            1.25947000000000       -0.24283000000000        2.33635000000000
O            0.78377000000000       -0.35465000000000        3.50315000000000
O            2.49297000000000       -0.21609000000000        2.05725000000000
C           -1.06790000000000       -0.17493000000000        1.62786000000000
C           -1.80291000000000        1.12462000000000        1.29824000000000
C           -1.80291000000000       -1.38823000000000        1.05744000000000
H            2.02629000000000       -0.01763000000000       -0.01348000000000
H            1.25947000000000        1.47540000000000       -1.60400000000000
H           -0.41930000000000        1.35079000000000       -1.11628000000000
H            0.75480000000000        2.15913000000000       -0.05209000000000
H            0.75481000000000       -2.14746000000000       -0.46477000000000
H           -0.41929000000000       -1.15174000000000       -1.35609000000000
H            1.25948000000000       -1.18145000000000       -1.85860000000000
H           -1.19392000000000       -0.27869000000000        2.71063000000000
H           -2.01190000000000        1.22156000000000        0.23079000000000
H           -2.77319000000000        1.14860000000000        1.80774000000000
H           -1.23155000000000        1.99811000000000        1.62810000000000
H           -1.23155000000000       -2.30847000000000        1.21540000000000
H           -2.77319000000000       -1.50854000000000        1.55311000000000
H           -2.01190000000000       -1.28069000000000       -0.00900000000000
24
 energy: -33.439733877243 gnorm: 0.065131070180 xtb: 6.7.1 (edcfbbe)
C            0.90965718957230       -0.01317434328538       -0.06008060449878
C            0.59205784432840        1.31810267536022       -0.74787789025775
C            0.59206323275414       -1.18960252778903       -0.98818197051408
N            0.36687431108904       -0.14262686122728        1.29081448710427
C            1.27038493728187       -0.24405902914496        2.34913674963884
O            0.79210754047364       -0.35446956248062        3.50127558599015
O            2.48978564361623       -0.21684429563408        2.06514373669770
C           -1.05999425492389       -0.17284825110233        1.60613407803023
C           -1.80979774459218        1.12339057025678        1.28395402051740
C           -1.80979543470095       -1.38431072701597        1.04364449381567
H            2.00002801247049       -0.02830691883074        0.09789008205410
H            1.26514079584788        1.46585131050141       -1.59680920155189
H           -0.42875692863278        1.35553910669765       -1.12732823913382
H            0.74168858130078        2.14250778299425       -0.05265781117060
H            0.74169982444735       -2.13103384195106       -0.46217473728823
H           -0.42874796517295       -1.15430212534454       -1.36783737912419
H            1.26514936794731       -1.17344214064234       -1.84972307945815
H           -1.07925570622531       -0.27794070552122        2.70279827427359
H           -2.02166831750690        1.22629085151769        0.22001137267267
H           -2.76614877445714        1.13915904102464        1.81375907858407
H           -1.22844042584292        1.98280060008190        1.61380791370772
H           -1.22843787151016       -2.29072486837563        1.20427803632199
H           -2.76614600723945       -1.50041192670621        1.56081249048792
H           -2.02166785032481       -1.28328381338317       -0.02047948689882
24
 energy: -33.443136819565 gnorm: 0.024729837215 xtb: 6.7.1 (edcfbbe)
C            0.89800958595102       -0.01357446744035       -0.05538924702967
C            0.59403934166435        1.31781570353816       -0.75616560201135
C            0.59429662301638       -1.18766010322124       -0.99630794640569
N            0.34644260145028       -0.14047980235701        1.26686975835933
C            1.27695537829215       -0.24474525600762        2.35684871396849
O            0.78848305724028       -0.35343108527423        3.49136738075221
O            2.48054172925757       -0.21606011105742        2.06001037507414
C           -1.05346742725080       -0.17204642971168        1.59542755077007
C           -1.81785816395128        1.12214642533351        1.28452718357866
C           -1.81868046011622       -1.38334685945902        1.04455752003660
H            1.98305292345116       -0.03514759128163        0.17112330478019
H            1.27743804901331        1.45482279232907       -1.59498900467661
H           -0.42243640208081        1.35026481263325       -1.14187944717390
H            0.73459808744183        2.13851712202075       -0.05906393198847
H            0.73502062151503       -2.12578334249547       -0.46774973191457
H           -0.42218537748195       -1.14643607162700       -1.38116573545485
H            1.27771883422646       -1.16271345586761       -1.84586259286178
H           -1.00391884030384       -0.27760476459235        2.69792413860410
H           -2.03616438442524        1.21925347180551        0.22340659674626
H           -2.76499503088904        1.12706044016548        1.82523745072732
H           -1.23288781515920        1.97884567488870        1.60561475381072
H           -1.23367335706725       -2.28545225317690        1.19705353282399
H           -2.76571603426129       -1.49076005301122        1.57463803154201
H           -2.03683353953292       -1.27722479613367       -0.01572305205717
24
 energy: -33.443647282129 gnorm: 0.011533618996 xtb: 6.7.1 (edcfbbe)
C            0.90145081455073       -0.01386122263138       -0.05295465812372
C            0.59978197431694        1.31567332859665       -0.76214648682846
C            0.59995169632716       -1.18451403774237       -1.00177222292428
N            0.34302252475656       -0.14009110331909        1.26286049618664
C            1.28496822218443       -0.24558749046936        2.36623667401016
O            0.78907850827566       -0.35384533496565        3.49443304338876
O            2.48349864781422       -0.21632725875859        2.06106669571340
C           -1.05160105268047       -0.17223316253035        1.59921828028410
C           -1.82476679106923        1.11910422627382        1.28902970498775
C           -1.82494587631225       -1.38108552792985        1.04942520418634
H            1.98260247858919       -0.03543156135018        0.17320497479026
H            1.28700891566420        1.44889694840500       -1.59776932289038
H           -0.41549605707936        1.34408977765459       -1.15261244448702
H            0.73477832319369        2.13933198941553       -0.06755784240211
H            0.73511787864159       -2.12507532997006       -0.47626172663419
H           -0.41536427519927       -1.13840080369556       -1.39045129475571
H            1.28713187655378       -1.15648767137964       -1.84751686569882
H           -1.00177567223101       -0.27757831516300        2.69781933694621
H           -2.04738518064821        1.21176073021184        0.22793445981844
H           -2.76903511258505        1.12022309703154        1.83371299033076
H           -1.24155962854944        1.97900796446914        1.60446489756840
H           -1.24191538730596       -2.28538473863440        1.19579435826235
H           -2.76914235563121       -1.48540375678475        1.58409190012685
H           -2.04762447157668       -1.27052074673386       -0.00994015185568
24
 energy: -33.443847075188 gnorm: 0.003003596616 xtb: 6.7.1 (edcfbbe)
C            0.90397891742502       -0.01401052817060       -0.05185204998027
C            0.60476303439011        1.31526472171503       -0.76617490134849
C            0.60486366655408       -1.18338785407136       -1.00569940007770
N            0.34221595926277       -0.14008653092816        1.26190487109100
C            1.29447637447919       -0.24696603827851        2.37733892747458
O            0.79070471887091       -0.35404790043685        3.49987754689876
O            2.48860594035918       -0.21625558882267        2.06355683417701
C           -1.05090873349647       -0.17250410401277        1.60188150195883
C           -1.82952392741363        1.11794309409514        1.29321892285763
C           -1.82966089671485       -1.38071139940502        1.05368593342098
H            1.98270347073122       -0.03487111220311        0.16624476879721
H            1.29556492502352        1.44496524905896       -1.59937221419373
H           -0.40922793628595        1.33974020385439       -1.16192357140610
H            0.73485319862149        2.14392908541835       -0.07577644825957
H            0.73511367916725       -2.12809816123031       -0.48530058713296
H           -0.40916708436664       -1.13237321868827       -1.39880194493261
H            1.29559796865375       -1.15234362024699       -1.84841252031388
H           -1.00868040736075       -0.27748409436493        2.69679913890158
H           -2.05716725243074        1.20619086784219        0.23218788394181
H           -2.77163337732081        1.11533333318160        1.84154887874031
H           -1.25017590847448        1.98298394122424        1.60357597393231
H           -1.25044082932772       -2.28903155050257        1.19406815010683
H           -2.77179110113328       -1.48216201572686        1.59252166650798
H           -2.05728439921317       -1.26575677930092       -0.00478736116147
24
 energy: -33.443857623607 gnorm: 0.001561242204 xtb: 6.7.1 (edcfbbe)
C            0.90400806741380       -0.01396342844528       -0.05162896334736
C            0.60462350624018        1.31499940597611       -0.76656417053700
C            0.60477542889202       -1.18305399568609       -1.00589808797849
N            0.34298060276336       -0.13982220180734        1.26283338887596
C            1.29690270840034       -0.24630480843401        2.38026672183608
O            0.79125388901785       -0.35498562271684        3.50127130039300
O            2.48997728142662       -0.21714613886756        2.06425016856568
C           -1.05069718940995       -0.17243661097133        1.60195461767371
C           -1.82985861612438        1.11766962949597        1.29300256037009
C           -1.82987148854214       -1.38037878754416        1.05359243103046
H            1.98357929389208       -0.03457721799940        0.16437760604119
H            1.29638280927085        1.44487685309773       -1.59915364406729
H           -0.40895507235796        1.33943319146156       -1.16350563773629
H            0.73398968597476        2.14430265323704       -0.07665194262559
H            0.73430856572400       -2.12826910284893       -0.48604104528190
H           -0.40883388189475       -1.13183196577599       -1.40020123249408
H            1.29646223607242       -1.15236868621125       -1.84805760104266
H           -1.01068020002708       -0.27740503272503        2.69737176558100
H           -2.05873267834673        1.20575360421920        0.23217260230887
H           -2.77154602571472        1.11516139211369        1.84238280607718
H           -1.25095106638979        1.98337949906876        1.60263682800959
H           -1.25101805536702       -2.28917179861348        1.19315968662728
H           -2.77159155502028       -1.48223763855346        1.59340169783144
H           -2.05872824589348       -1.26536319146991       -0.00466185611081
24
 energy: -33.443850188063 gnorm: 0.002199405581 xtb: 6.7.1 (edcfbbe)
C            0.90405632046222       -0.01389101499940       -0.05129697422522
C            0.60442010881525        1.31460426375157       -0.76715021793864
C            0.60465101810295       -1.18255521338345       -1.00619607390524
N            0.34411640138249       -0.13941903719946        1.26421361514739
C            1.30051112592329       -0.24529191394701        2.38462375840269
O            0.79207146948851       -0.35640726997643        3.50334154068305
O            2.49201662475960       -0.21849757350397        2.06527960093778
C           -1.05038338997483       -0.17233433420196        1.60206838120728
C           -1.83036397068518        1.11726141939700        1.29268352405942
C           -1.83018846625373       -1.37988272084838        1.05345984335112
H            1.98488387352823       -0.03413575758626        0.16159992304029
H            1.29760315444436        1.44474016036045       -1.59883648829929
H           -0.40854611202357        1.33897680289338       -1.16586454891332
H            0.73271245222139        2.14486046393111       -0.07796491346662
H            0.73312113694850       -2.12852196356727       -0.48714689585705
H           -0.40833251603992       -1.13102730989977       -1.40228386635214
H            1.29775381801047       -1.15240108354425       -1.84753261597037
H           -1.01365587216251       -0.27728331743310        2.69822559457722
H           -2.06106734898869        1.20510264954919        0.23215193187465
H           -2.77142396936493        1.11489951855604        1.84362522722377
H           -1.25211591729112        1.98396849398633        1.60124516102330
H           -1.25188274799128       -2.28938029404438        1.19181761238752
H           -2.77129902121902       -1.48234618322576        1.59471661567477
H           -2.06087817209247       -1.26477878506420       -0.00446973466232
24
 energy: -33.443857341536 gnorm: 0.001363067274 xtb: 6.7.1 (edcfbbe)
C            0.90355449380698       -0.01413948274929       -0.05141511224271
C            0.60386868472034        1.31474137700520       -0.76618446288881
C            0.60385919666992       -1.18290756820734       -1.00572820626816
N            0.34411011030165       -0.14060783500385        1.26409237099406
C            1.29965725980677       -0.24856480322210        2.38329957032539
O            0.79179153739700       -0.35340934926203        3.50303298889615
O            2.49147772180531       -0.21552954247367        2.06518815409525
C           -1.05039497720044       -0.17254462683151        1.60153612087208
C           -1.82933900375719        1.11752332653931        1.29231851913042
C           -1.82956750466848       -1.38012325733530        1.05273125435379
H            1.98458005554567       -0.03463193680039        0.16198360264864
H            1.29662863704799        1.44548750147435       -1.59809136382792
H           -0.40915549267346        1.33926314077289       -1.16452794945076
H            0.73229323422896        2.14440801238926       -0.07637042826371
H            0.73240977906152       -2.12853000897845       -0.48615495756113
H           -0.40919942488831       -1.13134170039576       -1.40138974340887
H            1.29659755397521       -1.15306556446582       -1.84733836125974
H           -1.01318294236323       -0.27772899565871        2.69795176657845
H           -2.05967489607050        1.20555048538453        0.23180286159693
H           -2.77061012958314        1.11579724682215        1.84284899772137
H           -1.25043589542657        1.98367773245762        1.60107310535742
H           -1.25080044014647       -2.28925100845223        1.19128811045681
H           -2.77085864993286       -1.48287120301504        1.59356038976522
H           -2.05982890765670       -1.26494193999382       -0.00519722762012
24
 energy: -33.443855984178 gnorm: 0.001607456068 xtb: 6.7.1 (edcfbbe)
C            0.90275694103808       -0.01391933568382       -0.05165826044273
C            0.60269772343155        1.31535178493467       -0.76475386226441
C            0.60289112193911       -1.18373731623042       -1.00411117339250
N            0.34342852098358       -0.13969501717609        1.26337461317153
C            1.29609049683898       -0.24577197733032        2.37935091072598
O            0.79083654900937       -0.35529674344999        3.50056884677175
O            2.48938937595310       -0.21750981259100        2.06368184964188
C           -1.05052647066953       -0.17228148145874        1.60072767796105
C           -1.82779897391604        1.11833993455826        1.29145846081826
C           -1.82774770881191       -1.38074004836450        1.05198377638310
H            1.98324035987076       -0.03450172065915        0.16430384668405
H            1.29401090602032        1.44682119049517       -1.59747497596262
H           -0.41080520841314        1.33959831740827       -1.16146075933099
H            0.73164742008298        2.14359853605878       -0.07357129195151
H            0.73197253675092       -2.12813889018801       -0.48276725327900
H           -0.41062892716689       -1.13239359010696       -1.39817446050350
H            1.29413510088355       -1.15465141705356       -1.84669907484424
H           -1.01070159610226       -0.27732857242663        2.69703369809680
H           -2.05641017639081        1.20626900901047        0.23072312520606
H           -2.76971159099371        1.11744183199542        1.84047859371675
H           -1.24748301143587        1.98313158589711        1.60084315597842
H           -1.24746049699821       -2.28857868255106        1.19145264197761
H           -2.76967943292268       -1.48414357265771        1.59113984739893
H           -2.05636345898127       -1.26560401243020       -0.00613993256059
24
 energy: -33.443861698180 gnorm: 0.000111413258 xtb: 6.7.1 (edcfbbe)
C            0.90329379872285       -0.01402880726648       -0.05136166457787
C            0.60315098968878        1.31494670051040       -0.76548635026425
C            0.60325960161933       -1.18322265251121       -1.00487061927295
N            0.34393017949766       -0.14009984310502        1.26392796509636
C            1.29824947220057       -0.24702575460246        2.38177998091716
O            0.79142067954757       -0.35455876278584        3.50203942323667
O            2.49067220212255       -0.21672726675113        2.06455776874128
C           -1.05030989292758       -0.17241470308514        1.60129883647870
C           -1.82855158589497        1.11784287920996        1.29175394615893
C           -1.82860186661589       -1.38031731264909        1.05225857303294
H            1.98404272844529       -0.03451518322913        0.16281794519594
H            1.29545187815179        1.44648278118325       -1.59752221355583
H           -0.41000915228311        1.33905965552292       -1.16340425239870
H            0.73124969963916        2.14385551530549       -0.07482887732577
H            0.73148520491326       -2.12820754175873       -0.48422370818997
H           -0.40992671497348       -1.13140762793136       -1.40006610968299
H            1.29552959005134       -1.15425266695590       -1.84676780122129
H           -1.01228647309566       -0.27751791969347        2.69757377231964
H           -2.05839301794712        1.20552146676058        0.23114111501484
H           -2.76995772995131        1.11694248572339        1.84186154091429
H           -1.24869336310797        1.98333664771315        1.60028425168887
H           -1.24880381228523       -2.28870413289621        1.19073989108605
H           -2.77002332204194       -1.48388545872867        1.59250470077709
H           -2.05839909347590       -1.26484249797929       -0.00569811416909
24
 energy: -33.443861792658 gnorm: 0.000072245115 xtb: 6.7.1 (edcfbbe)
C            0.90320556850589       -0.01403925730853       -0.05137001895563
C            0.60303613072934        1.31502628005029       -0.76533550855021
C            0.60313488518787       -1.18332997169488       -1.00476777119351
N            0.34394990937124       -0.14014893392114        1.26394611651623
C            1.29823723564571       -0.24718897183371        2.38174742773685
O            0.79141264055526       -0.35440757452418        3.50204814836165
O            2.49066972925152       -0.21658662658867        2.06455830810315
C           -1.05030194709227       -0.17241628465081        1.60121148198372
C           -1.82839402750645        1.11794560122558        1.29167964013209
C           -1.82846727417016       -1.38040199378092        1.05214239239179
H            1.98398438187793       -0.03452399928546        0.16280658729994
H            1.29552370022686        1.44682133899984       -1.59717160682420
H           -0.41001328865224        1.33889974968872       -1.16352680885122
H            0.73073319369945        2.14389178570119       -0.07454755352801
H            0.73094830808327       -2.12829854188737       -0.48398827851502
H           -0.40993368461289       -1.13123388690371       -1.40020080906709
H            1.29559618686384       -1.15465490189568       -1.84651223473672
H           -1.01228568559641       -0.27752621059410        2.69751483345351
H           -2.05848812489327        1.20536376722483        0.23110886311693
H           -2.76966380113899        1.11729478664463        1.84201633800289
H           -1.24834169532657        1.98344179632844        1.59984696570715
H           -1.24848301320636       -2.28872745966106        1.19025479845045
H           -2.76974889627701       -1.48425839019021        1.59256814479759
H           -2.05853043152555       -1.26468210114309       -0.00571945583229
