24
 energy: -33.443861792677 gnorm: 0.000072267076 xtb: 6.7.1 (edcfbbe)
C            0.90320556850589       -0.01403925730853       -0.05137001895563
C            0.60303613072934        1.31502628005029       -0.76533550855021
C            0.60313488518787       -1.18332997169488       -1.00476777119351
N            0.34394990937124       -0.14014893392114        1.26394611651623
C            1.29823723564571       -0.24718897183371        2.38174742773685
O            0.79141264055526       -0.35440757452418        3.50204814836165
O            2.49066972925152       -0.21658662658867        2.06455830810315
C           -1.05030194709227       -0.17241628465081        1.60121148198372
C           -1.82839402750645        1.11794560122558        1.29167964013209
C           -1.82846727417016       -1.38040199378092        1.05214239239179
H            1.98398438187793       -0.03452399928546        0.16280658729994
H            1.29552370022686        1.44682133899984       -1.59717160682420
H           -0.41001328865224        1.33889974968872       -1.16352680885122
H            0.73073319369945        2.14389178570119       -0.07454755352801
H            0.73094830808327       -2.12829854188737       -0.48398827851502
H           -0.40993368461289       -1.13123388690371       -1.40020080906709
H            1.29559618686384       -1.15465490189568       -1.84651223473672
H           -1.01228568559641       -0.27752621059410        2.69751483345351
H           -2.05848812489327        1.20536376722483        0.23110886311693
H           -2.76966380113899        1.11729478664463        1.84201633800289
H           -1.24834169532657        1.98344179632844        1.59984696570715
H           -1.24848301320636       -2.28872745966106        1.19025479845045
H           -2.76974889627701       -1.48425839019021        1.59256814479759
H           -2.05853043152555       -1.26468210114309       -0.00571945583229
