14
 energy: -25.881533587153 gnorm: 0.072042626552 xtb: 6.7.1 (edcfbbe)
C            0.98596000000000       -0.00494000000000        0.06589000000000
C            0.18271000000000        0.75671000000000       -0.97182000000000
C           -0.96179000000000        1.48510000000000       -0.60717000000000
C           -1.70226000000000        2.18695000000000       -1.56181000000000
C           -1.30890000000000        2.17107000000000       -2.89882000000000
C           -0.17629000000000        1.45423000000000       -3.28080000000000
C            0.56261000000000        0.75332000000000       -2.32425000000000
O            0.57375000000000        0.04233000000000        1.26844000000000
O            2.01280000000000       -0.63503000000000       -0.34263000000000
H           -1.26868000000000        1.49709000000000        0.43761000000000
H           -2.58272000000000        2.74229000000000       -1.25467000000000
H           -1.88338000000000        2.71580000000000       -3.64099000000000
H            0.13790000000000        1.43583000000000       -4.31950000000000
H            1.44767000000000        0.19310000000000       -2.62210000000000
14
 energy: -25.884629147462 gnorm: 0.030901061997 xtb: 6.7.1 (edcfbbe)
C            0.98483239956391       -0.00389226071223        0.06444147225400
C            0.17664949445616        0.76245289860921       -0.97965066411952
C           -0.95702816130674        1.48343422591757       -0.61553765977530
C           -1.69256062019545        2.18008855261555       -1.56119916263513
C           -1.30336511146449        2.16582414338662       -2.89167021641227
C           -0.17646336332366        1.45205694289666       -3.26910395563852
C            0.55534393038677        0.75735944834914       -2.31912075933624
O            0.57061039291044        0.04945643386743        1.24420972427035
O            1.99285097555747       -0.62024176698266       -0.34823203406544
H           -1.25281511596202        1.48813629540543        0.42598961072816
H           -2.57250208061534        2.73585846206308       -1.25820856955516
H           -1.87748244108306        2.71020978141266       -3.63336897577528
H            0.13426721720564        1.43601973088755       -4.30745390275721
H            1.43704248387036        0.19708711228401       -2.60371490718243
14
 energy: -25.885240714032 gnorm: 0.010752143677 xtb: 6.7.1 (edcfbbe)
C            0.98998653012456       -0.00869017821242        0.07106079108725
C            0.17282987286298        0.76609720563589       -0.98459585856670
C           -0.95667285513812        1.48371119908213       -0.61847021866039
C           -1.69051145135394        2.17860393267687       -1.56095578407994
C           -1.30209915735564        2.16461626654434       -2.89003131930022
C           -0.17640100605227        1.45153262446188       -3.26661686908159
C            0.55292430425226        0.75905647822220       -2.31886389578725
O            0.56843394263994        0.05247269947943        1.23694874358809
O            1.98689909007624       -0.61566178947655       -0.35142238034586
H           -1.24358186577743        1.48209021582224        0.42358350188424
H           -2.57135765815550        2.73592633724677       -1.26247846324011
H           -1.87616791426362        2.70894731315492       -3.63166211262744
H            0.13063018233931        1.43830051625786       -4.30639724906565
H            1.43446798580123        0.19684717910445       -2.59271888580443
14
 energy: -25.885385563922 gnorm: 0.004372598150 xtb: 6.7.1 (edcfbbe)
C            0.99479559599887       -0.01362358099071        0.07743025863498
C            0.17137027037885        0.76739051915660       -0.98644321503839
C           -0.95788256195614        1.48451194735411       -0.61842407544964
C           -1.69168840348387        2.17946885256782       -1.56109023312686
C           -1.30246616886140        2.16499468091093       -2.89051832007765
C           -0.17642884317505        1.45183880366195       -3.26805145982410
C            0.55303732248176        0.75923282743702       -2.32030088283977
O            0.56739326763791        0.05320053304248        1.23909274322724
O            1.98871450811123       -0.61666500639883       -0.35275745445215
H           -1.24130800102689        1.48011818696481        0.42479720719908
H           -2.57330896787911        2.73787662726582       -1.26543888013800
H           -1.87652816612385        2.70935105431771       -3.63215332617274
H            0.12833274616591        1.44044040753889       -4.30895191725077
H            1.43534740173178        0.19571414717139       -2.58981044469123
14
 energy: -25.885417094316 gnorm: 0.001007555750 xtb: 6.7.1 (edcfbbe)
C            0.99894297429818       -0.01568096359975        0.08199791900904
C            0.17108441544984        0.76810221707998       -0.98699670524760
C           -0.95884435625060        1.48516724586505       -0.61790527339282
C           -1.69308344799575        2.18037993623655       -1.56133363850823
C           -1.30300160679124        2.16535184012482       -2.89114644655630
C           -0.17653622056092        1.45220747909521       -3.26968678471664
C            0.55361218408897        0.75924267918037       -2.32144218845741
O            0.56687732129295        0.05217951204692        1.24203439034719
O            1.99065920924536       -0.61928625652890       -0.35289817432296
H           -1.24163775284661        1.48034945451912        0.42597882310769
H           -2.57508306522190        2.73925135240641       -1.26705960312936
H           -1.87715968261058        2.70964505919016       -3.63284119364825
H            0.12708430221822        1.44163214374102       -4.31110910147714
H            1.43646572568409        0.19530830064303       -2.59021202300721
14
 energy: -25.885395172009 gnorm: 0.003470728076 xtb: 6.7.1 (edcfbbe)
C            0.99603930725394       -0.02270860962590        0.08236910196685
C            0.17009404706224        0.76670137762612       -0.98729563730861
C           -0.95942873579962        1.48481402220060       -0.61784467728168
C           -1.69343901220071        2.18098281373867       -1.56146856845716
C           -1.30285920625484        2.16601610119918       -2.89130051172055
C           -0.17648209553964        1.45265362138475       -3.27027019391244
C            0.55342733047665        0.75871826172975       -2.32183325369851
O            0.56996292572982        0.05540052785998        1.24416972673444
O            1.99415352527474       -0.61673367052931       -0.35155212629335
H           -1.24342965084823        1.48015922979203        0.42592482949694
H           -2.57525828525615        2.74005907483748       -1.26720719268361
H           -1.87671251059681        2.71084238324820       -3.63294569159379
H            0.12728206649780        1.44239339090894       -4.31160746080714
H            1.43603029420081        0.19455147562952       -2.59175834444139
14
 energy: -25.885416320479 gnorm: 0.001175646947 xtb: 6.7.1 (edcfbbe)
C            0.99795656867378       -0.01902358502451        0.08252672136127
C            0.17070881872596        0.76744392408546       -0.98705673739547
C           -0.95910065675580        1.48501191774477       -0.61786747350868
C           -1.69336262909579        2.18073337226772       -1.56147895071579
C           -1.30299305765181        2.16569116760313       -2.89128232104947
C           -0.17656975360097        1.45248111246799       -3.27008782102911
C            0.55354386292107        0.75901159839405       -2.32161263794609
O            0.56861382615970        0.05338435324150        1.24340289344936
O            1.99243646125240       -0.61857953652971       -0.35191881442746
H           -1.24309850202637        1.48073815356932        0.42584320375963
H           -2.57522695491186        2.73958838049059       -1.26704064490514
H           -1.87703852377307        2.71023746571847       -3.63298244811555
H            0.12726734620279        1.44194834640307       -4.31137048298659
H            1.43624319387997        0.19518332956814       -2.59169448649092
14
 energy: -25.885418378106 gnorm: 0.000577380791 xtb: 6.7.1 (edcfbbe)
C            0.99931438397502       -0.01625471823694        0.08257135390661
C            0.17117218684160        0.76796282797364       -0.98685998098203
C           -0.95877755462902        1.48507239614469       -0.61796898724157
C           -1.69323063301787        2.18046557486933       -1.56150756380822
C           -1.30308392285964        2.16544946145560       -2.89126101490188
C           -0.17663417343646        1.45237572906010       -3.26983878208553
C            0.55357133630164        0.75927515070171       -2.32132958269514
O            0.56770027019432        0.05202622151676        1.24275655458920
O            1.99101492116090       -0.61997967817684       -0.35221026924651
H           -1.24295803361570        1.48126235502570        0.42562227504672
H           -2.57509404517718        2.73910612217613       -1.26677335075186
H           -1.87727768519650        2.70979101537182       -3.63300803612198
H            0.12738745516889        1.44153434762866       -4.31103225875897
H            1.43627549429000        0.19576319448964       -2.59178035694883
