17
 energy: -66.848482402577 gnorm: 0.116431121276 xtb: 6.7.1 (edcfbbe)
F            0.98077000000000        0.40382000000000       -0.21311000000000
C            2.32247000000000        0.18728000000000       -0.01403000000000
C            2.96703000000000       -0.23398000000000       -1.32148000000000
C            2.32636000000000        0.31636000000000       -2.58052000000000
C            2.32176000000000        1.80372000000000       -2.84923000000000
F            3.55294000000000        2.32948000000000       -3.00201000000000
F            1.68355000000000        2.03882000000000       -4.03886000000000
F            1.62216000000000        2.49950000000000       -1.93089000000000
F            2.92918000000000       -0.30466000000000       -3.66018000000000
F            1.02419000000000       -0.13500000000000       -2.63844000000000
F            4.31861000000000       -0.11143000000000       -1.35055000000000
F            2.77880000000000       -1.61466000000000       -1.42496000000000
S            3.19597000000000        1.61378000000000        0.69521000000000
O            2.18510000000000        2.32043000000000        1.48311000000000
O            4.27990000000000        1.04159000000000        1.49444000000000
O            3.66502000000000        2.36521000000000       -0.46631000000000
F            2.36672000000000       -0.88109000000000        0.86009000000000
17
 energy: -66.857271176685 gnorm: 0.066942936289 xtb: 6.7.1 (edcfbbe)
F            0.99418755644041        0.41878918170393       -0.19480386573877
C            2.32049269625214        0.17782478664164       -0.00036592741489
C            2.95343698732490       -0.26372817002990       -1.31241498842711
C            2.32643758577249        0.31089082848559       -2.58793126966229
C            2.31512048138497        1.81585942792337       -2.85579025190685
F            3.53363834936159        2.33250919213821       -3.00610748583692
F            1.68852083823656        2.02789720932898       -4.04424670410443
F            1.60808710857611        2.50086832992299       -1.95779783814932
F            2.94544303506944       -0.27776084743226       -3.66150510073208
F            1.03615104996821       -0.12898533060821       -2.66678886632767
F            4.28923419076698       -0.09503083192485       -1.32944880078816
F            2.79358836521328       -1.63619019353684       -1.44910116256369
S            3.21079401426962        1.62948862403202        0.71817243581457
O            2.20108044649551        2.33046508846723        1.49401428393042
O            4.28182739887085        1.03191881511377        1.49806947679499
O            3.65830431456744        2.33353469974246       -0.47505322385299
F            2.36418558142952       -0.86918080996813        0.87337928896521
17
 energy: -66.861131059313 gnorm: 0.014189021636 xtb: 6.7.1 (edcfbbe)
F            1.00301359448974        0.43717551284691       -0.17912001391979
C            2.31387878247850        0.16014035351343        0.00966840333303
C            2.94808001963787       -0.29121050226386       -1.30419844746051
C            2.32477423522394        0.30490219370722       -2.59414658140735
C            2.31315953393114        1.83256051446271       -2.85774757645993
F            3.51722739591643        2.33774637902625       -3.01868688003849
F            1.68817405846791        2.01094632129339       -4.04262369067747
F            1.60665528693224        2.51143417325873       -1.97987300124133
F            2.96144936101897       -0.25255279788370       -3.65650892169016
F            1.04577822960515       -0.11999077444874       -2.68923393432670
F            4.27014471062902       -0.08517544848105       -1.30732179647854
F            2.80928905031481       -1.64936411526182       -1.46297777758414
S            3.22767423254952        1.64846874438330        0.73714316029999
O            2.21326046421535        2.32550202809854        1.50223336668751
O            4.28668492351269        1.02575163545295        1.48967468116882
O            3.63809732126131        2.30659155146218       -0.48953729939669
F            2.35318879981548       -0.86375576916645        0.88553630919176
17
 energy: -66.861449972397 gnorm: 0.008586186609 xtb: 6.7.1 (edcfbbe)
F            0.99770768232299        0.45000727934714       -0.17731519026622
C            2.30621236805706        0.15554784118471        0.01385512673047
C            2.94583654171949       -0.29277577510265       -1.29850628428424
C            2.32662362683851        0.30562309281458       -2.59233448588279
C            2.30826266938739        1.83679625772652       -2.85913038398148
F            3.50952324004451        2.34949073549318       -3.01904297489377
F            1.68702802283117        1.99806582133040       -4.05118472468002
F            1.59099722456386        2.51886542806784       -1.99249753076654
F            2.97948152325264       -0.24339298908793       -3.64892524808479
F            1.05098780399119       -0.12517941588925       -2.70139595311249
F            4.26783840592353       -0.08066719389747       -1.29426268120225
F            2.81576042763310       -1.64895401660647       -1.46192608016102
S            3.23797097131891        1.64774388915697        0.73860849139804
O            2.22992454652395        2.32094742338824        1.51079427109264
O            4.29839905857708        1.01616969710908        1.47823447708457
O            3.63433558170180        2.30006439178710       -0.49373228133358
F            2.33364030531291       -0.86918246682199        0.89104145234348
17
 energy: -66.861701150330 gnorm: 0.005891000262 xtb: 6.7.1 (edcfbbe)
F            0.98926967692060        0.46926254814257       -0.18107965466654
C            2.29408929390305        0.15135740065971        0.01883486040162
C            2.94230057834212       -0.29342557100383       -1.28887213241561
C            2.33269824815237        0.30753109058884       -2.58692591973925
C            2.30327419057578        1.84001095007374       -2.86006043510970
F            3.50059040491806        2.36523722914500       -3.02229779757678
F            1.68357447437110        1.98094284982150       -4.06033824990717
F            1.57542211785473        2.52863535797889       -2.00570796236402
F            3.00692781937256       -0.23175786229717       -3.63625063031064
F            1.06150762168084       -0.13406516380817       -2.71508994925529
F            4.26550625667500       -0.07758030108846       -1.27505543102533
F            2.82258600181322       -1.64814982922322       -1.45878928920502
S            3.25025374311949        1.64571491801674        0.73781881323307
O            2.25617228350388        2.31113751269627        1.53199697675253
O            4.32222256123785        1.00551383025632        1.45112477646999
O            3.61535694018033        2.29799734516299       -0.50193243884586
F            2.29877778737917       -0.87919230512173        0.89490446356402
17
 energy: -66.861838278068 gnorm: 0.006477127991 xtb: 6.7.1 (edcfbbe)
F            0.98458980686484        0.48622284445338       -0.18908629368868
C            2.28488610655897        0.15113167467268        0.02166007254591
C            2.94017225035852       -0.29171920943693       -1.28117506171776
C            2.33971651831328        0.30941643652022       -2.58248747615120
C            2.29995573582422        1.84023663219092       -2.86139002795675
F            3.49375684571525        2.37467968103675       -3.02694711009655
F            1.68005341582415        1.96908262549173       -4.06534915272187
F            1.56648786842520        2.53312244226912       -2.01467632118174
F            3.02822654731415       -0.22477295432615       -3.62596354789620
F            1.07250169180941       -0.14205989978289       -2.72318152069512
F            4.26447531019072       -0.07544094793461       -1.25994857248215
F            2.82535369656536       -1.64602785963867       -1.45451295008358
S            3.25761517572102        1.64244881791798        0.73731132266881
O            2.27882130118725        2.30102579596253        1.55689211281577
O            4.34405514341598        0.99696655494013        1.42436701097105
O            3.59194476517550        2.30003261779644       -0.50752561870689
F            2.26791782073636       -0.88517525213263        0.89429313437699
17
 energy: -66.861985099571 gnorm: 0.007908081668 xtb: 6.7.1 (edcfbbe)
F            0.98196469196350        0.51249377161917       -0.20378899708605
C            2.27391538187129        0.15435439292540        0.02445379607931
C            2.93891013435541       -0.28726541663777       -1.27157622302083
C            2.35026928088165        0.31187373777720       -2.57752599401923
C            2.29512615067030        1.83871496318223       -2.86420884860645
F            3.48410982452347        2.38421210381342       -3.03278097111951
F            1.67605699035183        1.95442768947185       -4.07112877015908
F            1.55426205818186        2.53478141299632       -2.02691251023719
F            3.05542086870477       -0.21741319050001       -3.61290158677134
F            1.08911507399630       -0.15430590275679       -2.73188475647126
F            4.26421209135285       -0.07207939279934       -1.24173799833583
F            2.82660486846652       -1.64158378721275       -1.44679755132319
S            3.26534315285156        1.63567416736155        0.73785428142914
O            2.31115296792406        2.28536750124518        1.59668451668516
O            4.37364243727068        0.98441064109949        1.38641106892174
O            3.55576773967632        2.30458620430210       -0.51212651113785
F            2.22465628695786       -0.88907889588727        0.89024705517248
17
 energy: -66.862087095714 gnorm: 0.007005495883 xtb: 6.7.1 (edcfbbe)
F            0.98547187435521        0.53225415274979       -0.21557819768834
C            2.27006335643177        0.15915701490089        0.02519093952129
C            2.94043529875530       -0.28362683568731       -1.26726264547380
C            2.35637298840686        0.31281178848662       -2.57580260935709
C            2.29092250479437        1.83674632773459       -2.86651446444043
F            3.47700062844947        2.38805249364950       -3.03420101856946
F            1.67439581118684        1.94651238064537       -4.07413949501251
F            1.54454581914622        2.53170480848335       -2.03439933768894
F            3.06885587584378       -0.21405031571251       -3.60686360515481
F            1.09945088011984       -0.16322580351217       -2.73487110735583
F            4.26550527145986       -0.07010193221903       -1.23535474642524
F            2.82591301279146       -1.63835176823375       -1.44077462229520
S            3.26861652908686        1.62946082401290        0.73980716894485
O            2.33046713372752        2.27554981051414        1.62041766954507
O            4.38752486736617        0.97655803640008        1.36776512120029
O            3.53641938412123        2.30671673072478       -0.51038094723388
F            2.19856876395747       -0.88699771293726        0.88524189748404
17
 energy: -66.862170899727 gnorm: 0.004107639250 xtb: 6.7.1 (edcfbbe)
F            0.99314795475004        0.55461758892426       -0.22553160911571
C            2.26919549892064        0.16544668722981        0.02576981631021
C            2.94361713107758       -0.28031736795587       -1.26490646996927
C            2.36018365241159        0.31231552664954       -2.57604868643866
C            2.28581411035042        1.83472547485973       -2.86879180483706
F            3.46965288629792        2.39108010985337       -3.03052001118253
F            1.67571843387521        1.93967446714222       -4.07785701176842
F            1.53163670005678        2.52556871249358       -2.04160187407478
F            3.07826689898971       -0.21114976694156       -3.60408849779343
F            1.10734126240032       -0.17297403606335       -2.73729675414782
F            4.26747011159264       -0.06774857509977       -1.23444280123226
F            2.82504424011576       -1.63578226535795       -1.43404830259531
S            3.27077372063885        1.62232095123019        0.74287049455244
O            2.34692274812310        2.26642234551161        1.63874317268005
O            4.39547380253495        0.96887782721101        1.35596997856118
O            3.52357488408524        2.30712157355496       -0.50552080773225
F            2.17669596377952       -0.88102925324180        0.87958116878361
17
 energy: -66.862194755719 gnorm: 0.002809801297 xtb: 6.7.1 (edcfbbe)
F            0.99627073969273        0.57011343722995       -0.22789436078316
C            2.26734249488708        0.16842727732427        0.02748490648139
C            2.94443288165736       -0.27855912197414       -1.26276833902477
C            2.36153484606242        0.31136471554265       -2.57654927040751
C            2.28292149918339        1.83419570116407       -2.87119720006649
F            3.46560859505877        2.39464510602433       -3.02709496235281
F            1.67934125372763        1.93347125906607       -4.08376474274140
F            1.52160139298905        2.52355277855229       -2.04916629390358
F            3.08554508560717       -0.20899913173327       -3.60201586924761
F            1.11112422239729       -0.17910627331618       -2.74125248375363
F            4.26744364845875       -0.06453772505193       -1.23242745375671
F            2.82626106573489       -1.63446467405864       -1.42912484223970
S            3.27317252864411        1.61844439918091        0.74534186633494
O            2.35864944625626        2.25817450085883        1.65326545548830
O            4.40344731829845        0.96231063495679        1.34522945755343
O            3.51338318158338        2.30899943043402       -0.50308430973791
F            2.16244979976159       -0.87886231420005        0.87729844215722
17
 energy: -66.862207373154 gnorm: 0.001337784446 xtb: 6.7.1 (edcfbbe)
F            0.99933924818769        0.57777169856635       -0.22692541908978
C            2.26787392673576        0.16969973296109        0.02846602536903
C            2.94494599467553       -0.27790402993879       -1.26283543304497
C            2.35990341991932        0.30974797199551       -2.57764697634872
C            2.28232009487420        1.83366938428836       -2.87358410803180
F            3.46524355197464        2.39475487860303       -3.02484062466400
F            1.68386763804777        1.93097495510601       -4.08873970167186
F            1.51772656598108        2.52279473415628       -2.05437671512219
F            3.08436394111765       -0.21009991247817       -3.60252298059076
F            1.10998041251400       -0.18065809116036       -2.74165759342554
F            4.26707786502348       -0.06108103912980       -1.23488004966102
F            2.82871813268503       -1.63425479985091       -1.42614783402742
S            3.27373774178760        1.61726189652716        0.74820780574661
O            2.36161283102528        2.25185968776039        1.66023764439384
O            4.40594251556844        0.96004863173703        1.34237781166503
O            3.50983855105552        2.31271053540673       -0.49849538246824
F            2.15803756882731       -0.87812623454993        0.87564353097181
17
 energy: -66.862219606586 gnorm: 0.001886989200 xtb: 6.7.1 (edcfbbe)
F            1.00180372616929        0.58839704916867       -0.22605444728249
C            2.26739509301494        0.17129101597089        0.02948454346248
C            2.94465683530384       -0.27577268983027       -1.26278837292146
C            2.35677151371596        0.30706466579723       -2.57899741001325
C            2.28241047106466        1.83186750291078       -2.87763317291177
F            3.46658876600031        2.39251440937482       -3.02179519645455
F            1.69179808056824        1.92722572780957       -4.09711162027323
F            1.51363555494063        2.52267346636439       -2.06340138092104
F            3.08148912215728       -0.21439065374734       -3.60265291004837
F            1.10682504308486       -0.18218158397853       -2.74180639367915
F            4.26582095522366       -0.05204022766201       -1.23765450287907
F            2.83476817301341       -1.63299393344245       -1.42205309031083
S            3.27493448158667        1.61605120161090        0.75290444658876
O            2.36680283931756        2.24037847916798        1.67519297906598
O            4.41305998365644        0.95674574576375        1.33472063335236
O            3.50160789895914        2.32134642788386       -0.49083344306367
F            2.15016146222341       -0.87900660316227        0.87275933828929
17
 energy: -66.862239139003 gnorm: 0.002727123591 xtb: 6.7.1 (edcfbbe)
F            1.00488518542230        0.59529391999857       -0.22551413302718
C            2.26888083199097        0.17308421186893        0.02839827577235
C            2.94460356333642       -0.27261126879970       -1.26532694148513
C            2.34992327972482        0.30296136762333       -2.58131695575526
C            2.28479692043904        1.82802379233570       -2.88258323012974
F            3.47272778233950        2.38278789929598       -3.01864770258321
F            1.70209210159748        1.92671883761614       -4.10541544033968
F            1.51552596814617        2.52222636945179       -2.07187053912901
F            3.06784016141767       -0.22553257335867       -3.60585404691536
F            1.09752698638446       -0.18021963158065       -2.73669821977874
F            4.26442892915897       -0.03710863825345       -1.24631661174938
F            2.84534914023506       -1.63109843711718       -1.41924366463096
S            3.27446660806181        1.61631307681549        0.75991342418671
O            2.36562946930054        2.22718096583493        1.68950498756199
O            4.41718876629185        0.95681420582796        1.33241750197880
O            3.49667329826302        2.33434593163393       -0.47720344859760
F            2.14799100789024       -0.88001002919312        0.86803674462137
17
 energy: -66.862263152191 gnorm: 0.002889713130 xtb: 6.7.1 (edcfbbe)
F            1.00821151137893        0.60811093027168       -0.22845518541732
C            2.26930552612176        0.17673958158849        0.02592593356759
C            2.94493927104124       -0.26711998154616       -1.26810733295776
C            2.34139270718041        0.29749113911024       -2.58406745213547
C            2.28796464602262        1.82171813646107       -2.88945256112138
F            3.48153098338764        2.36774704873435       -3.01342196808227
F            1.71652365250460        1.92493703103628       -4.11695938158007
F            1.51725425684820        2.52111696351806       -2.08458888311494
F            3.04990594345054       -0.24205460575264       -3.60983039944026
F            1.08548548016929       -0.17873289375106       -2.72906986344524
F            4.26262514372219       -0.01383002977330       -1.25644291908263
F            2.86226506233996       -1.62719727328539       -1.41486724259832
S            3.27453778327720        1.61566225636503        0.76986852382281
O            2.36779025146667        2.20635039886241        1.71568818611640
O            4.42671170073538        0.95534098711910        1.32392389617858
O            3.48419098749430        2.35305195381078       -0.45845501495011
F            2.13989509285941       -0.88016164276897        0.86059166424036
17
 energy: -66.862280605112 gnorm: 0.002445913237 xtb: 6.7.1 (edcfbbe)
F            1.01201248474305        0.61665244767236       -0.23185157904676
C            2.27137897041932        0.18013963284102        0.02202845097643
C            2.94647493738976       -0.26192736589745       -1.27245659868132
C            2.33125422949493        0.29191228435675       -2.58707633831613
C            2.29228298785488        1.81509252372676       -2.89585991318940
F            3.49261190479170        2.34936567585621       -3.00830436058027
F            1.73088352844779        1.92562654681117       -4.12675711553169
F            1.52271023664608        2.52021214799565       -2.09503115437917
F            3.02508734404066       -0.26105815551194       -3.61649536308186
F            1.07019797228349       -0.17468078909344       -2.71728022310568
F            4.26134815488505        0.01034868577996       -1.26930518187647
F            2.88151023996457       -1.62320710450370       -1.41206466712823
S            3.27331161410320        1.61578997675744        0.77998244359207
O            2.36470511454219        2.18716862543372        1.73630709072928
O            4.43128983995806        0.95594936574504        1.32142275567854
O            3.47609106031567        2.37072656310443       -0.43825198088770
F            2.13737938011992       -0.87894106107402        0.85327373482833
17
 energy: -66.862287104865 gnorm: 0.001552747789 xtb: 6.7.1 (edcfbbe)
F            1.01311310361871        0.61780488988265       -0.23344859305752
C            2.27220408343684        0.18102819127337        0.02064216154781
C            2.94775329546129       -0.26042442845447       -1.27377389604924
C            2.32836115306356        0.29081294097460       -2.58752364578239
C            2.29407488937448        1.81324355899827       -2.89782784268106
F            3.49647571493917        2.34305782040305       -3.00783199713586
F            1.73508068711231        1.92588071206320       -4.12922996820917
F            1.52575220288970        2.52083909552455       -2.09804117985074
F            3.01563216577247       -0.26692225927343       -3.61883681525266
F            1.06538297324201       -0.17229094180686       -2.71159912653963
F            4.26115965220600        0.01725404880442       -1.27280875437152
F            2.88820478774413       -1.62150968602256       -1.41185633924780
S            3.27242451586370        1.61565273140172        0.78277337817297
O            2.36309756373105        2.18139323552125        1.74175596120941
O            4.43162138818090        0.95622721539678        1.32106328447253
O            3.47248023237077        2.37511442052166       -0.43249421843781
F            2.13771159099321       -0.87799154520821        0.85131759121264
17
 energy: -66.862292085967 gnorm: 0.000819995242 xtb: 6.7.1 (edcfbbe)
F            1.01387352546249        0.62018844706349       -0.23522533134799
C            2.27224894274468        0.18202834485756        0.01998080102705
C            2.94957891432922       -0.25813799499210       -1.27425904199970
C            2.32538085735652        0.29033832770763       -2.58722334616103
C            2.29609568781359        1.81143915227048       -2.90094822337932
F            3.50077555025715        2.33668969166969       -3.00709310207852
F            1.74177846296618        1.92421505845198       -4.13417901828973
F            1.52731028099720        2.52297957489535       -2.10464664069257
F            3.00547149421443       -0.27297375772749       -3.62034552648495
F            1.06042071904669       -0.16950983727425       -2.70433934226658
F            4.26073443069316        0.02647166535151       -1.27459765813415
F            2.89705656987651       -1.61875086037484       -1.41134767322783
S            3.27172374943645        1.61422977251084        0.78566260227480
O            2.36477535186045        2.17305392283613        1.75137014339580
O            4.43398846667906        0.95460434645802        1.31684644530933
O            3.46352936066910        2.37959251897337       -0.42665452762198
F            2.13578763559744       -0.87728837267740        0.84927943967731
