8
 energy: -32.188285073226 gnorm: 0.074390856119 xtb: 6.7.1 (edcfbbe)
F            1.06681000000000       -0.06470000000000       -0.03675000000000
C            2.39681000000000       -0.06470000000000       -0.03675000000000
F            2.84014000000000       -1.26259000000000       -0.40744000000000
F            2.84014000000000        0.85527000000000       -0.88881000000000
B            2.93014000000000        0.26964000000000        1.43423000000000
F            2.46013000000000        1.53958000000000        1.82722000000000
F            2.46013000000000       -0.70567000000000        2.33754000000000
F            4.34014000000000        0.26964000000000        1.43423000000000
8
 energy: -32.193735291920 gnorm: 0.050459182531 xtb: 6.7.1 (edcfbbe)
F            1.09461297128338       -0.04575430118187        0.04660434639806
C            2.44140257183570       -0.06911450791387       -0.05617226984857
F            2.82104488034052       -1.28273040110280       -0.51158722739939
F            2.82104490294192        0.82841423946531       -0.99143068659842
B            2.94077741882348        0.27863943598833        1.47382670627733
F            2.43786824957695        1.53458888097355        1.85005725047164
F            2.43786873719074       -0.69129739927564        2.35597650098287
F            4.33982026800730        0.28372405304699        1.49619537971649
8
 energy: -32.198504543324 gnorm: 0.019494770760 xtb: 6.7.1 (edcfbbe)
F            1.07916194857842       -0.05860730465848       -0.00994476930801
C            2.44651366439907       -0.06694228703834       -0.04661511248246
F            2.78250748025494       -1.28761277176830       -0.58543643787686
F            2.78250762034121        0.80089593055613       -1.06013455986529
B            2.97053694582949        0.28883750564505        1.51869725604869
F            2.45694176774694        1.53095573872552        1.88357771002969
F            2.45694310602067       -0.67353125868817        2.38463363046297
F            4.35932746682926        0.30247444722658        1.57869228299128
8
 energy: -32.199574922321 gnorm: 0.009958057297 xtb: 6.7.1 (edcfbbe)
F            1.06913595881758       -0.06997269190534       -0.04073254375216
C            2.43427171999674       -0.06639983010623       -0.04388431523470
F            2.78617274054789       -1.28217858960156       -0.56413561703950
F            2.77947076134975        0.80845814275159       -1.03829461735061
B            2.97142014342505        0.28899607752407        1.51810774669538
F            2.47265310107331        1.53340142078358        1.87975157265327
F            2.46399186137328       -0.67443552937032        2.38063439477654
F            4.35732371341640        0.29860099992422        1.57202337925178
8
 energy: -32.200335653917 gnorm: 0.006858477602 xtb: 6.7.1 (edcfbbe)
F            1.05186059071503       -0.08269081926951       -0.10162028942770
C            2.41521692652442       -0.06443583984605       -0.03686017884543
F            2.78782739725404       -1.27590997991967       -0.53147660120101
F            2.78226367033559        0.81724996607662       -1.00585813783733
B            2.96970356535078        0.28903993005074        1.51965351321142
F            2.48987888831032        1.53581204855572        1.88173606695082
F            2.48559281508638       -0.67533023389186        2.38629199204023
F            4.35209614642344        0.29273492824402        1.55160363510899
8
 energy: -32.200449002929 gnorm: 0.005946792782 xtb: 6.7.1 (edcfbbe)
F            1.04565943064559       -0.08829246393949       -0.12494556945341
C            2.40852431483641       -0.06376987176586       -0.03330057309186
F            2.79206040013691       -1.27423767763198       -0.52089908718220
F            2.78622887317231        0.82047517760738       -0.99516446390811
B            2.96597900581414        0.28920389109320        1.52008989736444
F            2.49580393752522        1.53805435341976        1.88903945377252
F            2.49082594745421       -0.67396309887471        2.39359627785504
F            4.34935809041520        0.28899969009171        1.53505406464358
8
 energy: -32.200505772872 gnorm: 0.003219044302 xtb: 6.7.1 (edcfbbe)
F            1.04056613401721       -0.09305897683962       -0.14421135353695
C            2.40216697935571       -0.06305011462041       -0.02958107538419
F            2.79793911168436       -1.27293237166905       -0.51237839498436
F            2.79168014766060        0.82327152946219       -0.98660937418273
B            2.96144966519598        0.28910189271708        1.51972640161632
F            2.49971053009372        1.53994622908557        1.89787157553221
F            2.49368954339401       -0.67164297641370        2.40227461840104
F            4.34723788859842        0.28483478827794        1.51637760253865
8
 energy: -32.200513185631 gnorm: 0.001870869156 xtb: 6.7.1 (edcfbbe)
F            1.04052983148272       -0.09322746435958       -0.14517684884613
C            2.40101773631219       -0.06286917750906       -0.02878595718605
F            2.79918683728160       -1.27288559182271       -0.51210221342061
F            2.79299536439927        0.82335133220604       -0.98640035658204
B            2.96070567972974        0.28897437373231        1.51927655946950
F            2.49935835190402        1.53983753455918        1.89938661269458
F            2.49341112970522       -0.67094332163723        2.40369149271167
F            4.34723506918524        0.28423231483104        1.51358071115908
8
 energy: -32.200516122259 gnorm: 0.000673662983 xtb: 6.7.1 (edcfbbe)
F            1.04156244831842       -0.09241528304010       -0.14319062621129
C            2.40009329055120       -0.06270840213066       -0.02813106028054
F            2.79955062863729       -1.27313327541923       -0.51318016917115
F            2.79388979703667        0.82285645031520       -0.98764981259352
B            2.96068197484549        0.28884745264006        1.51876497459246
F            2.49815566591951        1.53927268328777        1.89952862456644
F            2.49294353539149       -0.67064882008495        2.40369892399177
F            4.34756265929993        0.28439919443192        1.51362914510583
