24
 energy: -43.497792850187 gnorm: 0.086235287875 xtb: 6.7.1 (edcfbbe)
Cl           2.39672000000000        0.03146000000000       -0.80535000000000
C            0.73298000000000       -0.18377000000000       -0.41757000000000
C           -0.06527000000000        0.92437000000000       -0.13920000000000
C           -1.42237000000000        0.77667000000000        0.22251000000000
C           -1.97018000000000       -0.51386000000000        0.25714000000000
O           -3.21379000000000       -0.88453000000000        0.67251000000000
C           -4.42364000000000       -0.25912000000000        0.18104000000000
C           -4.96594000000000        0.82248000000000        1.15396000000000
O           -5.41972000000000        1.87172000000000        0.61008000000000
O           -4.93531000000000        0.52977000000000        2.38716000000000
C           -4.43186000000000        0.03525000000000       -1.31530000000000
C           -1.14635000000000       -1.61895000000000       -0.01817000000000
C            0.19771000000000       -1.46149000000000       -0.35584000000000
C           -2.16907000000000        2.02081000000000        0.60550000000000
H            0.37745000000000        1.91738000000000       -0.16905000000000
H           -5.17617000000000       -1.05314000000000        0.29914000000000
H           -4.26096000000000       -0.88391000000000       -1.88575000000000
H           -5.39375000000000        0.45638000000000       -1.62737000000000
H           -3.65315000000000        0.74076000000000       -1.61292000000000
H           -1.56713000000000       -2.61947000000000        0.05496000000000
H            0.81264000000000       -2.33442000000000       -0.54804000000000
H           -2.59290000000000        1.92094000000000        1.60710000000000
H           -1.50335000000000        2.89110000000000        0.63804000000000
H           -2.93882000000000        2.25596000000000       -0.13093000000000
24
 energy: -43.504763048536 gnorm: 0.036480354477 xtb: 6.7.1 (edcfbbe)
Cl           2.38426501610934        0.04075410368405       -0.81635429604711
C            0.71886872974519       -0.18353526614834       -0.41545955891987
C           -0.07776005202577        0.91456015777823       -0.13623757561789
C           -1.42162620904693        0.77389081015723        0.21857060083341
C           -1.96986010079575       -0.51967300642067        0.25260670140592
O           -3.21235492960395       -0.89565296963453        0.64447226310068
C           -4.43122987178874       -0.27414552620253        0.18550750657741
C           -4.94642671985298        0.86481948931307        1.13887782273826
O           -5.42233388698889        1.87702358506179        0.58865555117020
O           -4.91486465100759        0.58506361713037        2.34878882091491
C           -4.40899921562716        0.03939378235661       -1.30560560227054
C           -1.13817298086365       -1.61393624362444       -0.02439832062234
C            0.19614240679487       -1.46101191255032       -0.34969093393637
C           -2.17424018279902        2.01046344744848        0.60325940173530
H            0.36039781281377        1.90357453946593       -0.16570924043504
H           -5.16790936278176       -1.08270862348683        0.32871743861502
H           -4.24900007453076       -0.87856329530125       -1.87926856457718
H           -5.37323254697514        0.46409438972958       -1.58324301822603
H           -3.63415605290281        0.75362323216126       -1.58476437587651
H           -1.56216692537190       -2.60581844505642        0.04310083665720
H            0.81306949265926       -2.32606794030366       -0.55046725377248
H           -2.62709270965039        1.88777410542173        1.58583866822565
H           -1.50177944652214        2.87233836851767        0.63868440382337
H           -2.97176753898708        2.23612960050301       -0.10223127549595
24
 energy: -43.506125535357 gnorm: 0.023749941305 xtb: 6.7.1 (edcfbbe)
Cl           2.37329162857829        0.05971936037681       -0.83305260467526
C            0.70659414921866       -0.18041887777508       -0.41475412336381
C           -0.09349244399822        0.90818037511078       -0.13194844393893
C           -1.42816348425940        0.76737368866160        0.21782558905543
C           -1.97263094439643       -0.53210410340703        0.25564260306341
O           -3.21237122181184       -0.91549754753793        0.62073420920811
C           -4.43426682512802       -0.28898716472892        0.18528206215973
C           -4.96820165656536        0.88790749291824        1.12321997945961
O           -5.37435176469313        1.90142146612365        0.55128923230665
O           -4.83793771238975        0.67571103989538        2.33102468093165
C           -4.40109731173562        0.03670537093122       -1.30227388275114
C           -1.12931154481654       -1.61542974513821       -0.02428276883697
C            0.19816910297868       -1.46171985027181       -0.34698807857190
C           -2.19044183128327        1.99329576470001        0.60841801998676
H            0.33834879061053        1.89708822869719       -0.16232652707912
H           -5.15887493538639       -1.10379169081121        0.34821614225832
H           -4.24003934763599       -0.87154642449484       -1.88796914567407
H           -5.36103928986416        0.47426219443302       -1.56142439034525
H           -3.62158712492465        0.75457200241722       -1.54775430039739
H           -1.55787317635175       -2.60203731646539        0.03480910418268
H            0.82127177906684       -2.31797708387320       -0.55436348914923
H           -2.65888040507770        1.84933417328010        1.58023492638207
H           -1.52101575060179        2.85197855682584        0.64882550288204
H           -3.00832867953293        2.21435009013264       -0.07473429709331
24
 energy: -43.507418126729 gnorm: 0.013275929110 xtb: 6.7.1 (edcfbbe)
Cl           2.36971401538929        0.07669624986388       -0.84835680655570
C            0.70304164695537       -0.17750475556093       -0.41779861918805
C           -0.10231670259769        0.90596539944364       -0.13089602833901
C           -1.43432776220948        0.75916695885552        0.21857713757738
C           -1.97251766031420       -0.54552430688039        0.25742717962245
O           -3.20870337250533       -0.93422982223605        0.60839832932883
C           -4.42491407412928       -0.29090725709158        0.18727980137898
C           -4.91412045458683        0.93786672096574        1.11692162417211
O           -5.38602151209915        1.89828148419805        0.50598623204897
O           -4.81851530199576        0.73099333525300        2.32197758934462
C           -4.40483682495377        0.03302397899536       -1.30025910344291
C           -1.12088289982989       -1.62260688317772       -0.02412487095713
C            0.20495411251563       -1.46358993225489       -0.34960775518550
C           -2.20448774606501        1.97630647051904        0.61796189823673
H            0.32403121799707        1.89753088812864       -0.16177850683638
H           -5.15816737580680       -1.09171797272324        0.37345611670306
H           -4.25047241117498       -0.86964487146340       -1.89461913389886
H           -5.35711518230709        0.48915575592034       -1.55419971124755
H           -3.61420740444790        0.74176930305870       -1.53013369167039
H           -1.55113515642240       -2.60903825826468        0.03151993992354
H            0.83427910918657       -2.31413170231785       -0.55959793026656
H           -2.67313365603185        1.81835079474849        1.58829002898509
H           -1.54297032177931        2.83768203952750        0.66428139310625
H           -3.02940428278713        2.19849638249292       -0.05705511283987
24
 energy: -43.507831261043 gnorm: 0.008497598881 xtb: 6.7.1 (edcfbbe)
Cl           2.36851233754643        0.08647994570409       -0.85502891859552
C            0.70313043488394       -0.17451660478066       -0.42183719254479
C           -0.10572522585112        0.90770618204406       -0.13205430971476
C           -1.43923865769058        0.75359072203629        0.22168194812325
C           -1.97408775603381       -0.55227786807124        0.25593924463331
O           -3.21059026354953       -0.94296806210585        0.60469788820950
C           -4.42407636021117       -0.28996767451012        0.18761226606920
C           -4.90953021750758        0.94899954824088        1.11027498702427
O           -5.39917094573445        1.89447584943822        0.48169335730756
O           -4.78021555136874        0.76995910697030        2.32403992383789
C           -4.40891680563435        0.02975093261857       -1.30098507176471
C           -1.11846899596084       -1.62810422259770       -0.02423451947221
C            0.20909602421656       -1.46275044884479       -0.35243933360737
C           -2.20901878888770        1.96808442889913        0.62960520999594
H            0.31758719694863        1.90188250413451       -0.16226148953409
H           -5.16655865434349       -1.07952412364270        0.38046377635013
H           -4.26521135628892       -0.87500023720596       -1.89503401276068
H           -5.35730513668556        0.49337771380778       -1.55737976729591
H           -3.61183222162294        0.72920943573885       -1.53896194085378
H           -1.54429677159002       -2.61816073482655        0.03453839009811
H            0.84178982067096       -2.31165896044604       -0.56229601939083
H           -2.66760366505275        1.80582811381138        1.60426377284331
H           -1.55108103613475        2.83315211643076        0.68038871304383
H           -3.02941740411815        2.19482233715689       -0.04903690200154
24
 energy: -43.508054771872 gnorm: 0.008513306328 xtb: 6.7.1 (edcfbbe)
Cl           2.36437098725585        0.09872915768439       -0.86669797861848
C            0.70123118235179       -0.17087210048773       -0.42703145966730
C           -0.11091076810864        0.90889869553752       -0.13397906346809
C           -1.44378230533745        0.74711596777840        0.22616460755706
C           -1.97479549606825       -0.56008171309256        0.25729155315108
O           -3.21373584615129       -0.95262744501629        0.59789119945492
C           -4.42113960745612       -0.28373298815076        0.18618893191156
C           -4.90470475255388        0.96234872297300        1.10317807293244
O           -5.41193392779554        1.89313657678678        0.46864416305441
O           -4.74146697978895        0.80391030280421        2.31672432696228
C           -4.41159259199588        0.02614573198115       -1.30395061418881
C           -1.11445466137004       -1.63363460681124       -0.02124786501103
C            0.21313215172484       -1.46121264602039       -0.35354851823588
C           -2.21317794922954        1.95863971886184        0.64221166972184
H            0.30765620762511        1.90566701921608       -0.16525560530246
H           -5.17520818921111       -1.05937952963128        0.38547964437612
H           -4.28625351368449       -0.88469001717208       -1.89380085617766
H           -5.35461174741190        0.50192655604359       -1.55973760278325
H           -3.60419932720357        0.71080051377104       -1.55318685277340
H           -1.53400891693729       -2.62736963420578        0.04154628633306
H            0.85003001019929       -2.30779784645190       -0.56195839627904
H           -2.66368321851071        1.79136142369455        1.61998407731551
H           -1.55786544983336        2.82658855818241        0.69684804464308
H           -3.03112529050879        2.18851958172518       -0.03810776490782
24
 energy: -43.508205667831 gnorm: 0.006384982432 xtb: 6.7.1 (edcfbbe)
Cl           2.35841820198112        0.10820473246161       -0.88166033460601
C            0.69857203543375       -0.16797980621878       -0.43205156023577
C           -0.11523372482630        0.90939734654719       -0.13593378152901
C           -1.44621898964396        0.74248272276014        0.23015728436112
C           -1.97466815018434       -0.56531309251789        0.25966413472858
O           -3.21658346518490       -0.95880059168551        0.59167906608441
C           -4.41794202379945       -0.27655489232337        0.18445444867670
C           -4.90044966121096        0.97324338367227        1.09756327459577
O           -5.43407962894247        1.88707720055516        0.46205821696407
O           -4.70932947156221        0.83050596896929        2.30733961025315
C           -4.41173937191850        0.02272782670863       -1.30794606542676
C           -1.11092351986861       -1.63692156260549       -0.01646524715029
C            0.21537618205139       -1.45943748305109       -0.35295464629242
C           -2.21426221241385        1.95174922011836        0.65373246852625
H            0.29882887270135        1.90782546775096       -0.16900350692850
H           -5.18152118536346       -1.04097744070374        0.38969438446982
H           -4.30909276925654       -0.89554880729164       -1.89207352553407
H           -5.34786642872275        0.51420562927887       -1.56119158584941
H           -3.59218127078262        0.68964027738613       -1.57012906447268
H           -1.52458777375545       -2.63323222454024        0.04905356989731
H            0.85495424304307       -2.30424344633775       -0.56070887091946
H           -2.66049157110509        1.77996770971863        1.63265982806110
H           -1.55889578487496        2.82012177047063        0.71116562016959
H           -3.03231253179415        2.18425009087775       -0.02545371784334
24
 energy: -43.508333845416 gnorm: 0.004916793522 xtb: 6.7.1 (edcfbbe)
Cl           2.35166288300066        0.11309697573947       -0.89789650477692
C            0.69576630795942       -0.16626188116961       -0.43662987813206
C           -0.11796349284566        0.90943571610175       -0.13734277932784
C           -1.44665134138163        0.74051125672877        0.23363994317394
C           -1.97422286469827       -0.56722684492381        0.26291865564137
O           -3.21871714764842       -0.96070235185188        0.58801170874399
C           -4.41551208445646       -0.27157993965636        0.18236269938026
C           -4.89910269894173        0.97877075233837        1.09239715528838
O           -5.46802883848951        1.87255868525725        0.45938335923177
O           -4.67746159752946        0.85418900550903        2.29784970185860
C           -4.41015607791731        0.02005296441539       -1.31208592389444
C           -1.10905283255912       -1.63769678273740       -0.01105803188167
C            0.21537741195361       -1.45791825308707       -0.35155813885405
C           -2.21269222151194        1.94853380430973        0.66329385731442
H            0.29287802273383        1.90855423238287       -0.17226050526673
H           -5.18419171603907       -1.02992002764421        0.39097994087875
H           -4.33269641217314       -0.90447799020128       -1.89107197108542
H           -5.33677324577800        0.53174655323167       -1.56189788483268
H           -3.57615147464726        0.66647174468072       -1.58448781098750
H           -1.51831926423892       -2.63521251695566        0.05633044505563
H            0.85584748777084       -2.30194031560251       -0.55899897933041
H           -2.65803167972075        1.77281643714872        1.64176335577518
H           -1.55527753250236        2.81523403178271        0.72264559454371
H           -3.03275959033925        2.18335474420349       -0.01263800851613
24
 energy: -43.508471653136 gnorm: 0.004117252047 xtb: 6.7.1 (edcfbbe)
Cl           2.34479858753322        0.11307746894863       -0.91438289400805
C            0.69338312596949       -0.16580496049895       -0.44068365745009
C           -0.11907036559096        0.90937971541753       -0.13867516288449
C           -1.44582109983859        0.74113332044267        0.23643389354888
C           -1.97398562131323       -0.56620971977853        0.26709670569151
O           -3.22014856214042       -0.95890887283391        0.58846668628173
C           -4.41410714452862       -0.26988945582004        0.18014285277077
C           -4.90186944168584        0.97704593097378        1.08753483007522
O           -5.51477670046829        1.84712279822292        0.46234823616762
O           -4.64465650827794        0.87513641804019        2.28734883671265
C           -4.40609511975246        0.01939228157587       -1.31547344307407
C           -1.10909034007479       -1.63660816941048       -0.00480103450996
C            0.21359309840745       -1.45706775731048       -0.34938793772247
C           -2.20945706734642        1.94917683830004        0.66982430899293
H            0.29024434804066        1.90853906744849       -0.17584220362585
H           -5.18399453819969       -1.02738190611143        0.38711414020881
H           -4.35852680819205       -0.90843506427551       -1.89224131430472
H           -5.31899063535524        0.55816677937185       -1.56067101726914
H           -3.55391217352237        0.64060201639081       -1.59325374050686
H           -1.51587155500763       -2.63424628411768        0.06474444607706
H            0.85336219364953       -2.30144589207506       -0.55669625008097
H           -2.65630115297871        1.77041476647751        1.64699349025869
H           -1.54923551927592        2.81321259467811        0.73044420664144
H           -3.03170100005109        2.18598808594379       -0.00273397799046
24
 energy: -43.508610935591 gnorm: 0.005604323296 xtb: 6.7.1 (edcfbbe)
Cl           2.33908250152873        0.10918376032199       -0.92767043056787
C            0.69168946377748       -0.16664354893961       -0.44334614057456
C           -0.11917462880121        0.90914323248685       -0.13982564194036
C           -1.44480233531363        0.74338149649856        0.23816017526769
C           -1.97420936923690       -0.56375952800068        0.27175621097522
O           -3.22043882616949       -0.95556223057512        0.59338141638887
C           -4.41377228461290       -0.27271683228659        0.17838299874243
C           -4.90767484080774        0.96933834988553        1.08333287884998
O           -5.57247464831314        1.80998429218648        0.46849931262426
O           -4.60781779304407        0.89768555283352        2.27667375936834
C           -4.39892825787772        0.02218366709728       -1.31682541608454
C           -1.11050851270725       -1.63482704567896        0.00127019983130
C            0.21096737618145       -1.45739263140387       -0.34700344916712
C           -2.20710340406548        1.95215988162345        0.67194011788996
H            0.29052782450904        1.90792857260745       -0.17938736553016
H           -5.18172425602998       -1.03427951520476        0.37872684905962
H           -4.38573705338704       -0.90336816859565       -1.89809424918086
H           -5.29355985112159        0.59501809311304       -1.55488981523869
H           -3.52531290793419        0.61417739954523       -1.59232590527601
H           -1.51749974664156       -2.63167090315088        0.07333862428242
H            0.84912660243379       -2.30283225079100       -0.55451317719171
H           -2.65766582372765        1.77110643083621        1.64725895551144
H           -1.54499323934247        2.81402056135937        0.73393153179982
H           -3.03022598929642        2.19013136423229        0.00087856016069
24
 energy: -43.508690371958 gnorm: 0.008761625440 xtb: 6.7.1 (edcfbbe)
Cl           2.33661078437195        0.09928762041234       -0.93271216804254
C            0.69164830546306       -0.16952709820043       -0.44346984159962
C           -0.11709979948659        0.90874297101615       -0.14153699663611
C           -1.44297525596773        0.74807723240941        0.23733128657169
C           -1.97450099392142       -0.55877478226258        0.27727923236085
O           -3.21895939993920       -0.94895349832327        0.60652282775400
C           -4.41462259137738       -0.28000360043142        0.17824392715764
C           -4.92095625639737        0.94930760829954        1.08443869523828
O           -5.62409427656484        1.76658300667090        0.48883973081399
O           -4.59486032167645        0.90095143038960        2.26732982656124
C           -4.38674303744263        0.03155721685136       -1.31414629572062
C           -1.11383120272950       -1.63194289947208        0.00703453350426
C            0.20733786200780       -1.45926404465681       -0.34404145923130
C           -2.20516785257961        1.95975598792051        0.66365233869979
H            0.29581626783293        1.90641603201074       -0.18437556337229
H           -5.17640631301181       -1.05272741756676        0.36161276034669
H           -4.40796250209374       -0.88434424345538       -1.90794237135783
H           -5.26017494266458        0.63994474222508       -1.54287468162937
H           -3.49201172240656        0.59370033177816       -1.57914286018425
H           -1.52470610420026       -2.62678116813600        0.08199118575808
H            0.84244734396587       -2.30696329245886       -0.55186780509689
H           -2.66270213216443        1.78075836189873        1.63653500509660
H           -1.54211611958154        2.82030900340176        0.72543187724085
H           -3.02619973943589        2.19628049967942       -0.01048318423300
24
 energy: -43.508639088234 gnorm: 0.017351432109 xtb: 6.7.1 (edcfbbe)
Cl           2.33386243646214        0.09463775259939       -0.93839462858965
C            0.69098151518397       -0.17184328850563       -0.44368936768842
C           -0.11731503627883        0.90765197024621       -0.14247062704641
C           -1.44314602473089        0.74888608016116        0.23808168299029
C           -1.97456683088619       -0.55857170827884        0.28256307706995
O           -3.21735846032553       -0.94790796640948        0.61620868245472
C           -4.41369865467462       -0.28626580327648        0.17769127282767
C           -4.93170561646592        0.93838932492671        1.08184847842679
O           -5.71327144287842        1.70511660004651        0.49561631880758
O           -4.53727121038194        0.94079251331463        2.25560864423684
C           -4.37418025558654        0.04245393847545       -1.31144606255436
C           -1.11459083073902       -1.63248174166493        0.01242515726808
C            0.20619099624631       -1.46169499848591       -0.34190304773019
C           -2.20745435683733        1.96088828322268        0.65984593744276
H            0.29721555618210        1.90505978416446       -0.18802701092568
H           -5.17238202762971       -1.06599218709528        0.34869117266751
H           -4.44464372353776       -0.86199838489941       -1.92239118184591
H           -5.21932285700942        0.69968179950429       -1.52534356228061
H           -3.44973168783807        0.56267558615542       -1.56709829650621
H           -1.52853567036421       -2.62629569583164        0.09038739304144
H            0.84022444768467       -2.31007363369314       -0.55067873255123
H           -2.67144598507759        1.78013379089615        1.63016717031349
H           -1.54573497837381        2.82202991591898        0.72556365939519
H           -3.02434930214333        2.19711806850884       -0.01960612922349
24
 energy: -43.508813144972 gnorm: 0.003405982009 xtb: 6.7.1 (edcfbbe)
Cl           2.33987504367939        0.09982339466419       -0.92435909707826
C            0.69250989034546       -0.17081886455485       -0.44045710650170
C           -0.11757241593031        0.90763574950314       -0.14084369961473
C           -1.44429543830638        0.74589166707638        0.23623153831864
C           -1.97414205083265       -0.56174486927626        0.27709424962196
O           -3.21718412439899       -0.95194099915537        0.60928465062932
C           -4.41397150694161       -0.28272187614649        0.17938703192029
C           -4.92469508960594        0.94849251451606        1.08683036461423
O           -5.64890693021927        1.74635739650738        0.48696183043666
O           -4.57605603195110        0.91889385246529        2.26844263731904
C           -4.38238772837703        0.03931566295036       -1.31011634699759
C           -1.11260743724514       -1.63462953018605        0.00565840565154
C            0.20920677647334       -1.46123973976432       -0.34428075747505
C           -2.21045119184237        1.95666607605485        0.65803621610624
H            0.29594202932669        1.90544319564388       -0.18384050584440
H           -5.17454692293553       -1.05753699534678        0.35906874194893
H           -4.41385220747124       -0.86721003214398       -1.91547788500070
H           -5.24754509680907        0.65786387867344       -1.53153924360569
H           -3.48248487975578        0.59179081961654       -1.56948892458501
H           -1.52581417833147       -2.62930446417450        0.08034466419851
H            0.84516611491586       -2.30814525966092       -0.55314270495653
H           -2.67146768117660        1.77781652595420        1.62969882326297
H           -1.55043459930263        2.81981986916505        0.72297412662450
H           -3.02651434330755        2.19187202761893       -0.02281700899302
24
 energy: -43.508845582123 gnorm: 0.003894146394 xtb: 6.7.1 (edcfbbe)
Cl           2.34183965977601        0.10006379779342       -0.92063726909317
C            0.69354704105178       -0.17119006110713       -0.43960383160587
C           -0.11706124472378        0.90742310186828       -0.14141349596518
C           -1.44415065275802        0.74488346852961        0.23545630721282
C           -1.97306609319837       -0.56292427951717        0.27748101277713
O           -3.21622081790658       -0.95268859218211        0.61089518166649
C           -4.41223748455263       -0.28147099780894        0.17985306881834
C           -4.92916810485145        0.94572599070897        1.08956206771929
O           -5.66483725984160        1.73674387709961        0.49280228579332
O           -4.57738404666951        0.91719805643162        2.26795488370835
C           -4.37965691970709        0.04352394632228       -1.30871059107679
C           -1.11147527474970       -1.63591410510501        0.00610523160171
C            0.21058836267685       -1.46178433813564       -0.34370452348864
C           -2.21141652192000        1.95601275373697        0.65423663515536
H            0.29618733855932        1.90540765720270       -0.18505738628441
H           -5.17409874663401       -1.05564476546209        0.35584182095968
H           -4.42518676916833       -0.86307751101143       -1.91692481693451
H           -5.23931586005082        0.67561577232237       -1.52524411312659
H           -3.47089216033821        0.58505966810868       -1.56901521376628
H           -1.52442608839127       -2.63088729558430        0.08113035758444
H            0.84695364331798       -2.30855115457664       -0.55221251220379
H           -2.67390960114373        1.77863839364938        1.62535076013142
H           -1.55200870927352        2.81990342680347        0.71972618265673
H           -3.02483368950323        2.19032318991324       -0.03022204223971
24
 energy: -43.508885136401 gnorm: 0.003040994362 xtb: 6.7.1 (edcfbbe)
Cl           2.34555389993890        0.09954016696338       -0.91171269385251
C            0.69492216032558       -0.17233473889422       -0.43667396207612
C           -0.11634975487566        0.90656307895886       -0.14125049724903
C           -1.44404415752681        0.74352322203274        0.23368942393396
C           -1.97179731747979       -0.56450893293227        0.27758557939154
O           -3.21477699083217       -0.95319296856600        0.61323345168433
C           -4.41088176166776       -0.28163308995436        0.17993620028042
C           -4.93692020438117        0.94076181053915        1.09432523922703
O           -5.69187741317932        1.71672333313052        0.50183670610757
O           -4.56792446400786        0.92290372098875        2.26868813934063
C           -4.37516769614882        0.05135316601881       -1.30636969234224
C           -1.11019804500025       -1.63764709146564        0.00609745662188
C            0.21223416820048       -1.46307656051542       -0.34242447495034
C           -2.21417375811990        1.95472466913940        0.64716941763762
H            0.29696396893217        1.90448495939990       -0.18537462546560
H           -5.17240938821965       -1.05733490212103        0.35037271129944
H           -4.43912834825554       -0.85029853406762       -1.92160153857107
H           -5.22462825674964        0.70104435220631       -1.51501938250403
H           -3.45628407607362        0.57717571113663       -1.56604651786329
H           -1.52376592807238       -2.63254754536328        0.08053733268850
H            0.84903506984091       -2.30952086889884       -0.55098325324953
H           -2.68136441803929        1.77870963394364        1.61624128865741
H           -1.55586400899360        2.81959960513558        0.71460390027210
H           -3.02338327961468        2.18737780318518       -0.04321020901850
24
 energy: -43.508908743014 gnorm: 0.003841314040 xtb: 6.7.1 (edcfbbe)
Cl           2.35126514633939        0.09753618937619       -0.89934169064403
C            0.69739965739950       -0.17408770853378       -0.43224251783338
C           -0.11441869728099        0.90539492756982       -0.14066093565649
C           -1.44311042608965        0.74243759760800        0.23071911205261
C           -1.97005886153567       -0.56566607864040        0.27649648387950
O           -3.21285913932078       -0.95275025188978        0.61423160703660
C           -4.40929837371975       -0.28142250880798        0.17963949170943
C           -4.94495206382803        0.93486637096641        1.10125478484929
O           -5.72243999237507        1.69403838809208        0.51430995223695