94
 energy: -143.054987035190 gnorm: 0.088892139542 xtb: 6.7.1 (edcfbbe)
C            0.78386000000000        1.21124000000000        0.10803000000000
C            0.77104000000000       -0.30665000000000        0.16730000000000
C            1.48993000000000       -0.87713000000000        1.39447000000000
C            0.94849000000000       -0.43406000000000        2.76336000000000
C           -0.52212000000000       -0.79753000000000        2.97018000000000
C           -0.87896000000000       -1.54675000000000        4.25817000000000
O            0.09081000000000       -2.42113000000000        4.82058000000000
C            0.54825000000000       -3.53352000000000        4.05032000000000
C           -0.53607000000000       -4.33311000000000        3.33225000000000
O           -0.73606000000000       -3.74099000000000        2.05214000000000
C           -2.01228000000000       -3.96599000000000        1.46389000000000
C           -2.29618000000000       -5.42967000000000        1.14785000000000
O           -1.58834000000000       -5.88686000000000        0.00416000000000
C           -0.22279000000000       -6.24912000000000        0.19459000000000
C            0.76362000000000       -5.15449000000000       -0.23034000000000
O            0.89169000000000       -4.96825000000000       -1.63605000000000
C           -0.23482000000000       -4.37809000000000       -2.27841000000000
C           -1.28413000000000       -5.36493000000000       -2.81319000000000
O           -0.92248000000000       -6.73260000000000       -2.96478000000000
C            0.38356000000000       -7.05560000000000       -3.43084000000000
C            0.97558000000000       -6.21790000000000       -4.57897000000000
O            0.04356000000000       -5.37847000000000       -5.25455000000000
C           -0.65092000000000       -5.93380000000000       -6.36526000000000
C           -1.33042000000000       -7.29450000000000       -6.15672000000000
O           -0.44023000000000       -8.34073000000000       -5.80494000000000
C            0.24095000000000       -9.10816000000000       -6.78413000000000
C            1.08483000000000       -8.34373000000000       -7.79968000000000
O            0.62261000000000       -8.33191000000000       -9.13834000000000
C           -0.66096000000000       -7.82856000000000       -9.47671000000000
C           -1.78713000000000       -8.86288000000000       -9.38067000000000
O           -1.71906000000000       -9.92814000000000      -10.31261000000000
C           -0.52426000000000      -10.71585000000000      -10.30701000000000
C            0.51664000000000      -10.25734000000000      -11.34779000000000
O            0.00101000000000       -9.49005000000000      -12.44247000000000
C           -1.00530000000000      -10.13547000000000      -13.22971000000000
C           -0.55612000000000      -11.45281000000000      -13.85572000000000
O           -0.63190000000000      -12.46393000000000      -12.86936000000000
S            0.35199000000000      -13.75540000000000      -12.94064000000000
O            1.55853000000000      -13.27991000000000      -13.60312000000000
O            0.53910000000000      -14.09127000000000      -11.53018000000000
O           -0.42768000000000      -14.72259000000000      -13.70695000000000
H            0.19185000000000        1.64705000000000        0.91806000000000
H            0.35294000000000        1.55361000000000       -0.83827000000000
H            1.80541000000000        1.59763000000000        0.17562000000000
H           -0.26396000000000       -0.66257000000000        0.12211000000000
H            1.26505000000000       -0.69671000000000       -0.73125000000000
H            1.44999000000000       -1.97126000000000        1.33126000000000
H            2.55169000000000       -0.60808000000000        1.33925000000000
H            1.58098000000000       -0.87266000000000        3.54167000000000
H            1.06944000000000        0.65009000000000        2.87010000000000
H           -1.12039000000000        0.12351000000000        2.94525000000000
H           -0.89467000000000       -1.37551000000000        2.12285000000000
H           -1.08305000000000       -0.80121000000000        5.03473000000000
H           -1.82523000000000       -2.08436000000000        4.12435000000000
H            1.31640000000000       -3.19123000000000        3.35091000000000
H            1.04670000000000       -4.19550000000000        4.76678000000000
H           -0.17571000000000       -5.35324000000000        3.17078000000000
H           -1.46517000000000       -4.36199000000000        3.90848000000000
H           -2.78007000000000       -3.55277000000000        2.12531000000000
H           -2.02804000000000       -3.38276000000000        0.53562000000000
H           -2.11412000000000       -6.09427000000000        1.99663000000000
H           -3.35761000000000       -5.51117000000000        0.89044000000000
H           -0.04567000000000       -6.54527000000000        1.23235000000000
H           -0.05231000000000       -7.13866000000000       -0.42042000000000
H            0.55386000000000       -4.18309000000000        0.21159000000000
H            1.75890000000000       -5.45677000000000        0.11354000000000
H           -0.70464000000000       -3.61686000000000       -1.64499000000000
H            0.16832000000000       -3.82315000000000       -3.13305000000000
H           -2.16444000000000       -5.34778000000000       -2.16440000000000
H           -1.69859000000000       -4.99186000000000       -3.75657000000000
H            1.08298000000000       -7.07952000000000       -2.58900000000000
H            0.35264000000000       -8.11235000000000       -3.71145000000000
H            1.72151000000000       -5.54465000000000       -4.14206000000000
H            1.54919000000000       -6.83878000000000       -5.27449000000000
H           -1.43172000000000       -5.20761000000000       -6.61937000000000
H            0.03410000000000       -5.92279000000000       -7.20975000000000
H           -2.02630000000000       -7.19340000000000       -5.31697000000000
H           -1.94311000000000       -7.57137000000000       -7.01419000000000
H            0.93974000000000       -9.70995000000000       -6.18961000000000
H           -0.43551000000000       -9.83697000000000       -7.22480000000000
H            1.34769000000000       -7.33518000000000       -7.48897000000000
H            2.04654000000000       -8.86735000000000       -7.86374000000000
H           -0.89156000000000       -6.93374000000000       -8.89888000000000
H           -0.59398000000000       -7.50681000000000      -10.52159000000000
H           -1.89947000000000       -9.29653000000000       -8.38927000000000
H           -2.73367000000000       -8.34921000000000       -9.58310000000000
H           -0.08259000000000      -10.79114000000000       -9.30681000000000
H           -0.84021000000000      -11.73424000000000      -10.54549000000000
H            1.26876000000000       -9.62363000000000      -10.87282000000000
H            1.10765000000000      -11.10278000000000      -11.71151000000000
H           -1.91804000000000      -10.26525000000000      -12.64195000000000
H           -1.24393000000000       -9.42588000000000      -14.02855000000000
H           -1.23784000000000      -11.72496000000000      -14.66607000000000
H            0.45379000000000      -11.32808000000000      -14.25425000000000
94
 energy: -143.072894902033 gnorm: 0.043452110940 xtb: 6.7.1 (edcfbbe)
C            0.78340424343209        1.21433699348431        0.10839927878938
C            0.77395154456626       -0.30579154564049        0.17233734857278
C            1.49213567912453       -0.87953470382163        1.39671492405921
C            0.94514894043030       -0.42916537586354        2.75793615161154
C           -0.52823261008377       -0.79922663483708        2.95815172292207
C           -0.87436643773591       -1.54049066352278        4.26047570519091
O            0.09390842303159       -2.41101199474739        4.81875348734525
C            0.54490221214421       -3.52067606024708        4.05411572769344
C           -0.53012551359452       -4.32215535737189        3.32553101332840
O           -0.74425296048877       -3.73043770362494        2.05319814244233
C           -2.01384360771718       -3.96762587824560        1.47507229818518
C           -2.29996770338363       -5.43168261906309        1.14295915520466
O           -1.59798124376458       -5.89940886809243        0.01276211109696
C           -0.23277130726379       -6.24508027907559        0.18736661985610
C            0.75848857260511       -5.15069352392479       -0.22887885517702
O            0.88585605601514       -4.96028342007471       -1.62584335534572
C           -0.22406700508813       -4.38067136786955       -2.28817077589836
C           -1.28885944426098       -5.36438928614954       -2.81161114435419
O           -0.91174920992172       -6.72104944872092       -2.96509233946484
C            0.38583695246114       -7.05726469278807       -3.42634055545727
C            0.97159942501695       -6.20139671082777       -4.56837856451189
O            0.03508224433241       -5.38324443133978       -5.24975206088508
C           -0.64691513685896       -5.93263493135716       -6.36402691728128
C           -1.31731424347981       -7.29740428002956       -6.14408345154670
O           -0.43282012497060       -8.34241123426243       -5.79106728682070
C            0.24966563786593       -9.10508612150416       -6.77105441221567
C            1.08980747359550       -8.35562544111231       -7.81334581308040
O            0.63317945230006       -8.33709094717840       -9.14935051204650
C           -0.65044301379801       -7.84019002792192       -9.48157008852714
C           -1.78585388071450       -8.86866810520135       -9.38982923280416
O           -1.71718704859914       -9.92112245251488      -10.32416038583057
C           -0.53679493309741      -10.72322678662244      -10.33225834674403
C            0.51971433147411      -10.25496451857642      -11.35257491979861
O           -0.00607909088238       -9.49394645504275      -12.43407634083350
C           -1.00086073941206      -10.13152881037694      -13.22636712615419
C           -0.56313703900362      -11.46261960317396      -13.83885597392962
O           -0.64929487489579      -12.45744815434318      -12.85875099138121
S            0.35318563047370      -13.74601778459260      -12.94637302234934
O            1.55744610547688      -13.25827204301262      -13.60335676237798
O            0.54073670598007      -14.08728123925765      -11.54211801938613
O           -0.40397298224583      -14.72462914230175      -13.71543573347440
H            0.19681294780205        1.64635018329896        0.91776089819381
H            0.35477383659229        1.55531352847563       -0.83418175003059
H            1.80139558167803        1.59635863422369        0.17711681246693
H           -0.25997353446049       -0.65973655470878        0.13864906470247
H            1.26840321920052       -0.69953101599674       -0.72160691064664
H            1.44028758391068       -1.97117000987267        1.33673492496988
H            2.54969617708673       -0.60216522324740        1.34135876628898
H            1.55955137845857       -0.88108764265191        3.54122207236552
H            1.07169394993522        0.65183127418283        2.86031489725346
H           -1.13468066271192        0.11305539353880        2.94597987898535
H           -0.86727708402119       -1.40170343066435        2.11448446844509
H           -1.05198795512620       -0.80997758431699        5.05794650169742
H           -1.82033310168828       -2.08213291922734        4.11470700466194
H            1.29543310129113       -3.19441933104441        3.32538348923079
H            1.03894635659672       -4.17315546234555        4.78253398535595
H           -0.16993737251955       -5.34990416888285        3.18894596429872
H           -1.45714557983888       -4.34810982529441        3.90844919741718
H           -2.79545740902954       -3.56979813307111        2.13747375004951
H           -2.02132718240231       -3.39086662835508        0.54486878968489
H           -2.10713256971434       -6.08130907874572        2.00489458790985
H           -3.35910343865363       -5.51972578353606        0.87904312921042
H           -0.04284426729167       -6.53107350778419        1.22888116441584
H           -0.06526172959398       -7.12654934198773       -0.44026367839280
H            0.51785379333175       -4.19019876892427        0.23718155511920
H            1.75755468302664       -5.45642891064866        0.10373632880534
H           -0.70638882027669       -3.63962082870608       -1.63614648371696
H            0.20027528850669       -3.83673916403502       -3.14034403887847
H           -2.14766200840063       -5.39087956771047       -2.12930757105987
H           -1.66848859311617       -4.97710875123530       -3.76892083676915
H            1.09665464568025       -7.04100535475275       -2.58756171225477
H            0.30278313945275       -8.10565238547995       -3.73824898875933
H            1.70201514285226       -5.50409808730477       -4.14017606292761
H            1.51780549743677       -6.84503413181230       -5.26844480952279
H           -1.43403032447842       -5.20506455889924       -6.59935883869914
H            0.04283600792910       -5.94413295639611       -7.21422324377872
H           -1.99978023268034       -7.20637362663228       -5.29121662102362
H           -1.92022823327980       -7.55743132341783       -7.02007000271697
H            0.93415927946143       -9.71032018923193       -6.16424351668977
H           -0.43586147290712       -9.81007743054978       -7.25026886561073
H            1.31728171646353       -7.33798145034948       -7.47824365659209
H            2.05283805727488       -8.87335379213946       -7.89528669417335
H           -0.89726844847405       -6.94934662747252       -8.89262938615374
H           -0.57100413319620       -7.53485596485683      -10.53066609679673
H           -1.87864814152712       -9.29592272781120       -8.38459429521445
H           -2.72900703804444       -8.35138356087192       -9.60849851118427
H           -0.08505386749392      -10.77350042009121       -9.33371493788577
H           -0.86331992247009      -11.73514799755586      -10.59206990579831
H            1.24857182274074       -9.58877714770521      -10.87847295779823
H            1.06983359783091      -11.13082586025139      -11.72046046496780
H           -1.90892867006348      -10.28229679587700      -12.63284375747207
H           -1.22119475109577       -9.41385698998870      -14.02586299902260
H           -1.23416001629848      -11.72430917510400      -14.66800659447212
H            0.46123027725091      -11.37929717542952      -14.22059374113860
94
 energy: -143.079248759787 gnorm: 0.017648808259 xtb: 6.7.1 (edcfbbe)
C            0.78589093262056        1.21692300723942        0.11161523688557
C            0.77481668571358       -0.30518247826093        0.17725278668481
C            1.49406935213489       -0.87632419362406        1.40207967982627
C            0.94192259163035       -0.42072548637846        2.75756915734432
C           -0.53295716615905       -0.80068044903284        2.94850384233590
C           -0.86817415737114       -1.53112506490856        4.26303441839731
O            0.10182166912900       -2.39978905317996        4.81110299095350
C            0.54448256674912       -3.50621471577879        4.05204476864172
C           -0.53486113131330       -4.31182486113066        3.33110897371228
O           -0.75977504155609       -3.72687246013268        2.06458149138444
C           -2.01935803473942       -3.97130551965327        1.48659385841949
C           -2.30157228951922       -5.43934021456353        1.14621068188675
O           -1.60867961896504       -5.91528351770067        0.02579505995959
C           -0.24473665825378       -6.24952490729982        0.18339433465040
C            0.74450277034822       -5.14514575891211       -0.22129395460129
O            0.88402560635547       -4.94517154916500       -1.60661557239444
C           -0.21391956819641       -4.37463671933120       -2.28344940486206
C           -1.28566548666232       -5.36040100716093       -2.80098180765457
O           -0.90127272267042       -6.70933030768660       -2.95885822111389
C            0.39003365946357       -7.04622129934472       -3.42261907111003
C            0.96913203948464       -6.17962276774331       -4.56513147841093
O            0.02520266574620       -5.37743673971457       -5.24578791085540
C           -0.64601995936774       -5.93032135438898       -6.35647689227028
C           -1.30298043312606       -7.30396104055702       -6.13270399430248
O           -0.41478331142568       -8.34455343644735       -5.79174916426293
C            0.26028962672194       -9.11136720195848       -6.76914658189776
C            1.10074411706697       -8.36597187233211       -7.82295070372611
O            0.64183597183335       -8.34898153348080       -9.15220134099111
C           -0.63604777266858       -7.85367582935332       -9.49396983031346
C           -1.78339507463127       -8.87589528100987       -9.41013827597830
O           -1.72315759824983       -9.91531111603465      -10.34561035033257
C           -0.55434868664273      -10.72952106169378      -10.35894363603432
C            0.51339575798069      -10.25833825302198      -11.36984123660706
O           -0.00893081132870       -9.49712110340670      -12.44295300391397
C           -0.99530414372872      -10.13267934341487      -13.23265169299573
C           -0.56970699590601      -11.48187083356128      -13.82258911453041
O           -0.67989573139284      -12.45882343176329      -12.84552334407090
S            0.35854665003077      -13.73341779506138      -12.95237266959288
O            1.55652753997157      -13.21170736879605      -13.59493424131841
O            0.54231779031675      -14.08601539145684      -11.55564923097458
O           -0.35890517470642      -14.72704955841906      -13.73529333358659
H            0.20156311825898        1.64605262136898        0.92076827428002
H            0.35748339011442        1.55431152841299       -0.82927521390888
H            1.80281226068984        1.59566400618994        0.17977238102846
H           -0.25923685145533       -0.65524772464000        0.15434666279966
H            1.26760083586060       -0.70194976773247       -0.71418676728585
H            1.43468000095441       -1.96590199418936        1.34425794643046
H            2.54937514932863       -0.59686176606998        1.34761757084029
H            1.54045916592276       -0.88032292436240        3.54728380165649
H            1.06912642894935        0.65807764440608        2.85493577453294
H           -1.15649957604332        0.09593929446260        2.92868059521582
H           -0.84034097605465       -1.43458885209672        2.11672760076271
H           -1.01747050814682       -0.80584463046347        5.06991128856630
H           -1.81853609049820       -2.06803360685871        4.11826764604408
H            1.27976668411598       -3.19476734426343        3.29816608012351
H            1.03977392759915       -4.14766095555397        4.78763547985971
H           -0.17175408005374       -5.34329423989500        3.21284260133548
H           -1.46087498709529       -4.33650397756407        3.91949980398076
H           -2.81489427803172       -3.59502921334588        2.15008231138036
H           -2.02419429286848       -3.39122367557313        0.55941166502844
H           -2.10492164788954       -6.07638277804310        2.02067363348906
H           -3.35883252495728       -5.52811704160305        0.87867656901489
H           -0.04227696604713       -6.53517261700032        1.22463940415395
H           -0.08166550832308       -7.11930292562421       -0.46092037303266
H            0.47815891941762       -4.19697281500868        0.26726599553994
H            1.74389692894724       -5.44978199603601        0.10754484169492
H           -0.70458171783737       -3.63584664604932       -1.63362737342225
H            0.22569122876389       -3.85194462520028       -3.13916847569151
H           -2.12310431295289       -5.42036945368285       -2.09659918885847
H           -1.65757993443466       -4.96027378045062       -3.75563136902192
H            1.11140376471075       -7.01963531731158       -2.59332726859311
H            0.27149706792520       -8.08307489494381       -3.75372073772015
H            1.68093841925706       -5.46420550549657       -4.13931438246540
H            1.50679694344017       -6.83180631469842       -5.26356505315702
H           -1.43892950861350       -5.20775938064540       -6.58181066841196
H            0.04145963925961       -5.95207272098957       -7.21243800125345
H           -1.96787669485937       -7.22504387072481       -5.26498733717889
H           -1.90490998921919       -7.55285728352268       -7.01505787102289
H            0.93503960003997       -9.71763264495354       -6.15626534671317
H           -0.43246852793389       -9.79964490102962       -7.26871536291538
H            1.30905953829651       -7.34437856084574       -7.47424555902314
H            2.06200659593380       -8.88062865188983       -7.91585501459869
H           -0.89401993541521       -6.96410674832670       -8.90266529149361
H           -0.53922105567777       -7.56337772092949      -10.54548662629833
H           -1.87174019807119       -9.29593256264886       -8.39655785497019
H           -2.71918925289785       -8.35054134891975       -9.63754892300464
H           -0.10286827123537      -10.78108327547926       -9.36093129589995
H           -0.89174946944863      -11.72955291751660      -10.64709339516704
H            1.22509750633763       -9.57640936757270      -10.89585451052709
H            1.04235009306850      -11.14990475115595      -11.73146980461489
H           -1.90398518659353      -10.29145795303616      -12.63989075189330
H           -1.19872696985394       -9.41460459197492      -14.03519976321216
H           -1.22666355823366      -11.72656469651825      -14.67391884738862
H            0.47032523883663      -11.44219489278719      -14.18194072138562
94
 energy: -143.082361685996 gnorm: 0.015243448120 xtb: 6.7.1 (edcfbbe)
C            0.78959251735106        1.22033179979762        0.11480170491426
C            0.77611385748843       -0.30243184458989        0.18356590746523
C            1.49715124213901       -0.87042883607857        1.40887156110231
C            0.93765119667463       -0.41080976973065        2.75916318194689
C           -0.53487671138661       -0.80564403429483        2.94115438839711
C           -0.86063560716987       -1.51601520320282        4.26937988591167
O            0.11226817917826       -2.38583125908737        4.80690657973172
C            0.54344305475859       -3.49301749460919        4.04970240962168
C           -0.54523707039402       -4.30479392511550        3.34591143556804
O           -0.77895840336362       -3.72818705718368        2.08080363873090
C           -2.03309149138655       -3.98032697168369        1.50227980440183
C           -2.30850611178818       -5.45184619261325        1.15744617606618
O           -1.62282352917425       -5.93182058369126        0.03964378867705
C           -0.25788529977265       -6.25877562296651        0.18407626062786
C            0.72741493103777       -5.14117987015266       -0.20390467079839
O            0.88514074275213       -4.92907835921524       -1.58106224397115
C           -0.20422361932522       -4.36316334885190       -2.27148703056563
C           -1.28011370670597       -5.35153593216438       -2.77989542230705
O           -0.89036456035417       -6.69612804083488       -2.94896376486938
C            0.39659765982973       -7.02909597425831       -3.42365094252885
C            0.96791266072409       -6.15167715123294       -4.56425968198237
O            0.01235209618116       -5.36499578410764       -5.24447972721905
C           -0.64842533052071       -5.93072337304705       -6.35040615785674
C           -1.28806780552062       -7.31417752128394       -6.12124826847176
O           -0.38742609671999       -8.34688689468065       -5.79359321860469
C            0.27231229286833       -9.12025869922974       -6.77388619754065
C            1.11334208716162       -8.37743916781916       -7.83301214009616
O            0.65240653934785       -8.37021548923704       -9.15850321940120
C           -0.61810845393752       -7.86723756162410       -9.51184824596468
C           -1.77974408798371       -8.87842279886043       -9.43451430304583
O           -1.73471255387806       -9.90921216891685      -10.37274014236803
C           -0.57660837769691      -10.73787579833957      -10.39013784562179
C            0.50464006107727      -10.26431562756315      -11.38902853755602
O           -0.01071608982850       -9.50389185343039      -12.46248532524944
C           -0.99299676083490      -10.14067139205607      -13.25063456418280
C           -0.57582628207748      -11.50407713366585      -13.81923111371206
O           -0.71368738544864      -12.47253603922230      -12.84299822078441
S            0.36929134419863      -13.72367862301810      -12.95567661876090
O            1.56305760701788      -13.15624878154032      -13.57077603268165
O            0.53764689066321      -14.09034812754517      -11.56352420258175
O           -0.29789395377049      -14.73134892312587      -13.76498497305476
H            0.20683858964152        1.64977981908222        0.92449296268267
H            0.36050508985066        1.55607436466467       -0.82592942928004
H            1.80726699995288        1.59657956685040        0.18173460419750
H           -0.25861358930279       -0.64934590903466        0.16817315330266
H            1.26538187185243       -0.70294551420775       -0.70735688711477
H            1.43765667501871       -1.95974007602341        1.35372136608917
H            2.55153255407064       -0.58943949892968        1.35549479504280
H            1.52907401088760       -0.86799305642572        3.55455823620850
H            1.05817023586945        0.66820525959696        2.85327360321227
H           -1.17676790658569        0.07618161659816        2.89801842579646
H           -0.81842344842420       -1.46872484585216        2.12345725698002
H           -0.98760699511262       -0.78441596372208        5.07331599292017
H           -1.81730735912341       -2.04543626812161        4.13896939326819
H            1.26521819571551       -3.19106669084081        3.27745707159459
H            1.04902926405743       -4.12715448167978        4.78329907831802
H           -0.18214440338735       -5.33788196635750        3.23666124629430
H           -1.46718116935501       -4.32480842519062        3.94255982678781
H           -2.83618044571105       -3.62007390110411        2.16704802577920
H           -2.04266057656341       -3.39464241755865        0.57892596812221
H           -2.10827521424669       -6.08091523609084        2.03840107256410
H           -3.36604522040319       -5.54182534557875        0.89293245076641
H           -0.04707721793851       -6.55649615241745        1.22064835893775
H           -0.09503624728674       -7.11542126890471       -0.47731919055149
H            0.44223587219762       -4.20298722848086        0.29592157008118
H            1.72481809803535       -5.44000995038096        0.13355974133116
H           -0.69830548504119       -3.61465771036941       -1.63591471902028
H            0.24454834013105       -3.85971082886319       -3.13291424791515
H           -2.10315704684699       -5.42607092005733       -2.06347127005583
H           -1.65969099320120       -4.94390278052427       -3.72675677143975
H            1.12618332600835       -7.00506359741168       -2.60288614851582
H            0.26774085183832       -8.05811118002207       -3.76587386808133
H            1.66542687795331       -5.42470267748860       -4.13704729946203
H            1.51115241356013       -6.80024312260109       -5.25963041897287
H           -1.45059618601409       -5.22005658505280       -6.57676816032222
H            0.03717273597071       -5.95312707673558       -7.20863533749472
H           -1.93976242988392       -7.24473411583639       -5.24305690597670
H           -1.89488303967538       -7.56192228569388       -7.00007318844195
H            0.94225803573732       -9.73209061941148       -6.16341259143717
H           -0.42827827327367       -9.79748050417702       -7.27703631183593
H            1.31472869821190       -7.35456967834063       -7.48294208807942
H            2.07470153465593       -8.88932498810592       -7.92691875453446
H           -0.87748748935378       -6.97570615350484       -8.92403119213509
H           -0.50795976886483       -7.58600465913019      -10.56406309197955
H           -1.87062291056276       -9.29671268860969       -8.41907917203443
H           -2.70717310950371       -8.33872633634757       -9.66052563860502
H           -0.13104973624209      -10.80670356062180       -9.39183875995403
H           -0.92521395450190      -11.72657427943071      -10.70165415916726
H            1.20885862662761       -9.58144521496135      -10.90921800856353
H            1.02821627027959      -11.15984066123688      -11.74436417856986
H           -1.90665937058010      -10.29228563664986      -12.66309387887004
H           -1.18447880076443       -9.43010220440313      -14.06137280057311
H           -1.21840054547863      -11.73758229240373      -14.68702675449027
H            0.47327809370056      -11.48966664183614      -14.15699688817194
94
 energy: -143.085723914806 gnorm: 0.019432491789 xtb: 6.7.1 (edcfbbe)
C            0.79554848853556        1.22615375290155        0.11748553919095
C            0.77878667377913       -0.29648407948791        0.19041802204227
C            1.50255833264825       -0.85806716254735        1.41685611018200