15
 energy: -34.386357017389 gnorm: 0.048759874479 xtb: 6.7.1 (edcfbbe)
I           -1.34497000000000        0.32339000000000        0.01151000000000
C            0.72687000000000       -0.00342000000000        0.01650000000000
C            1.40788000000000       -1.22313000000000        0.02397000000000
C            2.82188000000000       -1.22724000000000        0.01379000000000
C            3.55301000000000       -0.04145000000000       -0.00238000000000
C            2.88009000000000        1.17148000000000       -0.00721000000000
C            1.48265000000000        1.18918000000000        0.00214000000000
S            0.68322000000000       -2.88955000000000        0.04752000000000
O            1.17461000000000       -3.43826000000000       -1.21513000000000
O            1.29152000000000       -3.45736000000000        1.24984000000000
O           -0.75993000000000       -2.72303000000000        0.12132000000000
H            3.34428000000000       -2.18409000000000        0.01760000000000
H            4.63806000000000       -0.07505000000000       -0.01104000000000
H            3.43578000000000        2.10430000000000       -0.01951000000000
H            0.98566000000000        2.15699000000000       -0.00360000000000
15
 energy: -34.391154325024 gnorm: 0.019802016892 xtb: 6.7.1 (edcfbbe)
I           -1.32983304285614        0.07198777351542        0.01720598318467
C            0.77620418707421        0.02462586820418        0.01339634189783
C            1.42187141569891       -1.19068747510261        0.02366647547356
C            2.80972225047188       -1.21526494570035        0.01423118780153
C            3.55005816969111       -0.04488711403276       -0.00237571915837
C            2.89226392850349        1.17581151147592       -0.00781518299030
C            1.50997920652541        1.20913231248656       -0.00049775639787
S            0.67163174607268       -2.84744444031300        0.04689210513844
O            1.14770890893182       -3.41706842649056       -1.21086949831082
O            1.26051937343499       -3.43633110228622        1.24706976501271
O           -0.76802206391973       -2.64948366366144        0.11800291247426
H            3.29590556472039       -2.18149637034532        0.02120938464786
H            4.63170663532589       -0.08610576456888       -0.00992513032751
H            3.44818870047844        2.10383851675491       -0.01917502324339
H            1.00270501984666        2.16613332006416       -0.00569584520260
15
 energy: -34.392057743109 gnorm: 0.011568081782 xtb: 6.7.1 (edcfbbe)
I           -1.29250592580498        0.18398089703833        0.01255842910392
C            0.78667427373341        0.02121861181034        0.01631154483963
C            1.42407019764550       -1.18922128418715        0.02601429951355
C            2.79903617858649       -1.21709913778477        0.01423230118697
C            3.53738890298334       -0.05043463415475       -0.00291995378644
C            2.87875355606266        1.16999185782998       -0.00819542215400
C            1.50103873524060        1.20623829552892        0.00005964332864
S            0.68894345465613       -2.85540920669922        0.04704193706438
O            1.16610605312787       -3.42190208031842       -1.20919265366731
O            1.28390097598275       -3.44519164283041        1.24090743655912
O           -0.75426823729796       -2.69690785694708        0.12134327526378
H            3.26798963576472       -2.18685092754747        0.02221601960386
H            4.61776154234394       -0.08800897620544       -0.01074276987353
H            3.43318143667889        2.09749902648663       -0.01912279222412
H            0.98253922029664        2.15485705798051       -0.00519129475844
15
 energy: -34.392346996584 gnorm: 0.003290926942 xtb: 6.7.1 (edcfbbe)
I           -1.31595871484265        0.16103745138377        0.01477157655269
C            0.78114714530469        0.02161090583341        0.01502908132748
C            1.42527922380644       -1.18914856632099        0.02615130981496
C            2.80626057059146       -1.21953894636687        0.01558952640035
C            3.54429927554844       -0.04990165825926       -0.00215016978614
C            2.88368891857795        1.17041472314727       -0.00823200250797
C            1.50109041264340        1.20886241413072       -0.00049783146874
S            0.68558620252497       -2.85146964737953        0.04680854221681
O            1.16195070365543       -3.41734328431843       -1.20951141824501
O            1.27955180539994       -3.44184438653261        1.24033805163855
O           -0.75729183449072       -2.68924223752687        0.12098197638051
H            3.27467895533664       -2.19158636008748        0.02349769030722
H            4.62516136164524       -0.08518222261053       -0.01055428799936
H            3.44135759834906        2.09721314716764       -0.01995861172567
H            0.98380837594971        2.15887866773974       -0.00694343290567
15
 energy: -34.392378514508 gnorm: 0.001861558892 xtb: 6.7.1 (edcfbbe)
I           -1.31099309865194        0.14758533920819        0.01523886572731
C            0.78318622438246        0.02117003703173        0.01546071139855
C            1.42743354308632       -1.18841193239040        0.02717124434038
C            2.80861437833816       -1.22046449596412        0.01659196471657
C            3.54520898997416       -0.04967154870492       -0.00185997992610
C            2.88343911986543        1.17018415802968       -0.00889848610684
C            1.50034546271900        1.20994426603501       -0.00111917963865
S            0.68407455231211       -2.84800486910222        0.04660698710076
O            1.15807360015071       -3.41373269073921       -1.21006012189909
O            1.27684589473408       -3.44136821093106        1.23857413379226
O           -0.75854746379976       -2.68354479952281        0.12153548241171
H            3.27336419365300       -2.19414499769272        0.02532435303504
H            4.62615135502519       -0.08211639346189       -0.01014951938377
H            3.44213087111871        2.09655409432687       -0.02106316153666
H            0.98128237709238        2.15878204387786       -0.00803329403145
15
 energy: -34.392385688145 gnorm: 0.000764029799 xtb: 6.7.1 (edcfbbe)
I           -1.31046166611628        0.14811372107657        0.01558918126063
C            0.78397756930804        0.02057673340820        0.01567067708856
C            1.42913070019593       -1.18820467835098        0.02868348790499
C            2.81018525111271       -1.22133628360323        0.01824806746253
C            3.54522962199018       -0.04989632017261       -0.00120744799093
C            2.88257602621420        1.16934003143894       -0.00950962769283
C            1.49980523457638        1.21012409169934       -0.00186308422458
S            0.68463336761384       -2.84645383948575        0.04637949328154
O            1.15605990444875       -3.41027443373836       -1.21148629254186
O            1.27769944825963       -3.44310883165861        1.23582950933211
O           -0.75813574118124       -2.68369380046732        0.12317426966539
H            3.27154097420107       -2.19617711189625        0.02799245066929
H            4.62627373917957       -0.07936746461785       -0.00947767116037
H            3.44236798323515        2.09514377776187       -0.02284146441094
H            0.97972758696209        2.15797440860603       -0.00986154864352
15
 energy: -34.392388284724 gnorm: 0.000526245260 xtb: 6.7.1 (edcfbbe)
I           -1.31062794554846        0.14884980771790        0.01520241123126
C            0.78342128990603        0.02045384253118        0.01621310648828
C            1.42898081639487       -1.18832324066479        0.03037204682952
C            2.81044594266454       -1.22145563670010        0.02000034483864
C            3.54521752819990       -0.04997891158699       -0.00052905553925
C            2.88240047062081        1.16921286437871       -0.01030421315423
C            1.49981264502205        1.21002994431896       -0.00268761275778
S            0.68494093859915       -2.84642033662106        0.04619297851690
O            1.15391674156299       -3.40698635388510       -1.21396504530582
O            1.27971529425291       -3.44591819846592        1.23319734041856
O           -0.75785201383233       -2.68441888827679        0.12572706249714
H            3.27123841319633       -2.19650662399863        0.03072874538055
H            4.62637951931263       -0.07846741550095       -0.00862141632413
H            3.44271723433084        2.09474895730470       -0.02458020552487
H            0.97990312531776        2.15794018944887       -0.01162648759476
