      -----------------------------------------------------------      
     |                   =====================                   |     
     |                           x T B                           |     
     |                   =====================                   |     
     |                         S. Grimme                         |     
     |          Mulliken Center for Theoretical Chemistry        |     
     |                    University of Bonn                     |     
      -----------------------------------------------------------      

   * xtb version 6.7.1 (edcfbbe) compiled by 'conda@3ef47c1a292c' on 2024-11-25

   xtb is free software: you can redistribute it and/or modify it under
   the terms of the GNU Lesser General Public License as published by
   the Free Software Foundation, either version 3 of the License, or
   (at your option) any later version.
   
   xtb is distributed in the hope that it will be useful,
   but WITHOUT ANY WARRANTY; without even the implied warranty of
   MERCHANTABILITY or FITNESS FOR A PARTICULAR PURPOSE.  See the
   GNU Lesser General Public License for more details.
   
   Cite this work as:
   * C. Bannwarth, E. Caldeweyher, S. Ehlert, A. Hansen, P. Pracht,
     J. Seibert, S. Spicher, S. Grimme, WIREs Comput. Mol. Sci., 2020, 11,
     e01493. DOI: 10.1002/wcms.1493
   
   for GFN2-xTB:
   * C. Bannwarth, S. Ehlert and S. Grimme., J. Chem. Theory Comput., 2019,
     15, 1652-1671. DOI: 10.1021/acs.jctc.8b01176
   for GFN1-xTB:
   * S. Grimme, C. Bannwarth, P. Shushkov, J. Chem. Theory Comput., 2017,
     13, 1989-2009. DOI: 10.1021/acs.jctc.7b00118
   for GFN0-xTB:
   * P. Pracht, E. Caldeweyher, S. Ehlert, S. Grimme, ChemRxiv, 2019, preprint.
     DOI: 10.26434/chemrxiv.8326202.v1
   for GFN-FF:
   * S. Spicher and S. Grimme, Angew. Chem. Int. Ed., 2020, 59, 15665-15673.
     DOI: 10.1002/anie.202004239
   
   for ALPB and GBSA implicit solvation:
   * S. Ehlert, M. Stahn, S. Spicher, S. Grimme, J. Chem. Theory Comput.,
     2021, 17, 4250-4261. DOI: 10.1021/acs.jctc.1c00471
   
   for ddCOSMO and CPCM-X implicit solvation:
   * M. Stahn, S. Ehlert, S. Grimme, J. Phys. Chem. A,
     2023, XX, XXXX-XXXX. DOI: 10.1021/acs.jpca.3c04382
   
   for DFT-D4:
   * E. Caldeweyher, C. Bannwarth and S. Grimme, J. Chem. Phys., 2017,
     147, 034112. DOI: 10.1063/1.4993215
   * E. Caldeweyher, S. Ehlert, A. Hansen, H. Neugebauer, S. Spicher,
     C. Bannwarth and S. Grimme, J. Chem. Phys., 2019, 150, 154122.
     DOI: 10.1063/1.5090222
   * E. Caldeweyher, J.-M. Mewes, S. Ehlert and S. Grimme, Phys. Chem. Chem. Phys.
     2020, 22, 8499-8512. DOI: 10.1039/D0CP00502A
   
   for sTDA-xTB:
   * S. Grimme and C. Bannwarth, J. Chem. Phys., 2016, 145, 054103.
     DOI: 10.1063/1.4959605
   
   in the mass-spec context:
   * V. Asgeirsson, C. Bauer and S. Grimme, Chem. Sci., 2017, 8, 4879.
     DOI: 10.1039/c7sc00601b
   * J. Koopman and S. Grimme, ACS Omega 2019, 4, 12, 15120-15133.
     DOI: 10.1021/acsomega.9b02011
   
   for metadynamics refer to:
   * S. Grimme, J. Chem. Theory Comput., 2019, 155, 2847-2862
     DOI: 10.1021/acs.jctc.9b00143
   
   for SPH calculations refer to:
   * S. Spicher and S. Grimme, J. Chem. Theory Comput., 2021, 17, 1701-1714
     DOI: 10.1021/acs.jctc.0c01306
   
   for ONIOM refer to:
   * C. Plett, A. Katbashev, S. Ehlert, S. Grimme, M. Bursch,
     Phys. Chem. Chem. Phys., 2023, 25, 17860-17868. DOI: 10.1039/D3CP02178E
   
   for DIPRO refer to:
   * J. Kohn, N. Gildemeister, S. Grimme, D. Fazzi, A. Hansen,
     J. Chem. Phys., 2023, just accepted.
   
   for PTB refer to:
   * S. Grimme, M. Mueller, A. Hansen, J. Chem. Phys., 2023, 158, 124111.
     DOI: 10.1063/5.0137838
   
   with help from (in alphabetical order)
   P. Atkinson, C. Bannwarth, F. Bohle, G. Brandenburg, E. Caldeweyher
   M. Checinski, S. Dohm, S. Ehlert, S. Ehrlich, I. Gerasimov, C. Hölzer
   A. Katbashev, J. Kohn, J. Koopman, C. Lavigne, S. Lehtola, F. März, M. Müller,
   F. Musil, H. Neugebauer, J. Pisarek, C. Plett, P. Pracht, F. Pultar,
   J. Seibert, P. Shushkov, S. Spicher, M. Stahn, M. Steiner, T. Strunk,
   J. Stückrath, T. Rose, and J. Unsleber
   
 * started run on 2024/12/20 at 01:52:39.129     
   ID    Z sym.   atoms
    1   53 I      1
    2    6 C      2-7
    3   16 S      8
    4    8 O      9-11
    5    1 H      12-15

           -------------------------------------------------
          |                Calculation Setup                |
           -------------------------------------------------

          program call               : xtb A025.xyz --opt --namespace A025 --charge -1
          calculation namespace      : A025
          coordinate file            : A025.xyz
          omp threads                :                     8


           -------------------------------------------------
          |                 G F N 2 - x T B                 |
           -------------------------------------------------

        Reference                      10.1021/acs.jctc.8b01176
      * Hamiltonian:
        H0-scaling (s, p, d)           1.850000    2.230000    2.230000
        zeta-weighting                 0.500000
      * Dispersion:
        s8                             2.700000
        a1                             0.520000
        a2                             5.000000
        s9                             5.000000
      * Repulsion:
        kExp                           1.500000    1.000000
        rExp                           1.000000
      * Coulomb:
        alpha                          2.000000
        third order                    shell-resolved
        anisotropic                    true
        a3                             3.000000
        a5                             4.000000
        cn-shift                       1.200000
        cn-exp                         4.000000
        max-rad                        5.000000


          ...................................................
          :                      SETUP                      :
          :.................................................:
          :  # basis functions                  60          :
          :  # atomic orbitals                  58          :
          :  # shells                           28          :
          :  # electrons                        60          :
          :  max. iterations                   250          :
          :  Hamiltonian                  GFN2-xTB          :
          :  restarted?                      false          :
          :  GBSA solvation                  false          :
          :  PC potential                    false          :
          :  electronic temp.          300.0000000     K    :
          :  accuracy                    1.0000000          :
          :  -> integral cutoff          0.2500000E+02      :
          :  -> integral neglect         0.1000000E-07      :
          :  -> SCF convergence          0.1000000E-05 Eh   :
          :  -> wf. convergence          0.1000000E-03 e    :
          :  Broyden damping             0.4000000          :
          :  net charge                         -1          :
          :  unpaired electrons                  0          :
          ...................................................

 iter      E             dE          RMSdq      gap      omega  full diag
   1    -34.6642832 -0.346643E+02  0.891E+00    4.07       0.0  T
   2    -34.7054173 -0.411341E-01  0.552E+00    3.06       1.0  T
   3    -34.6868145  0.186028E-01  0.255E+00    2.80       1.0  T
   4    -34.7148915 -0.280769E-01  0.107E+00    2.78       1.0  T
   5    -34.7141852  0.706300E-03  0.737E-01    2.89       1.0  T
   6    -34.7164377 -0.225251E-02  0.325E-01    2.88       1.0  T
   7    -34.7165601 -0.122405E-03  0.199E-01    2.88       1.0  T
   8    -34.7166932 -0.133093E-03  0.107E-01    2.89       1.0  T
   9    -34.7167118 -0.186290E-04  0.451E-02    2.88       1.0  T
  10    -34.7167219 -0.101363E-04  0.274E-02    2.89       1.0  T
  11    -34.7167230 -0.109159E-05  0.128E-02    2.88       2.0  T
  12    -34.7167234 -0.409328E-06  0.315E-03    2.88       8.2  T
  13    -34.7167234 -0.118223E-07  0.191E-03    2.88      13.5  T
  14    -34.7167235 -0.992557E-08  0.101E-03    2.88      25.5  T
  15    -34.7167235 -0.122918E-08  0.350E-04    2.88      73.7  T
  16    -34.7167235  0.558344E-10  0.175E-04    2.88     147.4  T

   *** convergence criteria satisfied after 16 iterations ***

         #    Occupation            Energy/Eh            Energy/eV
      -------------------------------------------------------------
         1        2.0000           -0.6178241             -16.8118
       ...           ...                  ...                  ...
        24        2.0000           -0.2834717              -7.7137
        25        2.0000           -0.2730356              -7.4297
        26        2.0000           -0.2713704              -7.3844
        27        2.0000           -0.2562879              -6.9739
        28        2.0000           -0.2554886              -6.9522
        29        2.0000           -0.2435103              -6.6263
        30        2.0000           -0.2401622              -6.5351 (HOMO)
        31                         -0.1341915              -3.6515 (LUMO)
        32                         -0.1316888              -3.5834
        33                         -0.1063820              -2.8948
        34                         -0.0132179              -0.3597
        35                          0.0687969               1.8721
       ...                                ...                  ...
        58                          1.3553437              36.8808
      -------------------------------------------------------------
                  HL-Gap            0.1059707 Eh            2.8836 eV
             Fermi-level           -0.1871769 Eh           -5.0933 eV

 SCC (total)                   0 d,  0 h,  0 min,  0.014 sec
 SCC setup                      ...        0 min,  0.000 sec (  0.757%)
 Dispersion                     ...        0 min,  0.000 sec (  0.836%)
 classical contributions        ...        0 min,  0.000 sec (  0.317%)
 integral evaluation            ...        0 min,  0.002 sec ( 14.686%)
 iterations                     ...        0 min,  0.010 sec ( 69.129%)
 molecular gradient             ...        0 min,  0.002 sec ( 13.680%)
 printout                       ...        0 min,  0.000 sec (  0.485%)

         :::::::::::::::::::::::::::::::::::::::::::::::::::::
         ::                     SUMMARY                     ::
         :::::::::::::::::::::::::::::::::::::::::::::::::::::
         :: total energy             -34.386357017161 Eh    ::
         :: gradient norm              0.048759905056 Eh/a0 ::
         :: HOMO-LUMO gap              2.883610239288 eV    ::
         ::.................................................::
         :: SCC energy               -34.716649735373 Eh    ::
         :: -> isotropic ES            0.198519045870 Eh    ::
         :: -> anisotropic ES         -0.022915067288 Eh    ::
         :: -> anisotropic XC         -0.004049689790 Eh    ::
         :: -> dispersion             -0.020185534334 Eh    ::
         :: repulsion energy           0.330292718212 Eh    ::
         :: add. restraining           0.000000000000 Eh    ::
         :: total charge              -1.000000000000 e     ::
         :::::::::::::::::::::::::::::::::::::::::::::::::::::

      ----------------------------------------------------------- 
     |                   =====================                   |
     |                        A N C O P T                        |
     |                   =====================                   |
     |               Approximate Normal Coordinate               |
     |                Rational Function Optimizer                |
      ----------------------------------------------------------- 
      ----------------------------------------------------------- 
     |                   =====================                   |
     |                        A N C O P T                        |
     |                   =====================                   |
     |               Approximate Normal Coordinate               |
     |                Rational Function Optimizer                |
      ----------------------------------------------------------- 

          ...................................................
          :                      SETUP                      :
          :.................................................:
          :   optimization level            normal          :
          :   max. optcycles                   200          :
          :   ANC micro-cycles                  20          :
          :   degrees of freedom                39          :
          :.................................................:
          :   RF solver                   davidson          :
          :   write xtbopt.log                true          :
          :   linear?                        false          :
          :   energy convergence         0.5000000E-05 Eh   :
          :   grad. convergence          0.1000000E-02 Eh/α :
          :   maxmium RF displ.          1.0000000          :
          :   Hlow (freq-cutoff)         0.1000000E-01      :
          :   Hmax (freq-cutoff)         5.0000000          :
          :   S6 in model hess.         20.0000000          :
          ...................................................

generating ANC from exact Hessian ...
Using Lindh-Hessian (1995)
 Shifting diagonal of input Hessian by    8.5910702005118182E-003
 Lowest  eigenvalues of input Hessian
    0.000000    0.000000    0.000000    0.000000    0.000000    0.000000
    0.010000    0.011415    0.013713    0.017172    0.023742    0.025241
    0.028362    0.049430    0.058043    0.066391    0.090101    0.091902
 Highest eigenvalues
    1.684975    1.782993    1.878150    1.913930    3.401078    3.447479


........................................................................
.............................. CYCLE    1 ..............................
........................................................................

 iter      E             dE          RMSdq      gap      omega  full diag
   1    -34.7167235 -0.347167E+02  0.926E-05    2.88       0.0  T
   2    -34.7167235 -0.769518E-11  0.668E-05    2.88     386.3  T
   3    -34.7167235  0.746070E-12  0.395E-05    2.88     653.4  T
     SCC iter.                  ...        0 min,  0.002 sec
     gradient                   ...        0 min,  0.002 sec
 * total energy  :   -34.3863570 Eh     change       -0.2282405E-09 Eh
   gradient norm :     0.0487596 Eh/α   predicted     0.0000000E+00 (-100.00%)
   displ. norm   :     0.5431960 α      lambda       -0.1191869E-01
   maximum displ.:     0.4910411 α      in ANC's #2, #5, #11, ...

........................................................................
.............................. CYCLE    2 ..............................
........................................................................

 iter      E             dE          RMSdq      gap      omega  full diag
   1    -34.7423458 -0.347423E+02  0.627E-01    2.94       0.0  T
   2    -34.7425836 -0.237799E-03  0.411E-01    2.98       1.0  T
   3    -34.7425693  0.142955E-04  0.178E-01    3.02       1.0  T
   4    -34.7426094 -0.401440E-04  0.123E-01    3.01       1.0  T
   5    -34.7426500 -0.405299E-04  0.875E-02    3.01       1.0  T
   6    -34.7426618 -0.117966E-04  0.376E-02    3.01       1.0  T
   7    -34.7426643 -0.254440E-05  0.186E-02    3.01       1.4  T
   8    -34.7426658 -0.148631E-05  0.909E-03    3.01       2.8  T
   9    -34.7426658 -0.532520E-07  0.592E-03    3.01       4.4  T
  10    -34.7426660 -0.137238E-06  0.193E-03    3.01      13.4  T
  11    -34.7426660 -0.463363E-08  0.122E-03    3.01      21.2  T
  12    -34.7426660 -0.338664E-08  0.527E-04    3.01      49.0  T
  13    -34.7426660 -0.880583E-09  0.194E-04    3.01     133.2  T
     SCC iter.                  ...        0 min,  0.007 sec
     gradient                   ...        0 min,  0.002 sec
 * total energy  :   -34.3911543 Eh     change       -0.4797308E-02 Eh
   gradient norm :     0.0198013 Eh/α   predicted    -0.7717678E-02 (  60.88%)
   displ. norm   :     0.2696518 α      lambda       -0.3270839E-02
   maximum displ.:     0.2500197 α      in ANC's #2, #11, #12, ...

........................................................................
.............................. CYCLE    3 ..............................
........................................................................

 iter      E             dE          RMSdq      gap      omega  full diag
   1    -34.7558206 -0.347558E+02  0.256E-01    3.11       0.0  T
   2    -34.7558948 -0.741993E-04  0.175E-01    3.06       1.0  T
   3    -34.7558878  0.704189E-05  0.113E-01    3.06       1.0  T
   4    -34.7559288 -0.409511E-04  0.505E-02    3.05       1.0  T
   5    -34.7559310 -0.227461E-05  0.251E-02    3.05       1.0  T
   6    -34.7559315 -0.424981E-06  0.169E-02    3.05       1.5  T
   7    -34.7559319 -0.462519E-06  0.865E-03    3.05       3.0  T
   8    -34.7559321 -0.212112E-06  0.350E-03    3.05       7.4  T
   9    -34.7559322 -0.235258E-07  0.148E-03    3.05      17.4  T
  10    -34.7559322 -0.978606E-08  0.594E-04    3.05      43.4  T
  11    -34.7559322 -0.240632E-09  0.402E-04    3.05      64.3  T
     SCC iter.                  ...        0 min,  0.006 sec
     gradient                   ...        0 min,  0.002 sec
 * total energy  :   -34.3920577 Eh     change       -0.9034181E-03 Eh
   gradient norm :     0.0115676 Eh/α   predicted    -0.1754332E-02 (  94.19%)
   displ. norm   :     0.0765065 α      lambda       -0.5801063E-03
   maximum displ.:     0.0535746 α      in ANC's #2, #11, #18, ...

........................................................................
.............................. CYCLE    4 ..............................
........................................................................

 iter      E             dE          RMSdq      gap      omega  full diag
   1    -34.7496192 -0.347496E+02  0.119E-01    3.02       0.0  T
   2    -34.7496259 -0.666005E-05  0.808E-02    3.03       1.0  T
   3    -34.7496094  0.164805E-04  0.522E-02    3.03       1.0  T
   4    -34.7496326 -0.232324E-04  0.215E-02    3.03       1.2  T
   5    -34.7496328 -0.220245E-06  0.105E-02    3.03       2.5  T
   6    -34.7496329 -0.125966E-07  0.689E-03    3.03       3.7  T
   7    -34.7496330 -0.124889E-06  0.270E-03    3.03       9.6  T
   8    -34.7496330 -0.220989E-07  0.106E-03    3.03      24.4  T
   9    -34.7496330 -0.384505E-08  0.366E-04    3.03      70.5  T
  10    -34.7496330 -0.590305E-09  0.205E-04    3.03     125.8  T
     SCC iter.                  ...        0 min,  0.005 sec
     gradient                   ...        0 min,  0.002 sec
 * total energy  :   -34.3923470 Eh     change       -0.2892535E-03 Eh
   gradient norm :     0.0032909 Eh/α   predicted    -0.2917491E-03 (   0.86%)
   displ. norm   :     0.0352181 α      lambda       -0.5878504E-04
   maximum displ.:     0.0293895 α      in ANC's #2, #12, #11, ...

........................................................................
.............................. CYCLE    5 ..............................
........................................................................

 iter      E             dE          RMSdq      gap      omega  full diag
   1    -34.7501403 -0.347501E+02  0.502E-02    3.02       0.0  T
   2    -34.7501413 -0.100605E-05  0.312E-02    3.03       1.0  T
   3    -34.7501416 -0.283017E-06  0.158E-02    3.03       1.6  T
   4    -34.7501417 -0.123273E-06  0.102E-02    3.03       2.5  T
   5    -34.7501417  0.167967E-07  0.688E-03    3.03       3.8  T
   6    -34.7501419 -0.234862E-06  0.214E-03    3.03      12.1  T
   7    -34.7501419 -0.224770E-08  0.104E-03    3.03      24.8  T
   8    -34.7501419 -0.972740E-09  0.684E-04    3.03      37.8  T
   9    -34.7501419 -0.184096E-08  0.208E-04    3.03     124.0  T
     SCC iter.                  ...        0 min,  0.030 sec
     gradient                   ...        0 min,  0.003 sec
 * total energy  :   -34.3923785 Eh     change       -0.3151792E-04 Eh
   gradient norm :     0.0018615 Eh/α   predicted    -0.2942947E-04 (  -6.63%)
   displ. norm   :     0.0174505 α      lambda       -0.8552657E-05
   maximum displ.:     0.0101470 α      in ANC's #4, #3, #15, ...

........................................................................
.............................. CYCLE    6 ..............................
........................................................................

 iter      E             dE          RMSdq      gap      omega  full diag
   1    -34.7506734 -0.347507E+02  0.173E-02    3.03       0.0  T
   2    -34.7506735 -0.938146E-07  0.101E-02    3.03       2.6  T
   3    -34.7506734  0.469670E-07  0.315E-03    3.03       8.2  T
   4    -34.7506735 -0.506357E-07  0.170E-03    3.03      15.2  T
   5    -34.7506735 -0.193956E-07  0.579E-04    3.03      44.6  T
   6    -34.7506735 -0.606661E-10  0.242E-04    3.03     106.8  T
     SCC iter.                  ...        0 min,  0.003 sec
     gradient                   ...        0 min,  0.002 sec
 * total energy  :   -34.3923857 Eh     change       -0.7173637E-05 Eh
   gradient norm :     0.0007640 Eh/α   predicted    -0.4275022E-05 ( -40.41%)
   displ. norm   :     0.0161004 α      lambda       -0.2194719E-05
   maximum displ.:     0.0126121 α      in ANC's #4, #3, #10, ...

........................................................................
.............................. CYCLE    7 ..............................
........................................................................

 iter      E             dE          RMSdq      gap      omega  full diag
   1    -34.7505583 -0.347506E+02  0.919E-03    3.03       0.0  T
   2    -34.7505583 -0.434048E-07  0.578E-03    3.03       4.5  T
   3    -34.7505583  0.751169E-08  0.225E-03    3.03      11.5  T
   4    -34.7505583 -0.769207E-08  0.119E-03    3.03      21.7  T
   5    -34.7505583 -0.950619E-08  0.527E-04    3.03      49.0  T
   6    -34.7505583 -0.353424E-09  0.288E-04    3.03      89.8  T
     SCC iter.                  ...        0 min,  0.003 sec
     gradient                   ...        0 min,  0.002 sec
 * total energy  :   -34.3923883 Eh     change       -0.2596579E-05 Eh
   gradient norm :     0.0005262 Eh/α   predicted    -0.1098097E-05 ( -57.71%)
   displ. norm   :     0.0626932 α      lambda       -0.6236711E-05
   maximum displ.:     0.0514341 α      in ANC's #4, #3, #10, ...

   *** GEOMETRY OPTIMIZATION CONVERGED AFTER 7 ITERATIONS ***

------------------------------------------------------------------------
 total energy gain   :        -0.0060313 Eh       -3.7847 kcal/mol
 total RMSD          :         0.1087089 a0        0.0575 Å
 total power (kW/mol):        -2.2621558 (step) -187.0123 (real)
------------------------------------------------------------------------

 ANCopt (total)                0 d,  0 h,  0 min,  0.085 sec
 optimizer setup                ...        0 min,  0.000 sec (  0.064%)
 model hessian                  ...        0 min,  0.001 sec (  1.610%)
 ANC generation                 ...        0 min,  0.000 sec (  0.291%)
 coordinate transformation      ...        0 min,  0.000 sec (  0.049%)
 single point calculation       ...        0 min,  0.081 sec ( 96.090%)
 optimization log               ...        0 min,  0.000 sec (  0.465%)
 hessian update                 ...        0 min,  0.000 sec (  0.103%)
 rational function              ...        0 min,  0.001 sec (  0.953%)

================
 final structure:
================
15
 xtb: 6.7.1 (edcfbbe)
I           -1.31062794554846        0.14884980771790        0.01520241123126
C            0.78342128990603        0.02045384253118        0.01621310648828
C            1.42898081639487       -1.18832324066479        0.03037204682952
C            2.81044594266454       -1.22145563670010        0.02000034483864
C            3.54521752819990       -0.04997891158699       -0.00052905553925
C            2.88240047062081        1.16921286437871       -0.01030421315423
C            1.49981264502205        1.21002994431896       -0.00268761275778
S            0.68494093859915       -2.84642033662106        0.04619297851690
O            1.15391674156299       -3.40698635388510       -1.21396504530582
O            1.27971529425291       -3.44591819846592        1.23319734041856
O           -0.75785201383233       -2.68441888827679        0.12572706249714
H            3.27123841319633       -2.19650662399863        0.03072874538055
H            4.62637951931263       -0.07846741550095       -0.00862141632413
H            3.44271723433084        2.09474895730470       -0.02458020552487
H            0.97990312531776        2.15794018944887       -0.01162648759476

 Bond Distances (Angstroems)
 ---------------------------
I1-C2=2.0980         C2-I1=2.0980         C2-C3=1.3704         C2-C7=1.3888         C3-C2=1.3704         C3-C4=1.3819         
C3-S8=1.8175         C4-C3=1.3819         C4-C5=1.3830         C4-H12=1.0785        C5-C4=1.3830         C5-C6=1.3878         
C5-H13=1.0816        C6-C5=1.3878         C6-C7=1.3832         C6-H14=1.0820        C7-C2=1.3888         C7-C6=1.3832         
C7-H15=1.0812        S8-C3=1.8175         S8-O9=1.4568         S8-O10=1.4568        S8-O11=1.4540        O9-S8=1.4568         
O10-S8=1.4568        O11-S8=1.4540        H12-C4=1.0785        H13-C5=1.0816        H14-C6=1.0820        H15-C7=1.0812        
 C  H  Rav=1.0808 sigma=0.0014  Rmin=1.0785  Rmax=1.0820     4
 C  C  Rav=1.3825 sigma=0.0060  Rmin=1.3704  Rmax=1.3888     6
 S  C  Rav=1.8175 sigma=0.0000  Rmin=1.8175  Rmax=1.8175     1
 S  O  Rav=1.4559 sigma=0.0013  Rmin=1.4540  Rmax=1.4568     3
 I  C  Rav=2.0980 sigma=0.0000  Rmin=2.0980  Rmax=2.0980     1

 selected bond angles (degree)
 --------------------
C3-C2-I1=121.61                C7-C2-I1=117.55                C7-C2-C3=120.84                C4-C3-C2=119.47                
S8-C3-C2=127.73                S8-C3-C4=112.80                C5-C4-C3=120.73                H12-C4-C3=116.66               
H12-C4-C5=122.61               C6-C5-C4=119.37                H13-C5-C4=120.59               H13-C5-C6=120.03               
C7-C6-C5=120.22                H14-C6-C5=120.28               H14-C6-C7=119.50               C6-C7-C2=119.37                
H15-C7-C2=120.20               H15-C7-C6=120.43               O9-S8-C3=102.22                O10-S8-C3=102.44               
O10-S8-O9=114.52               O11-S8-C3=107.76               O11-S8-O9=114.18               O11-S8-O10=113.98              

 selected dihedral angles (degree)
 ---------------------------------
C4-C3-C2-I1=179.50            C4-C3-C2-C7=359.73            S8-C3-C2-I1=  0.16            S8-C3-C2-C7=180.38            
C5-C4-C3-C2=  0.19            C5-C4-C3-S8=179.63            H12-C4-C3-C2=180.07           H12-C4-C3-S8=359.51           
C6-C5-C4-C3=  0.00            C6-C5-C4-H12=180.15           H13-C5-C4-C3=180.00           H13-C5-C4-H12=  0.13          
C7-C6-C5-C4=359.85            C7-C6-C5-H13=179.87           H14-C6-C5-C4=179.89           H14-C6-C5-H13=359.91          
C6-C7-C2-I1=180.36            C6-C7-C2-C3=  0.15            H15-C7-C2-I1=  0.34           H15-C7-C2-C3=180.13           
C2-C7-C6-C5=  0.07            C2-C7-C6-H14=180.03           H15-C7-C6-C5=180.08           H15-C7-C6-H14=  0.04          
O9-S8-C3-C2=117.14            O9-S8-C3-C4=297.76            O10-S8-C3-C2=236.00           O10-S8-C3-C4= 56.62           
O11-S8-C3-C2=356.50           O11-S8-C3-C4=177.12           
           -------------------------------------------------
          |                Final Singlepoint                |
           -------------------------------------------------

          ...................................................
          :                      SETUP                      :
          :.................................................:
          :  # basis functions                  60          :
          :  # atomic orbitals                  58          :
          :  # shells                           28          :
          :  # electrons                        60          :
          :  max. iterations                   250          :
          :  Hamiltonian                  GFN2-xTB          :
          :  restarted?                      false          :
          :  GBSA solvation                  false          :
          :  PC potential                    false          :
          :  electronic temp.          300.0000000     K    :
          :  accuracy                    1.0000000          :
          :  -> integral cutoff          0.2500000E+02      :
          :  -> integral neglect         0.1000000E-07      :
          :  -> SCF convergence          0.1000000E-05 Eh   :
          :  -> wf. convergence          0.1000000E-03 e    :
          :  Broyden damping             0.4000000          :
          :  net charge                         -1          :
          :  unpaired electrons                  0          :
          ...................................................

 iter      E             dE          RMSdq      gap      omega  full diag
   1    -34.7505583 -0.347506E+02  0.174E-04    3.03       0.0  T
   2    -34.7505583 -0.523031E-10  0.133E-04    3.03     193.6  T
   3    -34.7505583 -0.328058E-10  0.105E-04    3.03     247.0  T

   *** convergence criteria satisfied after 3 iterations ***

         #    Occupation            Energy/Eh            Energy/eV
      -------------------------------------------------------------
         1        2.0000           -0.6121261             -16.6568
       ...           ...                  ...                  ...
        24        2.0000           -0.2812300              -7.6527
        25        2.0000           -0.2723149              -7.4101
        26        2.0000           -0.2706802              -7.3656
        27        2.0000           -0.2569943              -6.9932
        28        2.0000           -0.2514415              -6.8421
        29        2.0000           -0.2447962              -6.6612
        30        2.0000           -0.2416240              -6.5749 (HOMO)
        31                         -0.1303355              -3.5466 (LUMO)
        32                         -0.1285981              -3.4993
        33                         -0.0981279              -2.6702
        34                         -0.0043754              -0.1191
        35                          0.0755465               2.0557
       ...                                ...                  ...
        58                          1.3675039              37.2117
      -------------------------------------------------------------
                  HL-Gap            0.1112885 Eh            3.0283 eV
             Fermi-level           -0.1859798 Eh           -5.0608 eV

 SCC (total)                   0 d,  0 h,  0 min,  0.004 sec
 SCC setup                      ...        0 min,  0.000 sec (  1.349%)
 Dispersion                     ...        0 min,  0.000 sec (  0.962%)
 classical contributions        ...        0 min,  0.000 sec (  0.189%)
 integral evaluation            ...        0 min,  0.001 sec ( 18.436%)
 iterations                     ...        0 min,  0.002 sec ( 37.174%)
 molecular gradient             ...        0 min,  0.002 sec ( 40.028%)
 printout                       ...        0 min,  0.000 sec (  1.535%)

         :::::::::::::::::::::::::::::::::::::::::::::::::::::
         ::                     SUMMARY                     ::
         :::::::::::::::::::::::::::::::::::::::::::::::::::::
         :: total energy             -34.392388284844 Eh    ::
         :: gradient norm              0.000526545330 Eh/a0 ::
         :: HOMO-LUMO gap              3.028312946955 eV    ::
         ::.................................................::
         :: SCC energy               -34.750488562503 Eh    ::
         :: -> isotropic ES            0.198962588747 Eh    ::
         :: -> anisotropic ES         -0.027210025001 Eh    ::
         :: -> anisotropic XC         -0.007005021786 Eh    ::
         :: -> dispersion             -0.020483205887 Eh    ::
         :: repulsion energy           0.358100277659 Eh    ::
         :: add. restraining           0.000000000000 Eh    ::
         :: total charge              -1.000000000000 e     ::
         :::::::::::::::::::::::::::::::::::::::::::::::::::::

           -------------------------------------------------
          |                Property Printout                |
           -------------------------------------------------

    * Orbital Energies and Occupations

         #    Occupation            Energy/Eh            Energy/eV
      -------------------------------------------------------------
         1        2.0000           -0.6121261             -16.6568
       ...           ...                  ...                  ...
        18        2.0000           -0.3426432              -9.3238
        19        2.0000           -0.3324339              -9.0460
        20        2.0000           -0.3253547              -8.8534
        21        2.0000           -0.3227595              -8.7827
        22        2.0000           -0.3090788              -8.4105
        23        2.0000           -0.2894991              -7.8777
        24        2.0000           -0.2812300              -7.6527
        25        2.0000           -0.2723149              -7.4101
        26        2.0000           -0.2706802              -7.3656
        27        2.0000           -0.2569943              -6.9932
        28        2.0000           -0.2514415              -6.8421
        29        2.0000           -0.2447962              -6.6612
        30        2.0000           -0.2416240              -6.5749 (HOMO)
        31                         -0.1303355              -3.5466 (LUMO)
        32                         -0.1285981              -3.4993
        33                         -0.0981279              -2.6702
        34                         -0.0043754              -0.1191
        35                          0.0755465               2.0557
        36                          0.1156388               3.1467
        37                          0.1516856               4.1276
        38                          0.1590207               4.3272
        39                          0.1658520               4.5131
        40                          0.1802692               4.9054
        41                          0.1958608               5.3296
       ...                                ...                  ...
        58                          1.3675039              37.2117
      -------------------------------------------------------------
                  HL-Gap            0.1112885 Eh            3.0283 eV
             Fermi-level           -0.1859798 Eh           -5.0608 eV

     #   Z          covCN         q      C6AA      α(0)
     1  53 I        1.410    -0.134   381.891    33.734
     2   6 C        2.972     0.049    26.886     8.505
     3   6 C        3.092    -0.096    30.291     9.021
     4   6 C        3.003    -0.023    28.572     8.768
     5   6 C        2.918    -0.036    28.905     8.816
     6   6 C        2.923    -0.039    28.980     8.828
     7   6 C        3.087    -0.042    28.933     8.817
     8  16 S        3.685     1.185   101.507    16.957
     9   8 O        0.860    -0.676    28.052     7.101
    10   8 O        0.860    -0.676    28.060     7.102
    11   8 O        0.963    -0.633    26.861     6.952
    12   1 H        0.926     0.050     2.324     2.384
    13   1 H        0.925     0.019     2.749     2.593
    14   1 H        0.925     0.017     2.780     2.608
    15   1 H        0.926     0.035     2.520     2.482

 Mol. C6AA /au·bohr⁶  :       7003.469246
 Mol. C8AA /au·bohr⁸  :     272872.807309
 Mol. α(0) /au        :        134.669332


Wiberg/Mayer (AO) data.
largest (>0.10) Wiberg bond orders for each atom

 ---------------------------------------------------------------------------
     #   Z sym  total        # sym  WBO       # sym  WBO       # sym  WBO
 ---------------------------------------------------------------------------
     1  53 I    1.141 --     2 C    0.950
     2   6 C    3.964 --     3 C    1.443     7 C    1.406     1 I    0.950
     3   6 C    3.961 --     2 C    1.443     4 C    1.408     8 S    0.724
                             6 C    0.106
     4   6 C    3.990 --     5 C    1.452     3 C    1.408    12 H    0.965
                             7 C    0.112
     5   6 C    3.992 --     4 C    1.452     6 C    1.422    13 H    0.971
     6   6 C    3.991 --     7 C    1.449     5 C    1.422    14 H    0.970
                             3 C    0.106
     7   6 C    3.990 --     6 C    1.449     2 C    1.406    15 H    0.969
                             4 C    0.112
     8  16 S    5.175 --    10 O    1.476     9 O    1.475    11 O    1.473
                             3 C    0.724
     9   8 O    1.792 --     8 S    1.475    10 O    0.105    11 O    0.102
    10   8 O    1.791 --     8 S    1.476     9 O    0.105    11 O    0.101
    11   8 O    1.850 --     8 S    1.473     9 O    0.102    10 O    0.101
    12   1 H    0.998 --     4 C    0.965
    13   1 H    0.998 --     5 C    0.971
    14   1 H    0.999 --     6 C    0.970
    15   1 H    0.998 --     7 C    0.969
 ---------------------------------------------------------------------------

Topologies differ in total number of bonds
Writing topology from bond orders to xtbtopo.mol

molecular dipole:
                 x           y           z       tot (Debye)
 q only:       -0.576       5.641      -0.079
   full:        0.692       4.922      -0.072      12.634
molecular quadrupole (traceless):
                xx          xy          yy          xz          yz          zz
 q only:       15.119      10.390     -30.615      -0.112       0.723      15.496
  q+dip:       11.493      13.361     -26.713      -0.128       0.679      15.220
   full:       11.911      13.172     -28.690      -0.103       0.734      16.780

           -------------------------------------------------
          |                Geometry Summary                 |
           -------------------------------------------------

      molecular mass/u    :      283.0636525
   center of mass at/Å    :        0.1780867      -0.7902803       0.0224431
  moments of inertia/u·Å² :        0.5912355E+03   0.8952201E+03   0.1390358E+04
rotational constants/cm⁻¹ :        0.2851255E-01   0.1883071E-01   0.1212467E-01

 * 15 selected distances

     #   Z          #   Z                                           value/Å
     1  53 I        2   6 C                                       2.0979823 (max)
     2   6 C        3   6 C                                       1.3704342
     3   6 C        4   6 C                                       1.3819014
     4   6 C        5   6 C                                       1.3829927
     5   6 C        6   6 C                                       1.3877503
     2   6 C        7   6 C                                       1.3887640
     6   6 C        7   6 C                                       1.3832113
     3   6 C        8  16 S                                       1.8174521
     8  16 S        9   8 O                                       1.4567674
     8  16 S       10   8 O                                       1.4567546
     8  16 S       11   8 O                                       1.4540365
     4   6 C       12   1 H                                       1.0785033 (min)
     5   6 C       13   1 H                                       1.0815676
     6   6 C       14   1 H                                       1.0820240
     7   6 C       15   1 H                                       1.0811660

 * 5 distinct bonds (by element types)

   Z      Z             #   av. dist./Å        max./Å        min./Å
   1 H    6 C           4     1.0808152     1.0820240     1.0785033
   6 C    6 C           6     1.3825090     1.3887640     1.3704342
   6 C   16 S           1     1.8174521     1.8174521     1.8174521
   8 O   16 S           3     1.4558528     1.4567674     1.4540365
   6 C   53 I           1     2.0979823     2.0979823     2.0979823


optimized geometry written to: xtbopt.xyz


           -------------------------------------------------
          | TOTAL ENERGY              -34.392388284844 Eh   |
          | GRADIENT NORM               0.000526545330 Eh/α |
          | HOMO-LUMO GAP               3.028312946955 eV   |
           -------------------------------------------------

------------------------------------------------------------------------
 * finished run on 2024/12/20 at 01:52:39.248     
------------------------------------------------------------------------
 total:
 * wall-time:     0 d,  0 h,  0 min,  0.119 sec
 *  cpu-time:     0 d,  0 h,  0 min,  0.903 sec
 * ratio c/w:     7.569 speedup
 SCF:
 * wall-time:     0 d,  0 h,  0 min,  0.014 sec
 *  cpu-time:     0 d,  0 h,  0 min,  0.112 sec
 * ratio c/w:     7.925 speedup
 ANC optimizer:
 * wall-time:     0 d,  0 h,  0 min,  0.090 sec
 *  cpu-time:     0 d,  0 h,  0 min,  0.680 sec
 * ratio c/w:     7.580 speedup

