14
 energy: -47.993510035583 gnorm: 0.000806851935 xtb: 6.7.1 (edcfbbe)
F            1.04454010116252       -0.59780878718099       -0.22994417465028
C            2.23042662831144       -0.07647889027401        0.13995940782009
F            2.83702895785666        0.26044368795230       -1.01175023185131
F            1.92328015804394        1.07655023583663        0.77303276969567
C            2.99635925141965       -1.07432844453276        1.05773701792380
O            2.49129257511335       -2.19728739174603        1.12350205666245
C            4.06901216247194       -0.64062744894349        1.84441864275340
C            4.95049060268478        0.44566716306907        1.85350285153803
O            5.71258049386420        0.71916306068413        2.78411559269036
C            5.15976878345559        1.30891014193159        0.57471986388829
F            5.35175918729332        0.55580890822151       -0.53016900036646
F            4.18656498533850        2.18907148098525        0.28191937383504
F            6.27794694184405        2.05142521227605        0.68976528157298
H            4.27376917114007       -1.32892892827910        2.65711054848784
