21
 energy: -30.261445912834 gnorm: 0.113382638542 xtb: 6.7.1 (edcfbbe)
C            1.16821000000000       -0.44076000000000       -0.26735000000000
C            0.18984000000000        0.26745000000000       -1.21451000000000
C            0.84399000000000        0.73283000000000       -2.51648000000000
C            1.13137000000000       -0.42016000000000       -3.46896000000000
N            0.57663000000000       -1.57598000000000        0.42583000000000
C           -0.33504000000000       -1.34130000000000        1.37980000000000
O           -1.04068000000000       -2.32535000000000        1.74254000000000
O           -0.40168000000000       -0.15946000000000        1.82344000000000
C            0.50864000000000       -2.84122000000000       -0.27733000000000
H            1.56841000000000        0.26879000000000        0.46804000000000
H            2.04659000000000       -0.81363000000000       -0.80581000000000
H           -0.66771000000000       -0.37334000000000       -1.45304000000000
H           -0.21916000000000        1.14413000000000       -0.69658000000000
H            0.16600000000000        1.43304000000000       -3.01869000000000
H            1.76931000000000        1.28002000000000       -2.30342000000000
H            0.21519000000000       -0.97400000000000       -3.69895000000000
H            1.54047000000000       -0.03936000000000       -4.40992000000000
H            1.85720000000000       -1.12216000000000       -3.04882000000000
H           -0.38125000000000       -2.86233000000000       -0.91379000000000
H            1.39778000000000       -2.95954000000000       -0.90508000000000
H            0.49448000000000       -3.67725000000000        0.42860000000000
21
 energy: -30.268848549181 gnorm: 0.063710269046 xtb: 6.7.1 (edcfbbe)
C            1.17628372628791       -0.45546429353293       -0.27907817728104
C            0.19969771395633        0.27177480623221       -1.21731260349774
C            0.83962623036668        0.73702127387833       -2.52563994412362
C            1.13507547770700       -0.41441730158860       -3.47895670716986
N            0.58521091594995       -1.57502400968940        0.41788003230946
C           -0.36485375248936       -1.32865459071523        1.40077388108455
O           -1.04075617754731       -2.31212450120661        1.78120616082571
O           -0.40750595250958       -0.16332118131096        1.85787034046691
C            0.51855215901951       -2.82938065566856       -0.29504098987738
H            1.53590281365432        0.24869532635377        0.47945653764088
H            2.05050713699885       -0.82446294025609       -0.83164548125278
H           -0.63868802275987       -0.39072384224131       -1.44753233305306
H           -0.22047339948975        1.12931747139225       -0.68465748199569
H            0.16264677563456        1.43790137127112       -3.02581419911102
H            1.76545477122627        1.27667207586124       -2.30499246949281
H            0.22124556682367       -0.96617852123265       -3.69846898366599
H            1.54777554032416       -0.04427245888779       -4.41944354558956
H            1.84986817201745       -1.11197093464536       -3.04512337409610
H           -0.37317146145703       -2.88790186806688       -0.93126523495023
H            1.41317299391792       -2.95559452308136       -0.91452252671310
H            0.47301877236832       -3.64147070286522        0.43182709954248
21
 energy: -30.271126316267 gnorm: 0.029648400867 xtb: 6.7.1 (edcfbbe)
C            1.18400685007558       -0.46564585670089       -0.28062193807590
C            0.20234283414208        0.26342669213880       -1.22472396532277
C            0.83641148245913        0.74261639997758       -2.53050520091706
C            1.13429653499114       -0.40849666258427       -3.48604875367169
N            0.61796449643350       -1.58142857950525        0.42119798255922
C           -0.34656693821322       -1.32891834024384        1.46418127520238
O           -1.05627220164171       -2.29005964059571        1.78527603189788
O           -0.42384402654583       -0.15729884258635        1.85550542224119
C            0.52226980066817       -2.82024025615140       -0.30377892177886
H            1.51741985725185        0.23658689040495        0.48932046228202
H            2.05471299236690       -0.82226499623441       -0.84708434772442
H           -0.61891840414742       -0.41866109907643       -1.45374484839199
H           -0.22729719774322        1.10612048294182       -0.68413489114648
H            0.15893629834878        1.44387490110440       -3.02715527937175
H            1.76201265105847        1.27883827643587       -2.30428015118316
H            0.22189797816918       -0.95691065164954       -3.70370157866356
H            1.55264362547275       -0.04227380334319       -4.42252853645157
H            1.84136725057994       -1.10215250577438       -3.04172482949659
H           -0.36512310986364       -2.89417813921076       -0.95298899739207
H            1.41890762110715       -2.96161198506601       -0.91499210957914
H            0.44142160503042       -3.62090228428101        0.43205317498435
21
 energy: -30.272446837510 gnorm: 0.013438555975 xtb: 6.7.1 (edcfbbe)
C            1.18300548965911       -0.46502431347569       -0.27895217470120
C            0.19718190782224        0.25201355792579       -1.23661398531591
C            0.83688267145610        0.74546237155899       -2.53355513979437
C            1.13725735481344       -0.40406771583890       -3.49164007039374
N            0.62356893821816       -1.58268692168323        0.41507796799487
C           -0.37878048324271       -1.31572626700523        1.46147704885277
O           -1.02587542262978       -2.29517685532734        1.82865834149951
O           -0.38968269828988       -0.16352675996317        1.89334641391324
C            0.51637563283162       -2.81768068056166       -0.30611764493942
H            1.50334330630621        0.24185814783608        0.49122325914225
H            2.06069989768972       -0.81076202938364       -0.84056184369925
H           -0.61253195892201       -0.44195775277935       -1.47296944541503
H           -0.24374894189471        1.08714232245007       -0.69577528230273
H            0.15861986113860        1.44707280116557       -3.02813056342107
H            1.76056596978261        1.28336714560349       -2.30260963924480
H            0.22474434628865       -0.94957094458455       -3.71612659158722
H            1.56258181149123       -0.03599559967288       -4.42365603652044
H            1.84052687792441       -1.09761807096879       -3.04156630615192
H           -0.35232733380767       -2.88177905031547       -0.98693737799495
H            1.42576119887233       -2.97765762288821       -0.89462716818893
H            0.40042157449230       -3.61726576209190        0.42957623826839
21
 energy: -30.272920788484 gnorm: 0.005455607241 xtb: 6.7.1 (edcfbbe)
C            1.18126385896112       -0.46402559731494       -0.27756830517600
C            0.19128804316174        0.24431146929981       -1.23716202549771
C            0.83349133691841        0.74153758554292       -2.53164948147340
C            1.14134272211191       -0.40088531778149       -3.49550933121668
N            0.63083021101607       -1.58567221247034        0.42231921552498
C           -0.36558528331029       -1.31768808920720        1.47553563255505
O           -1.02172709265834       -2.29769789820072        1.83335888596751
O           -0.37937144321483       -0.15793938887967        1.89447595442466
C            0.51220801961315       -2.81718899521380       -0.30345870395808
H            1.50263605918702        0.25103531733062        0.48417759773480
H            2.06473678634483       -0.80342152850842       -0.83605977210231
H           -0.61210923472446       -0.45457741965488       -1.48105415507655
H           -0.26129314207228        1.07722930806322       -0.69899728664064
H            0.15556535530543        1.44471998604625       -3.02576424590790
H            1.75498585374142        1.28183913317870       -2.29708951974116
H            0.22909846279703       -0.94505018020714       -3.72951427718663
H            1.57189104823448       -0.02774805426359       -4.42449303451685
H            1.84261376543413       -1.09859539521375       -3.04607092289108
H           -0.34854332302251       -2.85462051961629       -0.99615241987796
H            1.42682218507843       -2.99304096956141       -0.88299274779478
H            0.37844581109750       -3.62210123336789        0.42318894285077
21
 energy: -30.273343093713 gnorm: 0.006989490387 xtb: 6.7.1 (edcfbbe)
C            1.17759801926136       -0.46371400850424       -0.27625602607259
C            0.17974096305523        0.22202030885235       -1.24336109892799
C            0.82680682382659        0.73615408308468       -2.52938409675652
C            1.14904357374720       -0.39344263352641       -3.50303150643673
N            0.64741972216115       -1.58955475068778        0.43655096581665
C           -0.34306292815762       -1.31777799718057        1.50342754011294
O           -1.00350914200418       -2.29886710462811        1.85366300026700
O           -0.35269036680376       -0.15147883228428        1.90696067423879
C            0.50355228242042       -2.81048185018425       -0.30178878397035
H            1.49451387365675        0.26572466178707        0.47413032302687
H            2.06992720603810       -0.79298315829389       -0.83005233863760
H           -0.60790967318520       -0.49075035642627       -1.50036190738323
H           -0.29734558535217        1.04638552540060       -0.70915604357891
H            0.14802037308274        1.44092688542726       -3.02183519735032
H            1.74321769219029        1.28134483070108       -2.28439797286214
H            0.23976365758884       -0.93524647783386       -3.76045259983050
H            1.59321397131641       -0.00755741831586       -4.42193221019995
H            1.84462158712605       -1.09875237308474       -3.05386888431137
H           -0.33542751697944       -2.79948298014750       -1.02576280979902
H            1.43205972709500       -3.02262029510496       -0.85464436634897
H            0.31903573991618       -3.61942605905038        0.41107333900406
21
 energy: -30.273598127226 gnorm: 0.009274763335 xtb: 6.7.1 (edcfbbe)
C            1.17360589912371       -0.46400679792293       -0.27737923997951
C            0.16950684657439        0.20172115155673       -1.25002227513687
C            0.82024609573149        0.73181200337802       -2.52804800241189
C            1.15758576351105       -0.38572425015145       -3.51017898366100
N            0.65906010905679       -1.59106648435689        0.44660021929161
C           -0.32400690087184       -1.31660994826017        1.52469666239973
O           -0.98148677428081       -2.29805629042331        1.87839995732404
O           -0.32694157743513       -0.14913570979765        1.92316097768656
C            0.49523855802228       -2.80280006136666       -0.30159631399338
H            1.48483881710939        0.27566814466722        0.46574855060804
H            2.07050921429525       -0.78824577338283       -0.82830995761695
H           -0.60239485798426       -0.52467492810128       -1.51788884438968
H           -0.32912381001419        1.01590797960352       -0.71809148468846
H            0.14005499797550        1.43672806284236       -3.01881417642165
H            1.73130085234208        1.28129763985882       -2.27203189563642
H            0.25246701299232       -0.92532919960192       -3.78936059489693
H            1.61560167239025        0.01160547938775       -4.41820310989727
H            1.84677830284123       -1.09686203945956       -3.05946145978014
H           -0.32186923142223       -2.75805502398431       -1.05126345128091
H            1.43280159524694       -3.04523303531112       -0.83020675597743
H            0.26481741479571       -3.60852091917442        0.40177017845865
21
 energy: -30.273948344801 gnorm: 0.008564729744 xtb: 6.7.1 (edcfbbe)
C            1.16699992564707       -0.46527246880061       -0.28224996983428
C            0.15670269681818        0.17597134146522       -1.26069255551649
C            0.81140844661181        0.72873756209667       -2.52740333800318
C            1.17022946377084       -0.37360279181405       -3.51883192456218
N            0.66833531436318       -1.59153882742112        0.45506403784007
C           -0.29803368803724       -1.31505467040575        1.54833236254407
O           -0.94709662821735       -2.29589154416316        1.91728052686593
O           -0.29225908403859       -0.14883598364603        1.94680899550182
C            0.48349589383102       -2.79396425926370       -0.30106689181895
H            1.47033171699019        0.28476722388005        0.45387515872529
H            2.06648881508844       -0.78745622721928       -0.83050185820666
H           -0.59340887452740       -0.56783232069605       -1.54235060374214
H           -0.36884330529594        0.97424327975884       -0.73059854893196
H            0.12847997008608        1.43210921249082       -3.01615583803896
H            1.71451945636474        1.28391923782978       -2.25564965975291
H            0.27223542602970       -0.90991569753560       -3.82762043385348
H            1.64806604664867        0.03842958597313       -4.41033732089327
H            1.84982568141411       -1.09157033795683       -3.06447588029385
H           -0.30258843733223       -2.71696035584896       -1.07959610265715
H            1.42797433040878       -3.07391293617153       -0.79828903547513
H            0.19572683337579       -3.58594902255194        0.39397888010360
21
 energy: -30.274291593489 gnorm: 0.006162595948 xtb: 6.7.1 (edcfbbe)
C            1.15995248692369       -0.46851627573605       -0.29156024584712
C            0.14553863551064        0.15489524867638       -1.27311406255838
C            0.80210901690943        0.73086760482617       -2.52859556122628
C            1.18398620556999       -0.35728759008884       -3.52715853030624
N            0.66882990210915       -1.59143040683585        0.45554553620198
C           -0.27189556890210       -1.31356284882914        1.56562811834774
O           -0.90885998214706       -2.29247886068614        1.96085145364242
O           -0.25816102627681       -0.14939442909112        1.96809749881105
C            0.47111721188534       -2.79239508385453       -0.29702006404249
H            1.45624291568748        0.28792924801942        0.44023232361230
H            2.05883269004896       -0.79274528088578       -0.83857946024640
H           -0.58306111861621       -0.60389394052885       -1.56845112166418
H           -0.40365740935248        0.93518583387010       -0.74266313008641
H            0.11470394857082        1.43020839748214       -3.01558156180785
H            1.69592507264334        1.29291277633508       -2.24179310258123
H            0.29476243418711       -0.89060116650496       -3.86320816353226
H            1.68090827123844        0.06753592404972       -4.40125524108565
H            1.85410826984115       -1.07989015107461       -3.06741492816474
H           -0.28193161864881       -2.69805580786985       -1.10131968056557
H            1.41986647421802       -3.10873805749199       -0.76081971612548
H            0.12927318859974       -3.56012513378140        0.39769963922505
21
 energy: -30.274582478821 gnorm: 0.006746253499 xtb: 6.7.1 (edcfbbe)
C            1.15308037478100       -0.47504822065317       -0.30456623485218
C            0.13496657234311        0.13690765173338       -1.28804108681708
C            0.79157496225721        0.73878481609211       -2.53152076003025
C            1.19846178400415       -0.33456514933071       -3.53696281521736
N            0.66280050300312       -1.59223934071725        0.45060305957055
C           -0.24373099176296       -1.31153472806889        1.58153644129087
O           -0.86732363620085       -2.28721156492278        2.00841330281457
O           -0.22263355229904       -0.14707934838883        1.98454497126581
C            0.45727935024370       -2.80054299620498       -0.28668277917445
H            1.44456108392825        0.28618259690722        0.42320290592613
H            2.05017417393788       -0.80297097450311       -0.85133142980386
H           -0.57194135788918       -0.63537400347643       -1.59901642689148
H           -0.43645663984055        0.89727916114452       -0.75443075345880
H            0.09741872652865        1.43203495282775       -3.01654250848532
H            1.67412590319413        1.31037042658023       -2.23042790647546
H            0.31909854876923       -0.86523211349892       -3.89951935058325
H            1.71397417041468        0.10305127308305       -4.39267969503657
H            1.85957505950466       -1.06060095379121       -3.07088297370296
H           -0.25667491774636       -2.69624010854583       -1.12469894743419
H            1.41410443393380       -3.15957632293155       -0.70573909625829
H            0.05615544889518       -3.53597505333477        0.41426208335394
21
 energy: -30.274843006148 gnorm: 0.009161811462 xtb: 6.7.1 (edcfbbe)
C            1.14343059523718       -0.48635315482103       -0.32225736332594
C            0.12542883074959        0.12509790275467       -1.30638229906602
C            0.78220196022240        0.75334350502954       -2.53643676710512
C            1.21486818008092       -0.30472716548040       -3.54804144177157
N            0.64368023355743       -1.59335422560429        0.43909433850888
C           -0.21591407381616       -1.30924223646375        1.59486905174468
O           -0.82460211544707       -2.27992991669609        2.05804850747682
O           -0.18950765168035       -0.14208754746048        1.99396830501873
C            0.44142155736589       -2.82033768427127       -0.26755238353237
H            1.43631451829432        0.27603496436806        0.40237361870381
H            2.03601364236776       -0.82297184131244       -0.86985027929617
H           -0.56346540381075       -0.65449993292707       -1.63428924929573
H           -0.46112895489044        0.86565840755187       -0.76584833190367
H            0.08026917186173        1.43913195731691       -3.02003129906783
H            1.65212403525910        1.33594808234363       -2.22164421602887
H            0.34635490483858       -0.83321579419475       -3.93511682015091
H            1.74698934955411        0.14566653930853       -4.38495397085474
H            1.86821378882976       -1.03305524836355       -3.07599086143406
H           -0.23635668308522       -2.73280543120578       -1.12986638526249
H            1.39710663479646       -3.21439939282396       -0.64448102431670
H            0.00514747971453       -3.51348178704859        0.44390887095974
21
 energy: -30.274966860324 gnorm: 0.013068554960 xtb: 6.7.1 (edcfbbe)
C            1.13440080078911       -0.50160951265740       -0.34153702377976
C            0.11170734194323        0.10287050749333       -1.32850353635728
C            0.76825448905629        0.76796002375791       -2.54056328111505
C            1.23333249839837       -0.26608253297388       -3.56541252204804
N            0.62937577391892       -1.59659240552285        0.43183743456930
C           -0.18058026143798       -1.30413979967365        1.61895877039573
O           -0.77254435914882       -2.26997289521335        2.11610618098142
O           -0.14383091861132       -0.13142301164677        2.00496933410036
C            0.42384736333969       -2.84170975251732       -0.24314383479647
H            1.42877991925059        0.26838860409311        0.37441705301752
H            2.02469006633222       -0.84495352247901       -0.88902374525482
H           -0.55212866728919       -0.69049079829114       -1.67992989891769
H           -0.50019001108636        0.81857938394153       -0.77980281778668
H            0.05668481198280        1.44692445728574       -3.02007453540444
H            1.62236161164065        1.36452602131534       -2.20751218380138
H            0.37716626318178       -0.79119724108286       -3.98679935320293
H            1.78628179378483        0.20482468753686       -4.37860380275137
H            1.87731011366087       -1.00023329346329       -3.08950227343315
H           -0.19902498554337       -2.75111005596163       -1.15739933298502
H            1.39380196041581       -3.29388852477887       -0.54695090662656
H           -0.09110560457841       -3.49025033916208        0.47799027519687
21
 energy: -30.275224276305 gnorm: 0.005793671601 xtb: 6.7.1 (edcfbbe)
C            1.13455189094073       -0.50585811039156       -0.34119990429844
C            0.11356467172283        0.10514971520199       -1.32848833075813
C            0.77005625195929        0.76846605097697       -2.54029170316367
C            1.23273520486911       -0.26345176472755       -3.56688161740495
N            0.62494891392246       -1.59775390303334        0.43312695399500
C           -0.18714023292091       -1.30242647006378        1.61802014900296
O           -0.78132367565163       -2.26814154862002        2.10513597509977
O           -0.14951588724743       -0.12762514208151        1.99716179692076
C            0.42576473864331       -2.84640239041199       -0.23694705584946
H            1.43538149479397        0.26484826450832        0.37249213697610
H            2.02428610007947       -0.85154962038919       -0.88892533548079
H           -0.55651768177326       -0.68274413957403       -1.67887832515827
H           -0.49195049565539        0.82541039667016       -0.77883511167606
H            0.05916236605347        1.44893444890304       -3.01931594414344
H            1.62471683680166        1.36419617561707       -2.20851266520212
H            0.37601137853922       -0.79044499083693       -3.98275342616316
H            1.77790828143652        0.20903796602862       -4.38324069143618
H            1.88199205652640       -0.99648650364846       -3.09664748127997
H           -0.20840888046037       -2.76838363308129       -1.13900292731543
H            1.39039142893983       -3.28230512233100       -0.54782663808094
H           -0.06802476151957       -3.50204967871581        0.48133014541700
21
 energy: -30.275402478145 gnorm: 0.004640559211 xtb: 6.7.1 (edcfbbe)
C            1.12668669357632       -0.52059346920989       -0.35315371157602
C            0.10733557803246        0.09449544505214       -1.34115946415934
C            0.76598270767204        0.77573948034013       -2.54128842314105
C            1.24267373619226       -0.23857926923331       -3.57877421463547
N            0.60871600178429       -1.60026444488745        0.43097117861354
C           -0.17976908198707       -1.29574704378206        1.62972949051798
O           -0.76197045277843       -2.26150670813318        2.13243011757208
O           -0.13334275964893       -0.11607197617030        1.99318848358882
C            0.41944967933557       -2.86163271647310       -0.21710729054498
H            1.43892769087686        0.25446161556798        0.35199290262540
H            2.01290880529786       -0.87581542089695       -0.90135330891144
H           -0.55848011182304       -0.69195038656311       -1.70253086809808
H           -0.50186976741612        0.80743496986823       -0.78541163641010
H            0.05230079133571        1.45640277290539       -3.01668207867610
H            1.61359689766455        1.37550362777773       -2.19822108871734
H            0.39205421492670       -0.76635259826426       -4.00749151352936
H            1.78877285727432        0.24970009378275       -4.38587033559391
H            1.89511386863294       -0.97368222928041       -3.11572241369862
H           -0.19997700858481       -2.80070002152387       -1.12895949898777
H            1.38497746121371       -3.30909053575886       -0.49837738541699
H           -0.08549780157751       -3.50133118511794        0.50331105917939
21
 energy: -30.275565623670 gnorm: 0.003721288763 xtb: 6.7.1 (edcfbbe)
C            1.11705786948455       -0.54090121222649       -0.37039179604021
C            0.09964678461312        0.07774569759848       -1.35780588622230
C            0.75982328396437        0.78498472919036       -2.54180052334372
C            1.25541906363573       -0.20376167998148       -3.59470523977658
N            0.58690913888877       -1.60267313808906        0.42791365733599
C           -0.16957035545755       -1.28486964920146        1.64370621713592
O           -0.73868246919108       -2.24766106540133        2.16598049373984
O           -0.11052428660680       -0.10143303823876        1.99039426838916
C            0.41244511264546       -2.88075051228433       -0.19029548619843
H            1.44527179183764        0.23996321605181        0.32234520501328
H            1.99557107007092       -0.91357868209693       -0.92030892797508
H           -0.55869719239066       -0.70840175072460       -1.73447633668416
H           -0.51717657478277        0.77893792986560       -0.79411430468808
H            0.04190478593051        1.46619060284813       -3.01076694583543
H            1.59796743271076        1.38851991112892       -2.18227886186487
H            0.41422501299101       -0.73406236698110       -4.03765211013610
H            1.79812519979613        0.30679256618324       -4.38996627439202
H            1.91572104381205       -0.93966416068093       -3.14410763847820
H           -0.18138670661691       -2.84119507332733       -1.12085442632123
H            1.38206797578533       -3.34686294486343       -0.42721021579092
H           -0.11752798112097       -3.49689937876974        0.53591513213389
21
 energy: -30.275686781360 gnorm: 0.004554466843 xtb: 6.7.1 (edcfbbe)
C            1.10689664916165       -0.56239462632833       -0.38941412023208
C            0.09060734165409        0.05687458931717       -1.37474218387107
C            0.75309055448829        0.79253275717144       -2.54083529087937
C            1.26900252878440       -0.16769832685633       -3.61075960442381
N            0.56471582213725       -1.60488482776128        0.42565048940634
C           -0.15872539226980       -1.27141541992418        1.65700355845239
O           -0.71628954256641       -2.22855995344652        2.20463941152827
O           -0.08510076959264       -0.08518113340893        1.98848489995908
C            0.40442978398437       -2.89792032870574       -0.16317342533718
H            1.45299925954205        0.22425697318744        0.28911435472995
H            1.97479279233779       -0.95691219893039       -0.94183545685659
H           -0.55774331778105       -0.73151536901637       -1.76816611709825
H           -0.53770202154231        0.74418031666552       -0.80372949776039
H            0.03178769681613        1.47520536724183       -3.00249810116861
H            1.58157030717958        1.39798453704248       -2.16127015246722
H            0.43848995853787       -0.70315323942453       -4.06969608965925
H            1.80759780302138        0.36915501287442       -4.39330409865011
H            1.94092529742505       -0.90151680393038       -3.17288710888337
H           -0.16332794414351       -2.87862851967820       -1.11079196146079
H            1.37771638781263       -3.37713617899680       -0.35859114948176
H           -0.14714319498721       -3.49285262709280        0.56632164415466
21
 energy: -30.275786417588 gnorm: 0.004451449879 xtb: 6.7.1 (edcfbbe)
C            1.10077534524254       -0.58192260191263       -0.40506938134586
C            0.08575558378282        0.03875081660474       -1.38744771793829
C            0.74713095285543        0.79800186669172       -2.53913989393676
C            1.27892824716769       -0.13744509606057       -3.62220661917661
N            0.54733533222727       -1.60705592700842        0.42464687410799
C           -0.15301417728565       -1.25793300129701        1.66220489175983
O           -0.70884432920589       -2.20570043250361        2.22497653577641
O           -0.06679361012231       -0.07043564210572        1.98285258765136
C            0.39978230419957       -2.91189801376650       -0.13934858162133
H            1.46393357322753        0.20833635456762        0.26071597819042
H            1.95695367384105       -0.99815058821342       -0.96021785347009
H           -0.55580641357173       -0.74921357128617       -1.79263296535199
H           -0.55010324662508        0.71457985183249       -0.81111917730501
H            0.02203177105332        1.48180656530270       -2.99298259365001
H            1.56790771466861        1.40336529139032       -2.14419785346368
H            0.45842290756913       -0.68221143022093       -4.08530730779045
H            1.80318069366658        0.42063933149360       -4.39847857180371
H            1.96859699644117       -0.86332097810443       -3.19804960393756
H           -0.15045067501167       -2.91151622899827       -1.09579330443414
H            1.37643851284409       -3.39406457976264       -0.30635660389519
H           -0.16357115696492       -3.49419198664340        0.59247116163558
21
 energy: -30.275877949535 gnorm: 0.004462204116 xtb: 6.7.1 (edcfbbe)
C            1.09501853925959       -0.60434941201960       -0.42321059102259
C            0.07952921968740        0.01653477184506       -1.40199923169023
C            0.73949557107681        0.80403783859002       -2.53605351267491
C            1.29065120910614       -0.10288772615409       -3.63353324691295
N            0.53099685362923       -1.61076430032467        0.42299902009945
C           -0.14366230397278       -1.24143599135583        1.66647025327709
O           -0.69918088526037       -2.17601821220221        2.25339799115261
O           -0.04364591220386       -0.05011610043314        1.97104257210684
C            0.39175620492945       -2.92770993946056       -0.11287495136658
H            1.47506363542507        0.18897822000459        0.22900702135062
H            1.93847015534321       -1.04227663897253       -0.98050297931615