21
 energy: -30.277684079219 gnorm: 0.000795782635 xtb: 6.7.1 (edcfbbe)
C            0.88738307209642       -0.77309772191839       -0.63092205015923
C           -0.07771625383829       -0.39674897453304       -1.76619882963479
C            0.44258740296457        0.73263684847251       -2.65412009960190
C            1.68077570622357        0.34112858276751       -3.45320058784214
N            0.25632000836525       -1.55209522786877        0.38909976477830
C            0.42725667640338       -1.14742202794363        1.79260541899918
O            0.06478142007317       -1.98482649480149        2.62228199273521
O            0.88407943268986       -0.01292004936685        1.95406694898639
C            0.01680261655435       -2.93166810575188        0.10133644772496
H            1.23560066394636        0.13598504580763       -0.12797559458602
H            1.76067294073274       -1.30806386786911       -1.05262200356705
H           -0.28504050626640       -1.27690229857925       -2.38181047389475
H           -1.01649277590721       -0.08286886294256       -1.30562637392597
H           -0.34671070026746        1.03418664075523       -3.35131488306562
H            0.67809008305271        1.59443203481152       -2.02568220534578
H            1.47545621841665       -0.53233767713444       -4.07060118312351
H            1.99250509206070        1.15705815109623       -4.10460356413410
H            2.50265747495277        0.10259355000665       -2.78434246309065
H           -0.82470245840618       -3.06206374729027       -0.59517936855908
H            0.90215637503062       -3.42743799465641       -0.33707847889361
H           -0.22787248887712       -3.40914780306064        1.05140758620235
