15
 energy: -46.693926572491 gnorm: 0.068127919566 xtb: 6.7.1 (edcfbbe)
F            1.17504000000000        0.35203000000000        0.49384000000000
C            2.41575000000000        0.00076000000000        0.06769000000000
C            2.63970000000000       -1.50114000000000        0.22007000000000
O            2.21058000000000       -2.30071000000000       -0.86825000000000
S            0.61088000000000       -2.52786000000000       -1.07658000000000
O            0.13097000000000       -2.87501000000000        0.25425000000000
O            0.17788000000000       -1.22604000000000       -1.57020000000000
O            0.55414000000000       -3.60285000000000       -2.05724000000000
C            2.69652000000000        0.53200000000000       -1.33201000000000
F            2.63457000000000        1.89817000000000       -1.33970000000000
F            3.97687000000000        0.23077000000000       -1.70273000000000
F            3.27244000000000        0.61822000000000        0.95184000000000
H            3.71773000000000       -1.67709000000000        0.31424000000000
H            2.20220000000000       -1.85761000000000        1.15925000000000
H            2.02125000000000        0.17048000000000       -2.10539000000000
15
 energy: -46.700335521161 gnorm: 0.040330300882 xtb: 6.7.1 (edcfbbe)
F            1.17671798266609        0.34625284090016        0.48352125871165
C            2.41080945964348       -0.02436295368016        0.07263796621661
C            2.65928489138329       -1.52567737246305        0.21793779334416
O            2.26320205240352       -2.29286228023534       -0.87293498770243
S            0.64037878942008       -2.48572349863497       -1.07148346654196
O            0.15403115482141       -2.82163333205046        0.25663670141741
O            0.22126328352386       -1.18371605624720       -1.57175577532673
O            0.56566414826981       -3.55915915611499       -2.04379327135333
C            2.67270411874929        0.51045397220722       -1.33345101138189
F            2.61190590056670        1.87231080912531       -1.35010869532361
F            3.94536536211640        0.20710552521672       -1.70696019412841
F            3.25982026811422        0.61993025717762        0.94579086845115
H            3.74236324619624       -1.67593734168532        0.32595598828465
H            2.14605765935312       -1.86744656176546        1.12953620159579
H            1.96695168277245        0.11458514824981       -2.07244937626303
15
 energy: -46.704475660552 gnorm: 0.017710259237 xtb: 6.7.1 (edcfbbe)
F            1.18006623792066        0.32731779433602        0.48970874313990
C            2.40576242961810       -0.04818543068920        0.08097871745622
C            2.67318441314545       -1.55380501654573        0.21579446783105
O            2.34148212030206       -2.28281648070342       -0.88981687620386
S            0.68306809107233       -2.42570730016092       -1.07045622969065
O            0.19647525699466       -2.73265391000168        0.25923831024216
O            0.29029030188538       -1.12464903260561       -1.58615662450750
O            0.57496526953768       -3.50273368318620       -2.02356076540198
C            2.64002797104149        0.47800735167690       -1.34069753820745
F            2.57763624862153        1.83241879205271       -1.37279403833668
F            3.89810435487294        0.17255614340797       -1.73791431651623
F            3.25041936662790        0.61834010610816        0.94483258314208
H            3.75591730859883       -1.66765805374057        0.37531529827096
H            2.08218830973671       -1.89642810115545        1.08832218041860
H            1.88693232002422        0.04011682120677       -2.02371391163653
15
 energy: -46.705468359964 gnorm: 0.014324380341 xtb: 6.7.1 (edcfbbe)
F            1.18673888421002        0.31949936206530        0.51707187098470
C            2.40727339316767       -0.05213898351602        0.09256120290152
C            2.67863916440503       -1.56023490137258        0.22472960065392
O            2.38086676764845       -2.27338575340985       -0.90102688471181
S            0.70632904567680       -2.39313030739796       -1.08190721522522
O            0.21772662041166       -2.67464896270046        0.25038466885664
O            0.33170096042166       -1.09454411494332       -1.61374115656011
O            0.58033921023201       -3.47786479932057       -2.01995599693166
C            2.61457242444687        0.45442074859728       -1.34329385215811
F            2.55263434235721        1.80691150109031       -1.39547748931862
F            3.86037456832570        0.14080113363098       -1.77101112362914
F            3.26149139526312        0.62090697011538        0.94318817485114
H            3.75643385246992       -1.66642264964320        0.42297745813912
H            2.06596736557400       -1.91527622494309        1.07457867149232
H            1.83543200538979       -0.00077301825255       -1.98999792934455
15
 energy: -46.705935418959 gnorm: 0.007510026000 xtb: 6.7.1 (edcfbbe)
F            1.19881705353882        0.32307227226136        0.54325061160176
C            2.41607867965032       -0.04510612750135        0.10104282609699
C            2.67748246678857       -1.55479649894636        0.23281640000751
O            2.39257978445362       -2.25874292050299       -0.90946778880718
S            0.71233762740490       -2.38687168157454       -1.09400735991042
O            0.22754670198082       -2.65339624698887        0.24110889930862
O            0.32929304329510       -1.09805503975549       -1.63966380467739
O            0.58671333734635       -3.47997424770140       -2.02032493086579
C            2.60458430535355        0.44663795345614       -1.34205972517163
F            2.54745727893072        1.80000933027530       -1.40755788834122
F            3.84082634090910        0.12106210551932       -1.79310499125955
F            3.28215025579034        0.62501861717206        0.94159575781673
H            3.74786456640511       -1.67082612861527        0.45564401589164
H            2.06017076974264       -1.92363379067853        1.06658273733450
H            1.81261778840991       -0.01027759641976       -1.96677475902442
15
 energy: -46.706164841860 gnorm: 0.004938949661 xtb: 6.7.1 (edcfbbe)
F            1.21556978138054        0.33101841782329        0.56431081053474
C            2.43011601986531       -0.03751323749505        0.10752178959155
C            2.67690034061536       -1.54823866003588        0.23907935191731
O            2.39585012269438       -2.24356470325960       -0.91420563458617
S            0.71363909992420       -2.38992363805606       -1.10438862265020
O            0.23170351551768       -2.64293914762355        0.23348805344815
O            0.31610499867938       -1.11253590116745       -1.66535930105761
O            0.59535599003179       -3.49293780261133       -2.01930107341122
C            2.59841671709447        0.44545219690891       -1.33900568683836
F            2.54748292027545        1.80030595879734       -1.41149828044897
F            3.82552243438853        0.10953201819512       -1.80960854638106
F            3.30746560981026        0.62945332155038        0.93753743379025
H            3.73962073310575       -1.68303043880017        0.48050338168305
H            2.04646380862303       -1.92363188717420        1.05739472052320
H            1.79630790799375       -0.00732649705215       -1.94738839611448
15
 energy: -46.706272967957 gnorm: 0.004550586858 xtb: 6.7.1 (edcfbbe)
F            1.23287217958103        0.34099675065928        0.58124518661037
C            2.44357391212375       -0.03357012821985        0.11304149997451
C            2.67670896822624       -1.54542062165858        0.24470837293153
O            2.39858096872856       -2.23312793464419       -0.91454099730149
S            0.71629162450472       -2.39268156402009       -1.11264040778272
O            0.23106441762722       -2.63340060413882        0.22632593935929
O            0.31209078333533       -1.12311154955521       -1.68806969396122
O            0.60633497769757       -3.50454229367902       -2.01812822328434
C            2.59132873609951        0.44441035222795       -1.33613558945210
F            2.54600536138304        1.80026670206876       -1.41113313328948
F            3.80961838201622        0.10186771493164       -1.82452659121189
F            3.33180480134481        0.63224978965695        0.93075710505237
H            3.73387721460797       -1.69651947263201        0.49794482692721
H            2.02912730360031       -1.91836861577662        1.05102089405936
H            1.77724036912358       -0.00492852522060       -1.93078918863121
15
 energy: -46.706351075284 gnorm: 0.003674644068 xtb: 6.7.1 (edcfbbe)
F            1.25353371875333        0.35720481037376        0.59829195348334
C            2.45800449748984       -0.02995755480633        0.11796170642763
C            2.67364086164386       -1.54399509830947        0.25032510159228
O            2.39851200363024       -2.22424417891115       -0.91274863557760
S            0.71884468375267       -2.39855932067965       -1.12028150237754
O            0.22667811910657       -2.62950529669773        0.21819241506145
O            0.30880218958934       -1.13588331119058       -1.70901574389137
O            0.62127744444114       -3.51837033938909       -2.01783780194521
C            2.58500724489050        0.44507514423904       -1.33321826749749
F            2.54627988326060        1.80181256965678       -1.40677188088327
F            3.79317567665177        0.09668219353152       -1.84017036801487
F            3.35980554098628        0.63257376386125        0.92102352396380
H            3.72596100051437       -1.71095980357880        0.51215921329367
H            2.00900362364507       -1.90837440092247        1.04672253490925
H            1.75799351164426        0.00062082282249       -1.91555224854387
15
 energy: -46.706393162377 gnorm: 0.003041296054 xtb: 6.7.1 (edcfbbe)
F            1.27061066063067        0.37345865394818        0.61211063798657
C            2.46807075332516       -0.02716118088665        0.12125629954390
C            2.66882095291869       -1.54385226411276        0.25464366624204
O            2.39808213248166       -2.21870811986658       -0.91115423878577
S            0.72188237162867       -2.40325042069948       -1.12540864315429
O            0.22288815065292       -2.63123226355155        0.21114662100130
O            0.30849801879939       -1.14395262898219       -1.71994939108477
O            0.63477102934546       -3.52635760777547       -2.01982523270007
C            2.58014451100888        0.44547968332459       -1.33192939736210
F            2.54602564518628        1.80268729002889       -1.40366376029174
F            3.78003658260177        0.09333273694957       -1.85304056712017
F            3.38261266522447        0.63044211357837        0.91197716729997
H            3.71803749294200       -1.72047323425201        0.52398495075388
H            1.99198941884943       -1.90022874034278        1.04455273884886
H            1.74404961440438        0.00393598263945       -1.90562085117739
15
 energy: -46.706427671462 gnorm: 0.002812284344 xtb: 6.7.1 (edcfbbe)
F            1.28913738003491        0.39287712204657        0.62706891415389
C            2.47734681030926       -0.02350247009560        0.12396893551645
C            2.66172187441202       -1.54342927345559        0.25865992648262
O            2.39692339533881       -2.21422658534422       -0.90958942696651
S            0.72542261324046       -2.40858887402371       -1.12996241437747
O            0.21894266535577       -2.63844017953345        0.20345193034736
O            0.30834651151686       -1.15106583398639       -1.72568632104948
O            0.64946546878126       -3.53236362865330       -2.02416069298022
C            2.57578479403283        0.44623425107337       -1.33141355465367
F            2.54488961761362        1.80377701014969       -1.40194670667909
F            3.76750446882304        0.09106856862397       -1.86585810054408
F            3.40710469401798        0.62632946727738        0.90165500054335
H            3.70749546248279       -1.72854920731243        0.53774077224623
H            1.97396039814825       -1.89243150507889        1.04221330425805
H            1.73247384589197        0.00643113831220       -1.89706156629721
15
 energy: -46.706456686252 gnorm: 0.003035419449 xtb: 6.7.1 (edcfbbe)
F            1.30905188819237        0.41344048297169        0.64315280670240
C            2.48623752537068       -0.01902353188090        0.12626589129132
C            2.65357989564610       -1.54204630016751        0.26262999029547
O            2.39621209784319       -2.21034287635014       -0.90828155369563
S            0.72956777706462       -2.41369996403706       -1.13439042098765
O            0.21605897539053       -2.64970887255762        0.19525646540037
O            0.30787185870329       -1.15649905379598       -1.72701279444807
O            0.66432667011873       -3.53581982895038       -2.03102665583042
C            2.57155358362789        0.44682621779970       -1.33160357935866
F            2.54189821673760        1.80457271210413       -1.40295143189435
F            3.75584562164190        0.08926840567601       -1.87846569824303
F            3.43299922485024        0.62113189107470        0.89059691175884
H            3.69483268434102       -1.73565736343320        0.55484482341392
H            1.95432136333737       -1.88526601417425        1.03869320826472
H            1.72216261713428        0.00694409572039       -1.88862796266901
15
 energy: -46.706487064194 gnorm: 0.003275858411 xtb: 6.7.1 (edcfbbe)
F            1.33239190123608        0.43663431122961        0.66100019987802
C            2.49589027405800       -0.01349486802660        0.12812738700388
C            2.64403466445306       -1.53919769046966        0.26706138571403
O            2.39560215808287       -2.20687423410390       -0.90640609127556
S            0.73413892441006       -2.41952248782551       -1.13910129363141
O            0.21386374203672       -2.66725327016729        0.18596473076521
O            0.30586721625833       -1.16098773535211       -1.72361878331381
O            0.68023454077849       -3.53715007737159       -2.04171586680886
C            2.56730334817628        0.44746015209549       -1.33232299456580
F            2.53667201046433        1.80526281314717       -1.40663875533974
F            3.74494787801643        0.08828623147649       -1.89058428423942
F            3.46234149900891        0.61485562379060        0.87762351164444
H            3.67875706247347       -1.74302231249596        0.57578022364475
H            1.93167051748627       -1.87674566096480        1.03368837557150
H            1.71280426306054        0.00586920503764       -1.87977774504702
15
 energy: -46.706524487507 gnorm: 0.003705457464 xtb: 6.7.1 (edcfbbe)
F            1.36269183426777        0.46535571478067        0.68267686149778
C            2.50815766591493       -0.00638878104832        0.12990724994150
C            2.63216061194824       -1.53435056207807        0.27315027777380
O            2.39594688617985       -2.20272126242091       -0.90356663865195
S            0.73986698463247       -2.42660578375661       -1.14496682402527
O            0.21361973442041       -2.69458390966912        0.17428407915617
O            0.30128412882143       -1.16452914125755       -1.71399851176869
O            0.69923984398226       -3.53514164124923       -2.05922751331450
C            2.56227501368834        0.44761495561492       -1.33369386372870
F            2.52856798608153        1.80527256586270       -1.41382206207738
F            3.73336464020913        0.08707911929022       -1.90415227340306
F            3.49901074119500        0.60746090322981        0.86067571385832
H            3.65711941107872       -1.75221921476660        0.60434172351965
H            1.90126475462192       -1.86456988940867        1.02616450031365
H            1.70194976295781        0.00244692687630       -1.86869271909109
15
 energy: -46.706575446464 gnorm: 0.004640864258 xtb: 6.7.1 (edcfbbe)
F            1.40077271583365        0.50095291693157        0.70638437385335
C            2.52282907550702        0.00232124922987        0.13067839840319
C            2.61676008040215       -1.52691863258053        0.28109528695882
O            2.39676612194831       -2.19861191658523       -0.89852511976966
S            0.74624626755832       -2.43598726132333       -1.15114379806158
O            0.21648360518519       -2.73917175836754        0.16037331633894
O            0.29226397533870       -1.16597627742912       -1.69134307522753
O            0.72122004483638       -3.52658647005360       -2.08770304953072
C            2.55738592789697        0.44732672977938       -1.33610881392604
F            2.51748252080607        1.80440566699017       -1.42514888958283
F            3.72323391318476        0.08655820356569       -1.91684242707193
F            3.54231513405342        0.59856767188249        0.83843403447967
H            3.62770982363301       -1.76265596904391        0.64033851989298
H            1.86256870414989       -1.84647717024216        1.01589182545337
H            1.69248208966595       -0.00362698275421       -1.85730058220980
15
 energy: -46.706628443492 gnorm: 0.006238507589 xtb: 6.7.1 (edcfbbe)
F            1.43962008416343        0.53683353753105        0.72742671356259
C            2.53795410201376        0.01087487957664        0.13087603594483
C            2.60070005701893       -1.51850803239199        0.29029770851466
O            2.39997890955086       -2.19368631322093       -0.89258802299854
S            0.75288075245109       -2.44535493811886       -1.15671033678042
O            0.22532848013452       -2.79338969472041        0.14652969643987
O            0.28037582264974       -1.16460352822802       -1.65847457981089
O            0.74254036419754       -3.51039577976722       -2.12371965944621
C            2.55303045015562        0.44551903083794       -1.33925862876996
F            2.50723599224950        1.80168889645372       -1.43834136166936
F            3.71481261221221        0.08374837138809       -1.92932949022651
F            3.58401991081517        0.59079213234905        0.81476295857838
H            3.59572961735706       -1.77287341571444        0.68018284195351
H            1.81949232767001       -1.82506056256088        1.00371602444815
H            1.68282051736033       -0.01146458341419       -1.84628989973991
15
 energy: -46.706661493162 gnorm: 0.006927911048 xtb: 6.7.1 (edcfbbe)
F            1.45192608565657        0.54841002230239        0.72682128182703
C            2.54133094936739        0.01311422978654        0.12830913028398
C            2.59337191368963       -1.51364205029578        0.29405544686713
O            2.40322340264587       -2.19417424130804       -0.88750158438090
S            0.75425686893580       -2.44953864805055       -1.15569948326945
O            0.23695343576208       -2.83195894287739        0.14304346098913
O            0.27172187180056       -1.15883149412402       -1.62488666778672
O            0.74599251262388       -3.49078731274322       -2.14903991649721
C            2.55404903262171        0.44356700883492       -1.34184946021157
F            2.50469839183963        1.79866588115682       -1.44600528374497
F            3.71881736545138        0.08237375271950       -1.92746887192579
F            3.59180146159730        0.58833233323010        0.80451613203414
H            3.57925095021043       -1.77314378722376        0.69555528289726
H            1.80306169833408       -1.81216242982584        0.99693409284511
H            1.68606405946347       -0.01610432158213       -1.84770355992700
15
 energy: -46.706697748910 gnorm: 0.007570501318 xtb: 6.7.1 (edcfbbe)
F            1.48879077158378        0.58504117865832        0.74999823927443
C            2.55899928381655        0.02095762348297        0.13131591161579
C            2.57845725481184       -1.50760121298505        0.30470889349801
O            2.40908825232061       -2.18633903301103       -0.88120510981282
S            0.76129999988885       -2.45987366241458       -1.16275021056910
O            0.24762873757975       -2.87499332168542        0.12809447318658
O            0.26280546128372       -1.16419637022022       -1.60415443953942
O            0.76829932629489       -3.47852845710384       -2.18038586597863
C            2.54690029600571        0.44119922625712       -1.34360240194793
F            2.50210238477435        1.79598366964211       -1.45248878596344
F            3.70222931065110        0.07294035001314       -1.94781493230929
F            3.63546305006811        0.58355576424243        0.78038016988853
H            3.54962165422862       -1.78719633158971        0.73668050474459
H            1.75805481205015       -1.78986140153609        0.98416451216911
H            1.66677940464174       -0.01696802175064       -1.83386095825625
15
 energy: -46.706720140092 gnorm: 0.003265581903 xtb: 6.7.1 (edcfbbe)
F            1.46694460274246        0.56522986699015        0.73761120827197
C            2.55189737815340        0.01552466934032        0.13150273151119
C            2.58699133662440       -1.51313794896018        0.30035734359759
O            2.40970377181251       -2.18906519565047       -0.88328615637139
S            0.75782866102202       -2.45586374915515       -1.15937902129616
O            0.24629365695441       -2.84466402217833        0.13539363692173
O            0.27066580201267       -1.16774015686834       -1.62229460439098
O            0.75565292374092       -3.48541888009073       -2.16120612167624
C            2.54848149316057        0.44226402525172       -1.34162326965551
F            2.51174094391524        1.79772702769891       -1.44260954354334
F            3.70389717954096        0.07202047014792       -1.94385134380700
F            3.61276755966091        0.58806230089635        0.79176392284538
H            3.56599191393954       -1.78261023397577        0.71769384319577
H            1.77875693174657       -1.79923638006995        0.98885181562934
H            1.66890584497319       -0.00897179337692       -1.83984444123217
15
 energy: -46.706751288922 gnorm: 0.002285426879 xtb: 6.7.1 (edcfbbe)
F            1.47898101072583        0.57875027072876        0.74135455487844
C            2.55515475047886        0.01843234519943        0.12939305275951
C            2.57919738685486       -1.51053959479908        0.30235117362476
O            2.40739768890677       -2.19041629837074       -0.87969374621280
S            0.75871162361786       -2.46151451108634       -1.15855771034519
O            0.24713198161000       -2.87280038278922        0.13143815850381
O            0.26620841975300       -1.16718886753049       -1.60174842526956
O            0.76269454968008       -3.47732668194351       -2.17626111886147
C            2.54947098572459        0.44374781764012       -1.34341709882620
F            2.50970392002823        1.79897448522812       -1.44684776253046
F            3.70399102650749        0.07517668980715       -1.94428241382906
F            3.62510436005438        0.58259914180658        0.78244112812068
H            3.55308721142560       -1.78336691322547        0.72834655419072
H            1.76646815426843       -1.79090637728416        0.98629689983511
H            1.67321693036379       -0.00950112338162       -1.84173324603814
15
 energy: -46.706768267539 gnorm: 0.003969463682 xtb: 6.7.1 (edcfbbe)
F            1.49727769210855        0.59550581240472        0.74824821975827
C            2.56205114448567        0.02225058399169        0.12820358968969
C            2.56947448649592       -1.50683631132691        0.30691742556732
O            2.40962867925518       -2.18920324122567       -0.87586861705544
S            0.76249256823666       -2.46680349950135       -1.15908438436539
O            0.25401285550692       -2.90619854250137        0.12443777077009
O            0.26186542458423       -1.16596390997309       -1.57677330890513
O            0.77330355515295       -3.46303772536842       -2.19732047228841
C            2.54855589473777        0.44333320057463       -1.34587169279606
F            2.50828156369138        1.79838362639250       -1.45317237146990
F            3.69895326926256        0.07297508164044       -1.95281554773850
F            3.64350857355251        0.57648620561514        0.76977062837784
H            3.53467857650774       -1.78601824825569        0.75104528954632
H            1.74314305642023       -1.77900271802596        0.97960317866536
H            1.66929266000150       -0.01175031444112       -1.83823970775591
15
 energy: -46.706784255145 gnorm: 0.003493220222 xtb: 6.7.1 (edcfbbe)
F            1.50752619128359        0.60517984555065        0.75282971364038
C            2.56605118635652        0.02443113566585        0.12801305810398
C            2.56366459351460       -1.50478349241756        0.30975912892280
O            2.41114241510789       -2.18884019624391       -0.87295927778208
S            0.76511732534020       -2.47006527673009       -1.15949051958393
O            0.25727792022557       -2.92302433067182        0.11920018844842
O            0.26125344130453       -1.16699502638343       -1.56475270503317
O            0.78021134185701       -3.45514193120194       -2.20787597285360
C            2.54749564372815        0.44298969696036       -1.34709033071261
F            2.50975048303709        1.79831827561836       -1.45528283578658
F            3.69348118014044        0.06967598928360       -1.96017188608400
F            3.65453548933153        0.57244411522390        0.76241237848580
H            3.52342361636483       -1.78704457476903        0.76398212246075
H            1.73078816676023       -1.77203102362011        0.97598203868110
H            1.66480100564757       -0.01099320626533       -1.83547510090712
15
 energy: -46.706795557683 gnorm: 0.001913591525 xtb: 6.7.1 (edcfbbe)
F            1.50920416092300        0.60657590013801        0.75294253898679
C            2.56643551691766        0.02465629964755        0.12803881346318
C            2.56326814684205       -1.50394015019805        0.31038560158735
O            2.41137952019179       -2.18816776054379       -0.87230841935720
S            0.76611587252758       -2.46997916081518       -1.15985618850780
O            0.25845699958313       -2.92531735233844        0.11707167229023
O            0.26057448324760       -1.16753113735826       -1.56297184206830
O            0.78228933489665       -3.45301976623703       -2.20914101656722
C            2.54697001345158        0.44235629585598       -1.34727152490846
F            2.51104851852616        1.79775669577533       -1.45592921736035
F            3.69134726843336        0.06686332551919       -1.96173152319289
F            3.65547406837415        0.57184647826272        0.76190721068358
H            3.52133194813178       -1.78719075168276        0.76579847633370
H            1.72990480410332       -1.77072478906638        0.97561666753869
H            1.66271934384995       -0.01006412695934       -1.83347124892116
15
 energy: -46.706803533122 gnorm: 0.001501803633 xtb: 6.7.1 (edcfbbe)
F            1.51355392625154        0.61053342237830        0.75353000321100
C            2.56771452189207        0.02538424807178        0.12828445817114
C            2.56159340990746       -1.50214721670796        0.31222862716924
O            2.41218139379328       -2.18712391762809       -0.87060120999070
S            0.76889583732388       -2.46998420330823       -1.16063742250954
O            0.26204842143439       -2.93300662749193        0.11172570617366
O            0.25925514099445       -1.16820429171005       -1.55635991298949
O            0.78771374435288       -3.44663135719346       -2.21374777556267
C            2.54566357586041        0.44068266294488       -1.34781471228205
F            2.51485061904822        1.79637477225072       -1.45789646245974
F            3.68563631763292        0.05967173990426       -1.96619613907338
F            3.65858340797525        0.57136572134890        0.75980537986583
H            3.51616853254848       -1.78757013812843        0.77151357317118
H            1.72544246319579       -1.76729274484003        0.97423999873728
H            1.65721868778874       -0.00793206989114       -1.82899411163162
15
 energy: -46.706806847415 gnorm: 0.000845509250 xtb: 6.7.1 (edcfbbe)
F            1.51450883518354        0.61188177766033        0.75403547250336
C            2.56806970515912        0.02576372703902        0.12814944833551
C            2.56068986413786       -1.50194325480734        0.31276986671847
O            2.41238690426988       -2.18717697771272       -0.87011614749081
S            0.76933330796276       -2.47053395220334       -1.16061523888207
O            0.26273175875196       -2.93629665723047        0.11121928005602
O            0.25902218712844       -1.16798416967069       -1.55375150143165
O            0.78886955923254       -3.44529358845292       -2.21584320829232
C            2.54552989828359        0.44075620093648       -1.34808142062878
F            2.51589961937859        1.79651067160298       -1.45848197426538
F            3.68476057660965        0.05879542571325       -1.96713410352000
F            3.65988988328269        0.57125265129266        0.75863242979099
H            3.51503944507006       -1.78761399581393        0.77330907713591
H            1.72338650879982       -1.76651699109029        0.97384389529762
H            1.65640194674925       -0.00748086726351       -1.82885587532672
