15
 energy: -46.706806847592 gnorm: 0.000846210786 xtb: 6.7.1 (edcfbbe)
F            1.51450883518354        0.61188177766033        0.75403547250336
C            2.56806970515912        0.02576372703902        0.12814944833551
C            2.56068986413786       -1.50194325480734        0.31276986671847
O            2.41238690426988       -2.18717697771272       -0.87011614749081
S            0.76933330796276       -2.47053395220334       -1.16061523888207
O            0.26273175875196       -2.93629665723047        0.11121928005602
O            0.25902218712844       -1.16798416967069       -1.55375150143165
O            0.78886955923254       -3.44529358845292       -2.21584320829232
C            2.54552989828359        0.44075620093648       -1.34808142062878
F            2.51589961937859        1.79651067160298       -1.45848197426538
F            3.68476057660965        0.05879542571325       -1.96713410352000
F            3.65988988328269        0.57125265129266        0.75863242979099
H            3.51503944507006       -1.78761399581393        0.77330907713591
H            1.72338650879982       -1.76651699109029        0.97384389529762
H            1.65640194674925       -0.00748086726351       -1.82885587532672
