11
 energy: -21.407265300909 gnorm: 0.063577283754 xtb: 6.7.1 (edcfbbe)
C            1.12823000000000        0.00579000000000       -0.17703000000000
C            0.30874000000000        1.02450000000000       -1.02780000000000
O           -0.63338000000000        0.30594000000000       -1.86379000000000
C           -0.46058000000000        1.99263000000000       -0.15388000000000
O            0.90180000000000       -1.20449000000000       -0.49665000000000
O            1.90655000000000        0.48742000000000        0.68979000000000
H            0.99331000000000        1.55997000000000       -1.69334000000000
H           -0.37690000000000       -0.63353000000000       -1.68263000000000
H            0.20959000000000        2.60638000000000        0.45565000000000
H           -1.08049000000000        2.65535000000000       -0.76697000000000
H           -1.13911000000000        1.45583000000000        0.51861000000000
11
 energy: -21.410435616296 gnorm: 0.025225410546 xtb: 6.7.1 (edcfbbe)
C            1.11987530873121       -0.00033862905830       -0.18864130893296
C            0.29203101807486        1.03087601349593       -1.03323000615582
O           -0.60714492125276        0.29205537338219       -1.86619869716817
C           -0.47350825505092        2.00318967925905       -0.15423681021864
O            0.89674021646648       -1.19637658576479       -0.48792973949028
O            1.88936613560974        0.46990493474979        0.66124936537810
H            0.98598491665642        1.57839748386729       -1.68763990069448
H           -0.34948410469663       -0.63590001491874       -1.64296875803958
H            0.22094761330810        2.58367843671159        0.45330653292884
H           -1.07888816420764        2.68031102729232       -0.76354832682985
H           -1.13815976363886        1.44999228098366        0.51179764922283
11
 energy: -21.411144005356 gnorm: 0.010328200987 xtb: 6.7.1 (edcfbbe)
C            1.11530879630586        0.00347345005329       -0.18527187396540
C            0.28059565476244        1.03274065443153       -1.04791623162385
O           -0.59160173276386        0.28356770289928       -1.87413524733076
C           -0.48215497442976        2.00209289400804       -0.15470513562113
O            0.87993992483521       -1.18300462875497       -0.47567788984069
O            1.90154107086501        0.46523272975810        0.64219191183365
H            0.98425753499373        1.59310225108545       -1.68899603534465
H           -0.33600273006244       -0.63902675923147       -1.61565688325818
H            0.22850087933584        2.55243931941504        0.45906133751196
H           -1.06992179461089        2.69958871343518       -0.75498999805625
H           -1.15270262923114        1.44558367290053        0.49805604569530
11
 energy: -21.411235738648 gnorm: 0.010802363595 xtb: 6.7.1 (edcfbbe)
C            1.12884417241725        0.00986332324953       -0.19808694645611
C            0.27740416517199        1.03660263313400       -1.06441046201959
O           -0.57854885046029        0.27683397126592       -1.88123968876788
C           -0.48537066779792        1.99746980692685       -0.15498220021207
O            0.83773205893390       -1.17840460477152       -0.44055049808948
O            1.91348529194907        0.47203350033444        0.62796816208227
H            0.97907791273075        1.61098542982303       -1.69845673667378
H           -0.32012710866097       -0.64260624573900       -1.60165017389794
H            0.23177633082143        2.52277378581606        0.47252663277452
H           -1.06166935973182        2.71648248553132       -0.74054676745751
H           -1.16484394537338        1.43375591442937        0.48138867871757
11
 energy: -21.411448844919 gnorm: 0.006128877048 xtb: 6.7.1 (edcfbbe)
C            1.12067141303984        0.01067658142805       -0.18828268247439
C            0.27716261829796        1.03814260680724       -1.06853868157871
O           -0.56891158147657        0.27447366608061       -1.88568115943759
C           -0.48960594818355        1.99615856242743       -0.15705163644098
O            0.82697579768086       -1.17808202145910       -0.43432689799305
O            1.94421046890616        0.47695687357232        0.60244521593242
H            0.98201538402402        1.61646702388263       -1.69540332545051
H           -0.32269141508139       -0.64524685529544       -1.58201321968225
H            0.22440846080958        2.50293703128934        0.49001617092625
H           -1.04917513043151        2.73296366137236       -0.73849232860920
H           -1.18730006758539        1.43034286989457        0.45928854480802
11
 energy: -21.411493545381 gnorm: 0.002592078085 xtb: 6.7.1 (edcfbbe)
C            1.12348454288874        0.01275156880276       -0.18949595260544
C            0.28095827278762        1.03778599238216       -1.06708474562485
O           -0.57126705812302        0.27642940133168       -1.88548275011510
C           -0.48744059747328        1.99368042470227       -0.15720136201424
O            0.83001608335169       -1.17600855267714       -0.43368520062964
O            1.94400640600751        0.47977654469519        0.60245729131817
H            0.98236568711532        1.61435530307598       -1.69600606790209
H           -0.33136965612677       -0.64438767742959       -1.58114881666640
H            0.22104890544261        2.50116254423492        0.49432167301755
H           -1.04394590695305        2.73098722834374       -0.73974610669889
H           -1.19009667891737        1.42925722253802        0.45503203792093
11
 energy: -21.411525344460 gnorm: 0.002773278698 xtb: 6.7.1 (edcfbbe)
C            1.12669741596670        0.01642008712131       -0.19101118061218
C            0.28391125219155        1.03836244936636       -1.06838218087807
O           -0.57004163914766        0.27594452236308       -1.88671592830577
C           -0.48715832504125        1.99029426612844       -0.15767650434178
O            0.82100745800898       -1.17310293579111       -0.41955291630186
O            1.95560074457443        0.48625301676147        0.59020722681733
H            0.98047606512717        1.61630548213284       -1.69830270032514
H           -0.33513580550564       -0.64415809383733       -1.57698287743046
H            0.21636248036839        2.48656575753103        0.50836755906357
H           -1.03196345392512        2.73817548198760       -0.73811360492191
H           -1.20199619261754        1.42472996623632        0.44012310723627
11
 energy: -21.411544630090 gnorm: 0.002336597945 xtb: 6.7.1 (edcfbbe)
C            1.12885876862461        0.01905483789010       -0.19223100494668
C            0.28538694755873        1.03895909383395       -1.07011452908568
O           -0.56740683755783        0.27429600365280       -1.88852063693911
C           -0.48816972738804        1.98807092531195       -0.15842771307618
O            0.81524962411728       -1.17014018521912       -0.40834416274777
O            1.96605241878252        0.49045182577357        0.57880101723680
H            0.97905807645022        1.61927253771651       -1.69995478149445
H           -0.33905508075175       -0.64425759815378       -1.56942662636042
H            0.21230794130753        2.47146416901022        0.52035107899588
H           -1.02100764621037        2.74695297638160       -0.73568080102282
H           -1.21351448493290        1.42166541380220        0.42550815944044
11
 energy: -21.411554221965 gnorm: 0.000921047771 xtb: 6.7.1 (edcfbbe)
C            1.12994184240082        0.02097006092389       -0.19245268486577
C            0.28560894554887        1.03938240504422       -1.07143056446525
O           -0.56547254129359        0.27258036850818       -1.88966098153279
C           -0.48958587307103        1.98677761356768       -0.15854154559101
O            0.80995020597577       -1.16780350069201       -0.39787213830503
O            1.97564935089719        0.49327142461128        0.56908998495181
H            0.97799974232457        1.62121563649321       -1.70157192577874
H           -0.34024413532216       -0.64387570166708       -1.56608638504733
H            0.20900678702643        2.45934597000879        0.52903264160273
H           -1.01263243927724        2.75381653036091       -0.73311962484042
H           -1.22246188520962        1.42010919284092        0.41457322387181
11
 energy: -21.411555246944 gnorm: 0.000694329216 xtb: 6.7.1 (edcfbbe)
C            1.13117383724934        0.02192654309568       -0.19297936917164
C            0.28537514632223        1.03965748973258       -1.07258996797297
O           -0.56433501383290        0.27196096689907       -1.89064891985944
C           -0.49051576632536        1.98645328933392       -0.15878008732291
O            0.81023273431390       -1.16666269539570       -0.39465560100218
O            1.97870550161369        0.49465042479596        0.56590573984985
H            0.97857941176397        1.62209937185408       -1.70230687051787
H           -0.34380175625292       -0.64368817318308       -1.56186735323787
H            0.20777660488868        2.45278502515698        0.53307244886904
H           -1.00863492403615        2.75758267860477       -0.73193177246708
H           -1.22679577570447        1.41902507910575        0.40874175283308
