17
 energy: -27.644451306177 gnorm: 5.536965421957 xtb: 6.7.1 (edcfbbe)
C            1.07442000000000       -0.06660000000000       -0.00505000000000
C            0.56775000000000       -0.37820000000000        1.39373000000000
C            1.07441000000000        0.67738000000000        2.36298000000000
C            0.56774000000000        2.04456000000000        1.93345000000000
B            0.54109000000000        1.37254000000000       -0.45719000000000
F            1.01109000000000        1.66159000000000       -1.75475000000000
F           -0.86891000000000        1.37253000000000       -0.45720000000000
F            1.01108000000000        2.35172000000000        0.44192000000000
H            0.71776000000000       -0.80968000000000       -0.68735000000000
H            2.14442000000000       -0.06660000000000       -0.00505000000000
H           -0.50225000000000       -0.37820000000000        1.39373000000000
H            0.92442000000000       -1.34063000000000        1.69610000000000
H            0.71774000000000        0.45803000000000        3.34765000000000
H            2.14441000000000        0.67738000000000        2.36298000000000
H           -0.50226000000000        2.04456000000000        1.93345000000000
H            0.92441000000000        2.78764000000000        2.61575000000000
H            0.92441000000000        2.26391000000000        0.94878000000000
17
 energy: -28.752704916333 gnorm: 0.423135493905 xtb: 6.7.1 (edcfbbe)
C            1.07405803469540       -0.06710944874764       -0.00349432622177
C            0.56861807970719       -0.37739155666517        1.39363514619973
C            1.07190575407552        0.67959026641274        2.36370118566523
C            0.55003407417381        2.02974303666080        2.00249435626158
B            0.53821647225182        1.36312077550391       -0.47585109379635
F            1.01028272354707        1.66132476336228       -1.75807253916473
F           -0.86827005390192        1.37459322536658       -0.45787692431493
F            1.06742092257856        2.40277821162641        0.15007525338729
H            0.71757933698993       -0.81122766958402       -0.68839584902416
H            2.14623707930089       -0.06611845038501       -0.00589560025862
H           -0.50386500873622       -0.37851493904507        1.39393557318564
H            0.92469696317118       -1.34288426257076        1.69678610147133
H            0.71752400622109        0.45367833954578        3.35262630854853
H            2.14668494403918        0.67721775562065        2.36357965573061
H           -0.50662819903406        2.04477919300887        1.93622278862303
H            0.92467078417846        2.79066047006315        2.62273514651560
H            0.89256408674210        2.23769028982649        1.17772481719199
17
 energy: -28.837210717557 gnorm: 0.252803383219 xtb: 6.7.1 (edcfbbe)
C            1.07566139232402       -0.06752457401723       -0.00427797205337
C            0.57419106350122       -0.37843193766024        1.40023298716283
C            1.06222824881166        0.66359784721974        2.40174950634438
C            0.53200344670454        2.03545018040349        2.08019461609066
B            0.54430682215548        1.36162441165721       -0.53815501566286
F            0.98318185372849        1.61852510063643       -1.85317018784875
F           -0.86583966628286        1.39905489759978       -0.47743718688568
F            1.10286075060053        2.45694594248809        0.06237964995686
H            0.72171858329156       -0.82700745924708       -0.69289769334612
H            2.16026453462073       -0.07623922308911       -0.00853977778380
H           -0.51061222690892       -0.38136361806555        1.39339464602019
H            0.92548937592271       -1.36141327711748        1.70486440144289
H            0.72477200585038        0.40368200356435        3.39870111945500
H            2.15069323759076        0.67519848127222        2.37792177417260
H           -0.54253635297495        2.04160827093881        1.99120901112245
H            0.90608741200834        2.80646642832647        2.72790149176664
H            0.92725951905630        2.30175652509009        1.09985863004609
17
 energy: -28.866868351344 gnorm: 0.226161846181 xtb: 6.7.1 (edcfbbe)
C            1.08320890382114       -0.06039612946820       -0.00261243475448
C            0.57772236456143       -0.37261889752772        1.40492839411822
C            1.05654499661755        0.65879948304546        2.42750679544242
C            0.53421732018068        2.05005490556710        2.10706511345120
B            0.54576864282312        1.36194910203176       -0.59166927822435
F            0.94257329342242        1.54775466428303       -1.94566839677509
F           -0.86049750877364        1.44198847707185       -0.51283221159604
F            1.11346027112947        2.50624819777741        0.01075823657333
H            0.73873197434915       -0.84059304812918       -0.68676562934716
H            2.17612729876835       -0.08455373191577       -0.00654934993165
H           -0.51459516647185       -0.38034320226931        1.38863765727482
H            0.91974230734697       -1.37076373595213        1.70938180763553
H            0.73863149092344        0.34040832160264        3.43069571997122
H            2.15250985950241        0.67178049003745        2.40377705404713
H           -0.55026278179822        2.04707995648424        2.03751165591178
H            0.88693662314746        2.80320193044895        2.81077595134882
H            0.93091011045012        2.35193321691240        1.07898891485434
17
 energy: -28.892522647562 gnorm: 0.193998820918 xtb: 6.7.1 (edcfbbe)
C            1.08817810893226       -0.05506097666758       -0.00436143772102
C            0.57972018606487       -0.36107305084941        1.40814622349502
C            1.05555303996285        0.65649705114412        2.44979322321743
C            0.53890369964021        2.05923502045141        2.14505464612927
B            0.54379121163751        1.34734125427268       -0.66231009765129
F            0.90805328310699        1.48750985285607       -2.03104014618672
F           -0.84960978830006        1.48072696578650       -0.56448816978538
F            1.12475455767867        2.54848652116514       -0.06580334696236
H            0.75529602397180       -0.85745822563022       -0.68085683815126
H            2.18693048072793       -0.08680156881381       -0.00789743325391
H           -0.51838689665101       -0.37258216868151        1.38819787070676
H            0.91183798616997       -1.37243296484947        1.71306996565605
H            0.75074636457666        0.30449621275370        3.45583204462860
H            2.15796255814655        0.67012607728100        2.43318905303824
H           -0.55674901251910        2.05004704964014        2.10796600489228
H            0.86436973296313        2.78347167741828        2.91492911411873
H            0.93037846389077        2.38940127272294        1.06450932382960
17
 energy: -28.912156491568 gnorm: 0.167237472176 xtb: 6.7.1 (edcfbbe)
C            1.08974985205415       -0.04669671340296       -0.01093293800325
C            0.58162484909035       -0.34623993890950        1.40613039249451
C            1.05592168004845        0.65478237696539        2.46574786566077
C            0.54073445605521        2.06757739998865        2.19054146746884
B            0.53911372890630        1.33068437179242       -0.72859666675169
F            0.88307208233705        1.42021019682044       -2.09841370145783
F           -0.83687936071220        1.50550687869539       -0.61428497123012
F            1.13806469058589        2.57740160560782       -0.13818390181650
H            0.76978225838360       -0.87091647690976       -0.67278310846421
H            2.18982999438038       -0.07481298455691       -0.01145425851719
H           -0.51781653380272       -0.35892766860112        1.38804507096753
H            0.90807452057807       -1.36436815483539        1.70745679722850
H            0.75584242489173        0.28089104536130        3.46799889528214
H            2.16019494425793        0.66795584506552        2.45719641058811
H           -0.56079514012158        2.05829815206095        2.17824156384644
H            0.85001109538271        2.76312284635990        2.99995646263798
H            0.92520445768468        2.40746121849784        1.07726462006601
17
 energy: -28.931598729888 gnorm: 0.134189054940 xtb: 6.7.1 (edcfbbe)
C            1.08927101063111       -0.03540215840904       -0.02019214155872
C            0.58296034890204       -0.32983943388589        1.40188248298025
C            1.05746509401457        0.65270530470383        2.47948058883384
C            0.53661970588128        2.07241098107947        2.24550560132479
B            0.53315516953814        1.31354113852100       -0.79471441568038
F            0.86214792584038        1.34890962086643       -2.15429627717608
F           -0.82364150817951        1.52726019391847       -0.66099276666942
F            1.15901435997113        2.59616697845041       -0.21511903386162
H            0.78276378052133       -0.87966425058467       -0.66236138442063
H            2.18821109650894       -0.05375099972129       -0.01568985066820
H           -0.51504428391516       -0.34198844690962        1.38799743966496
H            0.90730841981589       -1.34952759018279        1.69783195909904
H            0.75780837810813        0.26127712938866        3.47284347046529
H            2.15989401065663        0.67020811252302        2.47524053269212
H           -0.56456129436068        2.06522231456028        2.23975076586065
H            0.84408117663942        2.74594775384576        3.06193437535250
H            0.91427660942635        2.40845335183595        1.12482865376168
17
 energy: -28.948928693802 gnorm: 0.102096821236 xtb: 6.7.1 (edcfbbe)
C            1.08769575723184       -0.02194196836697       -0.02883969097772
C            0.58235813708436       -0.31390918460171        1.39654240736016
C            1.06021660821890        0.65057956543043        2.48879211316496
C            0.52751065511182        2.06892542030642        2.29314070844752
B            0.53035192738296        1.30431149901114       -0.84456532112559
F            0.84655394199124        1.27928083627574       -2.19244725807100
F           -0.81396473530309        1.54388136412454       -0.69384241965136
F            1.18472311168243        2.60456429375437       -0.28721636840639
H            0.79435125719034       -0.88191548110986       -0.65024954850307
H            2.18380888186354       -0.02607214861671       -0.01840306744719
H           -0.51232451518576       -0.32201120096331        1.38677707691173
H            0.90669357217874       -1.33069889055487        1.68621678416354
H            0.75841968557891        0.24644889456829        3.47075528058241
H            2.15752210923124        0.67653631078441        2.48375474439410
H           -0.56636824855627        2.06440807975413        2.27748386538280
H            0.84924334761419        2.73255596900833        3.08990244105028
H            0.89493850668464        2.39698664119563        1.20612825272488
17
 energy: -28.962086318711 gnorm: 0.064013804531 xtb: 6.7.1 (edcfbbe)
C            1.08768879142117       -0.00746329233892       -0.03237268334043
C            0.57915401510262       -0.30136969970810        1.39185526951255
C            1.06307664988850        0.64774166267249        2.49308333045040
C            0.51831379282402        2.05805570227393        2.31962439733329
B            0.53366988542598        1.30661654446221       -0.87080232957836
F            0.83514828707846        1.21470896187304       -2.21592896751988
F           -0.81034403191530        1.55488577432355       -0.71201499573540
F            1.20840792606789        2.60513129558470       -0.35526693238194
H            0.80775292631879       -0.87684707701765       -0.63907909571389
H            2.18105670615730        0.00523601621939       -0.01519328645344
H           -0.51246177040318       -0.29950714249914        1.38347504092790
H            0.90122460312057       -1.31539332771655        1.67423029538625
H            0.76006520217960        0.23534241491822        3.46557839379711
H            2.15501997531705        0.68300480261029        2.48250258277616
H           -0.56661498359400        2.05548772695790        2.29666067578093
H            0.86487023247672        2.72426816721649        3.09279160025033
H            0.86570179253384        2.38203147016813        1.30478670450846
17
 energy: -28.967110258033 gnorm: 0.043615699985 xtb: 6.7.1 (edcfbbe)
C            1.09243283564527        0.00507497113107       -0.02753619073351
C            0.57144446597460       -0.29323888539633        1.38923415548965
C            1.06718723650760        0.64256603360625        2.49382633382716
C            0.51388601396335        2.04567272219956        2.32583676926233
B            0.54103352523632        1.31435276990457       -0.87685802817992
F            0.83006018770686        1.16862264061412       -2.22785983582577
F           -0.81184544895652        1.55463000691164       -0.72348785954378
F            1.21711313309139        2.60226387782185       -0.41570171508489
H            0.82773090763684       -0.86739643359190       -0.63372400816424
H            2.18500738727645        0.03450187820307        0.00023984225401
H           -0.51978141963208       -0.27248853517109        1.37757039302458
H            0.88120525968018       -1.31116922343108        1.66480851772008
H            0.76963623509477        0.22782327070599        3.46470544038019
H            2.15779788286781        0.68293444572774        2.47146460353547
H           -0.56894322898382        2.04252326100552        2.32025894212716
H            0.88341434371373        2.71914613871554        3.08955606837148
H            0.83435068317729        2.37611106104346        1.37159657154005
17
 energy: -28.969111292698 gnorm: 0.041559943943 xtb: 6.7.1 (edcfbbe)
C            1.10034991272244        0.01247522140226       -0.01885898172164
C            0.56104300274997       -0.28905556378725        1.38792041188147
C            1.07284678510481        0.63679060758215        2.49123279054644
C            0.51405739915400        2.03712382756802        2.32728537769785
B            0.54657152610749        1.31848704240475       -0.87407313238961
F            0.83285832436896        1.14872391266448       -2.23036963302157
F           -0.81518264208132        1.54168085629608       -0.73220166093910
F            1.20805109923500        2.60236197553022       -0.45480876697782
H            0.85144173198800       -0.85997262968692       -0.63381661626375
H            2.19318754661614        0.05349023130814        0.02390438174001
H           -0.53104165480700       -0.24471466607443        1.37010192149599
H            0.84916763865614       -1.31560296411972        1.66066664079614
H            0.78624210389047        0.22539070454705        3.46694657184853
H            2.16470964116593        0.67662417936359        2.45415778616818
H           -0.57126085832362        2.03054627427358        2.35400958739264
H            0.89571778675205        2.71278270216671        3.09176352755958
H            0.81297065670058        2.38479828856129        1.38006979418669
17
 energy: -28.972340884187 gnorm: 0.026524932725 xtb: 6.7.1 (edcfbbe)
C            1.11628058171056        0.02580665435465       -0.00332064408397
C            0.54555352084358       -0.28413197081672        1.38453247704355
C            1.07851787282731        0.62520448852926        2.48796806211907
C            0.51663255902397        2.02331200339717        2.33645548897310
B            0.56139275643774        1.32887151044222       -0.86492571436949
F            0.84223113073465        1.11359521840958       -2.23382385590003
F           -0.82395324632894        1.51624151786213       -0.74450802749666
F            1.18488457401639        2.59374516697637       -0.54454024681606
H            0.89849908616915       -0.84232277329429       -0.63990551778933
H            2.20835464094256        0.08594884376969        0.06819670486809
H           -0.54634827200869       -0.19482574363719        1.35264779645738
H            0.78629373647860       -1.32741094517761        1.65269421173839
H            0.81253772911014        0.22119248173637        3.47408404189681
H            2.17223106770233        0.66563296556030        2.42631992942838
H           -0.57290139703414        2.01199492236156        2.43713433010214
H            0.92221767973087        2.70505938419394        3.09777206306320
H            0.76930597964399        2.40401627533252        1.37714890076551
17
 energy: -28.973128789641 gnorm: 0.017408020353 xtb: 6.7.1 (edcfbbe)
C            1.12993589201372        0.03272953736812       -0.00015660985775
C            0.53931042530739       -0.27941323013113        1.37828481941280
C            1.07360663988730        0.62211182751488        2.48836189639673
C            0.52003125154120        2.02716154502166        2.35140786008730
B            0.56486712956153        1.32924464202235       -0.86457169882308
F            0.83065976767871        1.09130140006731       -2.24222198710947
F           -0.82931993733958        1.49675234486855       -0.73709973244739
F            1.17440649893100        2.58321285641285       -0.58688323586918
H            0.92827292634205       -0.83360553900597       -0.64409601007614
H            2.22077045204685        0.10194206931001        0.08526263182561
H           -0.55027561896584       -0.17896745569853        1.33343658167011
H            0.76276942838818       -1.32558656184235        1.64486776758663
H            0.80914175306958        0.21211788510558        3.47330405843258
H            2.16655069591527        0.65552731470854        2.42672418461880
H           -0.56595325267634        2.02416845072646        2.47794176704966
H            0.94550218833282        2.70678365361347        3.10306357280741
H            0.75145375996623        2.40644925993815        1.37630413429547
17
 energy: -28.973603578529 gnorm: 0.010694660276 xtb: 6.7.1 (edcfbbe)
C            1.14271546234800        0.03702530930537       -0.00293576450810
C            0.53789541645928       -0.27217587891465        1.37053263026023
C            1.06543196585013        0.62219044050034        2.49213287761871
C            0.52377128617761        2.03601873316208        2.36949575950491
B            0.56312225753074        1.32296232082900       -0.87174629707503
F            0.80723255721628        1.07212146486870       -2.25476650341210
F           -0.83291484770573        1.48383337204487       -0.72271896845919
F            1.17043185666888        2.57179502335872       -0.61616309197122
H            0.95401745023976       -0.83251377977518       -0.64511473048061
H            2.23154708105748        0.11473644163499        0.09250558710750
H           -0.54896723801740       -0.16855156243887        1.31195214266431
H            0.75367340409565       -1.31753409553755        1.63662984958715
H            0.79107488894370        0.20012524600206        3.46932719751240
H            2.15764198214582        0.64748368337007        2.44122867498835
H           -0.55671946200761        2.04349262269317        2.50516289374478
H            0.96914908327628        2.70781509353580        3.11004749382992
H            0.74262685572121        2.40310556536103        1.37836024908810
17
 energy: -28.973902698900 gnorm: 0.009360332678 xtb: 6.7.1 (edcfbbe)
C            1.15406851726489        0.04063293935632       -0.00745419750721
C            0.53745889658085       -0.26417652297128        1.36321651798369
C            1.05814464947561        0.62244698587827        2.49620340934165
C            0.52697040788487        2.04367416896321        2.38661523184127
B            0.55941612468865        1.31318499359096       -0.88480602675142
F            0.77955740389473        1.05481725664096       -2.26883931537940
F           -0.83358944347085        1.47563947904997       -0.71029332997544
F            1.16973187570475        2.56223294498896       -0.64125436096068
H            0.98034996104717       -0.83705643376332       -0.64227988579339
H            2.24055257082295        0.13088297252281        0.09770361316911
H           -0.54731682543021       -0.15527908324303        1.29292707309764
H            0.74699689316889       -1.30950718389996        1.62990496209818
H            0.76992363491234        0.18818598841853        3.46360255079455
H            2.15056557443761        0.64024723818857        2.45802145079941
H           -0.54988610052424        2.06131264243746        2.52938702063326
H            0.99275028550987        2.70480219779536        3.11731752922487
H            0.73603557403219        2.39988941604616        1.38395775738401
17
 energy: -28.974105744752 gnorm: 0.009200489327 xtb: 6.7.1 (edcfbbe)
C            1.16279064859881        0.04450486177141       -0.01132767368174
C            0.53632994384100       -0.25719543717401        1.35694974738266
C            1.05208653168235        0.62130614456124        2.49933652031475
C            0.52996573141682        2.04751939439207        2.40013659534021
B            0.55550118315018        1.30332471107180       -0.89935098382055
F            0.75411692304272        1.03487316924087       -2.28152868229514
F           -0.83250297765942        1.47220774121991       -0.70263159569718
F            1.17137724246429        2.55493309215856       -0.66613935205220
H            1.00763176501010       -0.84236640514969       -0.63818482482551
H            2.24660243413783        0.15184610370566        0.10394046988645
H           -0.54671984297597       -0.14110204957867        1.27875387073942
H            0.73913484849245       -1.30390142735150        1.62348065653449
H            0.75224773682219        0.17879668112221        3.45866188490101
H            2.14515907376388        0.63376659361427        2.47125232507640
H           -0.54522558148686        2.07389835009778        2.55428856845916
H            1.01418337464396        2.69944979649200        3.12357755373957
H            0.72905096505574        2.40006867980605        1.39271491999832
17
 energy: -28.974282986972 gnorm: 0.007371874605 xtb: 6.7.1 (edcfbbe)
C            1.17058644437961        0.04971634274648       -0.01353299632150
C            0.53320708423613       -0.25070443368059        1.35099187609378
C            1.04706182313267        0.61834741368042        2.50114770759255
C            0.53315794428301        2.04819828440758        2.41191110466863
B            0.55130164454157        1.29302464113679       -0.91525249310891
F            0.72903565439467        1.00867633730925       -2.29302351216017
F           -0.83045333730391        1.47229645971434       -0.69902091367414
F            1.17482218528759        2.54785235714773       -0.69613903744776
H            1.04040359329397       -0.84626702285475       -0.63267486836491
H            2.25067124435301        0.17966538537681        0.11413170297131
H           -0.54819194106495       -0.12499904037254        1.26700592630640
H            0.72697622421745       -1.30006316330116        1.61593996875929
H            0.73877983907423        0.17026200655894        3.45441971045424
H            2.14096223088371        0.62586351126208        2.48011488034005
H           -0.54049593732220        2.08229056219229        2.58372941412257
H            1.03434710982913        2.69305402779818        3.12950860494928
H            0.71955819378437        2.40471633087809        1.40467292481943
17
 energy: -28.974396038408 gnorm: 0.005218356985 xtb: 6.7.1 (edcfbbe)
C            1.17553476695225        0.05476110509557       -0.01321578156671
C            0.52897972738941       -0.24654274786076        1.34678054182886
C            1.04443666453334        0.61488319701955        2.50106605717255
C            0.53570393918129        2.04634704555890        2.41895784625031
B            0.54816964689432        1.28557447558709       -0.92637508026936
F            0.71116506696039        0.98328742943242       -2.29954524864945
F           -0.82875951789790        1.47558136086965       -0.69864198814129
F            1.17961407490340        2.54162302884097       -0.72244332456185
H            1.06919159986042       -0.84651917464038       -0.62799500674101
H            2.25152516026431        0.20527268117357        0.12542085294429
H           -0.55126757079562       -0.11246019622671        1.25970384174500
H            0.71388318687602       -1.29858066277490        1.60904271787153
H            0.73363410355894        0.16511185982125        3.45248395695344
H            2.13882538957858        0.61878450333664        2.48171990383064
H           -0.53593353108834        2.08383207202416        2.60751421751941
H            1.04607063514958        2.68857614364515        3.13415968562383
H            0.71095665767968        2.41239787909777        1.41529680818996
17
 energy: -28.974453134598 gnorm: 0.003953512116 xtb: 6.7.1 (edcfbbe)
C            1.17804572824848        0.05817842221744       -0.01153915723877
C            0.52509700025035       -0.24487289496790        1.34440551602323
C            1.04372915384912        0.61244459079031        2.49958847626255
C            0.53699959909805        2.04431742695115        2.42169308355181
B            0.54640190557391        1.28154400548547       -0.93120422467794
F            0.70065052151169        0.96615098076225       -2.30129341288336
F           -0.82810252683864        1.47955460752346       -0.69869245481620
F            1.18457827617712        2.53589288969112       -0.73929740351541
H            1.08914378432396       -0.84505610897095       -0.62503407955032
H            2.25056445459919        0.22281557808251        0.13494051051891
H           -0.55456086679106       -0.10551232141770        1.25583065704786
H            0.70342472106822       -1.29848470671595        1.60460995048288
H            0.73444415080452        0.16324808528549        3.45221680610795
H            2.13818794162435        0.61391394398895        2.47821801836684
H           -0.53268840475350        2.08204496263316        2.62026655294648
H            1.05001327935300        2.68629173600381        3.13777377198720
H            0.70580128190129        2.41945880265733        1.42144738938644
17
 energy: -28.974486166374 gnorm: 0.003407429211 xtb: 6.7.1 (edcfbbe)
C            1.17915019628622        0.05966316145262       -0.01006461245505
C            0.52256801275358       -0.24485001849352        1.34307914918705
C            1.04354965973634        0.61136982524229        2.49777149031509
C            0.53746765618133        2.04337007619434        2.42187853702504
B            0.54553331182834        1.27953276248667       -0.93190141455955
F            0.69323150600153        0.95666221279528       -2.30092207441099
F           -0.82792467769036        1.48368482376547       -0.69634438374446
F            1.19027870542546        2.53032001260496       -0.74728261094878
H            1.10130857622922       -0.84389134529849       -0.62355533346740
H            2.24909232494893        0.23326164104974        0.14123103369907
H           -0.55679916857951       -0.10303994095973        1.25354620477835
H            0.69706078248440       -1.29899031775684        1.60224542162819
H            0.73633074990471        0.16342720786190        3.45230635675953
H            2.13781843305862        0.61150099907595        2.47402799004819
H           -0.53103598395214        2.08005737212434        2.62322272046107
H            1.04933657428679        2.68510171783446        3.14078474581070
H            0.70476334109662        2.42474981002050        1.42390677987410
17
 energy: -28.974520643906 gnorm: 0.003168286695 xtb: 6.7.1 (edcfbbe)
C            1.17975570240530        0.05943611968960       -0.00899594644347
C            0.52065978797966       -0.24590399601782        1.34207607657041
C            1.04346748732334        0.61122368220831        2.49529992326103
C            0.53724056943065        2.04332210408631        2.42023304848536
B            0.54506366056484        1.27798140495765       -0.93027498929408
F            0.68439716485914        0.95184211931777       -2.29924286976165
F           -0.82736815895978        1.48940531971257       -0.69054293303827
F            1.19870380247404        2.52301080428114       -0.75008849073211
H            1.11106162606059       -0.84412167017005       -0.62263642359009
H            2.24730355324441        0.24075128708029        0.14621075079206
H           -0.55855296279058       -0.10287419235123        1.25178409423992
H            0.69271337962837       -1.29992752696529        1.60129563437631
H            0.73841697374160        0.16503452479323        3.45205019865399
H            2.13742227256805        0.61049288755011        2.46913094686862
H           -0.53106221058395        2.07839451492259        2.61907115703319
H            1.04544278114446        2.68371793733421        3.14418706760744
H            0.70706457090991        2.43014467957057        1.42437275497150
17
 energy: -28.974617511942 gnorm: 0.001619891103 xtb: 6.7.1 (edcfbbe)
C            1.18123008379379        0.05302988900319       -0.01329905398279
C            0.52305519997461       -0.24598458017675        1.33965792338451
C            1.04279458695336        0.61555206727926        2.49174311892453
C            0.53616250395385        2.04907548341988        2.42199709263140
B            0.54305667917374        1.27198736433162       -0.93043539508592
F            0.67722050564130        0.95874297134477       -2.30319788385939
F           -0.82732032224298        1.48716406083879       -0.68345754765454