      -----------------------------------------------------------      
     |                   =====================                   |     
     |                           x T B                           |     
     |                   =====================                   |     
     |                         S. Grimme                         |     
     |          Mulliken Center for Theoretical Chemistry        |     
     |                    University of Bonn                     |     
      -----------------------------------------------------------      

   * xtb version 6.7.1 (edcfbbe) compiled by 'conda@3ef47c1a292c' on 2024-11-25

   xtb is free software: you can redistribute it and/or modify it under
   the terms of the GNU Lesser General Public License as published by
   the Free Software Foundation, either version 3 of the License, or
   (at your option) any later version.
   
   xtb is distributed in the hope that it will be useful,
   but WITHOUT ANY WARRANTY; without even the implied warranty of
   MERCHANTABILITY or FITNESS FOR A PARTICULAR PURPOSE.  See the
   GNU Lesser General Public License for more details.
   
   Cite this work as:
   * C. Bannwarth, E. Caldeweyher, S. Ehlert, A. Hansen, P. Pracht,
     J. Seibert, S. Spicher, S. Grimme, WIREs Comput. Mol. Sci., 2020, 11,
     e01493. DOI: 10.1002/wcms.1493
   
   for GFN2-xTB:
   * C. Bannwarth, S. Ehlert and S. Grimme., J. Chem. Theory Comput., 2019,
     15, 1652-1671. DOI: 10.1021/acs.jctc.8b01176
   for GFN1-xTB:
   * S. Grimme, C. Bannwarth, P. Shushkov, J. Chem. Theory Comput., 2017,
     13, 1989-2009. DOI: 10.1021/acs.jctc.7b00118
   for GFN0-xTB:
   * P. Pracht, E. Caldeweyher, S. Ehlert, S. Grimme, ChemRxiv, 2019, preprint.
     DOI: 10.26434/chemrxiv.8326202.v1
   for GFN-FF:
   * S. Spicher and S. Grimme, Angew. Chem. Int. Ed., 2020, 59, 15665-15673.
     DOI: 10.1002/anie.202004239
   
   for ALPB and GBSA implicit solvation:
   * S. Ehlert, M. Stahn, S. Spicher, S. Grimme, J. Chem. Theory Comput.,
     2021, 17, 4250-4261. DOI: 10.1021/acs.jctc.1c00471
   
   for ddCOSMO and CPCM-X implicit solvation:
   * M. Stahn, S. Ehlert, S. Grimme, J. Phys. Chem. A,
     2023, XX, XXXX-XXXX. DOI: 10.1021/acs.jpca.3c04382
   
   for DFT-D4:
   * E. Caldeweyher, C. Bannwarth and S. Grimme, J. Chem. Phys., 2017,
     147, 034112. DOI: 10.1063/1.4993215
   * E. Caldeweyher, S. Ehlert, A. Hansen, H. Neugebauer, S. Spicher,
     C. Bannwarth and S. Grimme, J. Chem. Phys., 2019, 150, 154122.
     DOI: 10.1063/1.5090222
   * E. Caldeweyher, J.-M. Mewes, S. Ehlert and S. Grimme, Phys. Chem. Chem. Phys.
     2020, 22, 8499-8512. DOI: 10.1039/D0CP00502A
   
   for sTDA-xTB:
   * S. Grimme and C. Bannwarth, J. Chem. Phys., 2016, 145, 054103.
     DOI: 10.1063/1.4959605
   
   in the mass-spec context:
   * V. Asgeirsson, C. Bauer and S. Grimme, Chem. Sci., 2017, 8, 4879.
     DOI: 10.1039/c7sc00601b
   * J. Koopman and S. Grimme, ACS Omega 2019, 4, 12, 15120-15133.
     DOI: 10.1021/acsomega.9b02011
   
   for metadynamics refer to:
   * S. Grimme, J. Chem. Theory Comput., 2019, 155, 2847-2862
     DOI: 10.1021/acs.jctc.9b00143
   
   for SPH calculations refer to:
   * S. Spicher and S. Grimme, J. Chem. Theory Comput., 2021, 17, 1701-1714
     DOI: 10.1021/acs.jctc.0c01306
   
   for ONIOM refer to:
   * C. Plett, A. Katbashev, S. Ehlert, S. Grimme, M. Bursch,
     Phys. Chem. Chem. Phys., 2023, 25, 17860-17868. DOI: 10.1039/D3CP02178E
   
   for DIPRO refer to:
   * J. Kohn, N. Gildemeister, S. Grimme, D. Fazzi, A. Hansen,
     J. Chem. Phys., 2023, just accepted.
   
   for PTB refer to:
   * S. Grimme, M. Mueller, A. Hansen, J. Chem. Phys., 2023, 158, 124111.
     DOI: 10.1063/5.0137838
   
   with help from (in alphabetical order)
   P. Atkinson, C. Bannwarth, F. Bohle, G. Brandenburg, E. Caldeweyher
   M. Checinski, S. Dohm, S. Ehlert, S. Ehrlich, I. Gerasimov, C. Hölzer
   A. Katbashev, J. Kohn, J. Koopman, C. Lavigne, S. Lehtola, F. März, M. Müller,
   F. Musil, H. Neugebauer, J. Pisarek, C. Plett, P. Pracht, F. Pultar,
   J. Seibert, P. Shushkov, S. Spicher, M. Stahn, M. Steiner, T. Strunk,
   J. Stückrath, T. Rose, and J. Unsleber
   
 * started run on 2024/12/20 at 01:52:46.861     
   ID    Z sym.   atoms
    1    6 C      1, 4
    2    7 N      2, 3, 5

           -------------------------------------------------
          |                Calculation Setup                |
           -------------------------------------------------

          program call               : xtb A045.xyz --opt --namespace A045 --charge -1
          calculation namespace      : A045
          coordinate file            : A045.xyz
          omp threads                :                     8


           -------------------------------------------------
          |                 G F N 2 - x T B                 |
           -------------------------------------------------

        Reference                      10.1021/acs.jctc.8b01176
      * Hamiltonian:
        H0-scaling (s, p, d)           1.850000    2.230000    2.230000
        zeta-weighting                 0.500000
      * Dispersion:
        s8                             2.700000
        a1                             0.520000
        a2                             5.000000
        s9                             5.000000
      * Repulsion:
        kExp                           1.500000    1.000000
        rExp                           1.000000
      * Coulomb:
        alpha                          2.000000
        third order                    shell-resolved
        anisotropic                    true
        a3                             3.000000
        a5                             4.000000
        cn-shift                       1.200000
        cn-exp                         4.000000
        max-rad                        5.000000


          ...................................................
          :                      SETUP                      :
          :.................................................:
          :  # basis functions                  20          :
          :  # atomic orbitals                  20          :
          :  # shells                           10          :
          :  # electrons                        24          :
          :  max. iterations                   250          :
          :  Hamiltonian                  GFN2-xTB          :
          :  restarted?                      false          :
          :  GBSA solvation                  false          :
          :  PC potential                    false          :
          :  electronic temp.          300.0000000     K    :
          :  accuracy                    1.0000000          :
          :  -> integral cutoff          0.2500000E+02      :
          :  -> integral neglect         0.1000000E-07      :
          :  -> SCF convergence          0.1000000E-05 Eh   :
          :  -> wf. convergence          0.1000000E-03 e    :
          :  Broyden damping             0.4000000          :
          :  net charge                         -1          :
          :  unpaired electrons                  0          :
          ...................................................

 iter      E             dE          RMSdq      gap      omega  full diag
   1    -13.3250992 -0.133251E+02  0.920E+00    4.90       0.0  T
   2    -13.3239515  0.114773E-02  0.662E+00    4.26       1.0  T
   3    -13.3504197 -0.264682E-01  0.402E+00    4.44       1.0  T
   4    -13.3883452 -0.379255E-01  0.576E-01    4.44       1.0  T
   5    -13.3891319 -0.786695E-03  0.205E-01    4.35       1.0  T
   6    -13.3891382 -0.628324E-05  0.665E-02    4.38       1.0  T
   7    -13.3891589 -0.206798E-04  0.761E-03    4.37       5.9  T
   8    -13.3891590 -0.128632E-06  0.361E-03    4.37      12.4  T
   9    -13.3891591 -0.618614E-07  0.907E-04    4.37      49.3  T
  10    -13.3891591 -0.360135E-08  0.281E-04    4.37     159.2  T

   *** convergence criteria satisfied after 10 iterations ***

         #    Occupation            Energy/Eh            Energy/eV
      -------------------------------------------------------------
         1        2.0000           -0.4311304             -11.7317
       ...           ...                  ...                  ...
         6        2.0000           -0.2884806              -7.8500
         7        2.0000           -0.2673630              -7.2753
         8        2.0000           -0.2640759              -7.1859
         9        2.0000           -0.2532574              -6.8915
        10        2.0000           -0.2271567              -6.1812
        11        2.0000           -0.1957065              -5.3254
        12        2.0000           -0.1697778              -4.6199 (HOMO)
        13                         -0.0093292              -0.2539 (LUMO)
        14                         -0.0043604              -0.1187
        15                          0.0088211               0.2400
        16                          0.0445575               1.2125
        17                          0.2007869               5.4637
       ...                                ...                  ...
        20                          1.2134572              33.0199
      -------------------------------------------------------------
                  HL-Gap            0.1604486 Eh            4.3660 eV
             Fermi-level           -0.0895535 Eh           -2.4369 eV

 SCC (total)                   0 d,  0 h,  0 min,  0.004 sec
 SCC setup                      ...        0 min,  0.000 sec (  3.084%)
 Dispersion                     ...        0 min,  0.000 sec (  0.669%)
 classical contributions        ...        0 min,  0.000 sec (  0.520%)
 integral evaluation            ...        0 min,  0.000 sec (  6.460%)
 iterations                     ...        0 min,  0.003 sec ( 75.197%)
 molecular gradient             ...        0 min,  0.000 sec ( 10.829%)
 printout                       ...        0 min,  0.000 sec (  2.852%)

         :::::::::::::::::::::::::::::::::::::::::::::::::::::
         ::                     SUMMARY                     ::
         :::::::::::::::::::::::::::::::::::::::::::::::::::::
         :: total energy             -13.185144808316 Eh    ::
         :: gradient norm              0.191658114537 Eh/a0 ::
         :: HOMO-LUMO gap              4.366029687994 eV    ::
         ::.................................................::
         :: SCC energy               -13.389159158884 Eh    ::
         :: -> isotropic ES            0.148253348541 Eh    ::
         :: -> anisotropic ES          0.015026798202 Eh    ::
         :: -> anisotropic XC          0.025626141109 Eh    ::
         :: -> dispersion             -0.002946660440 Eh    ::
         :: repulsion energy           0.204014350568 Eh    ::
         :: add. restraining           0.000000000000 Eh    ::
         :: total charge              -1.000000000000 e     ::
         :::::::::::::::::::::::::::::::::::::::::::::::::::::

      ----------------------------------------------------------- 
     |                   =====================                   |
     |                        A N C O P T                        |
     |                   =====================                   |
     |               Approximate Normal Coordinate               |
     |                Rational Function Optimizer                |
      ----------------------------------------------------------- 
      ----------------------------------------------------------- 
     |                   =====================                   |
     |                        A N C O P T                        |
     |                   =====================                   |
     |               Approximate Normal Coordinate               |
     |                Rational Function Optimizer                |
      ----------------------------------------------------------- 

          ...................................................
          :                      SETUP                      :
          :.................................................:
          :   optimization level            normal          :
          :   max. optcycles                   200          :
          :   ANC micro-cycles                  20          :
          :   degrees of freedom                 9          :
          :.................................................:
          :   RF solver                   davidson          :
          :   write xtbopt.log                true          :
          :   linear?                        false          :
          :   energy convergence         0.5000000E-05 Eh   :
          :   grad. convergence          0.1000000E-02 Eh/α :
          :   maxmium RF displ.          1.0000000          :
          :   Hlow (freq-cutoff)         0.1000000E-01      :
          :   Hmax (freq-cutoff)         5.0000000          :
          :   S6 in model hess.         20.0000000          :
          ...................................................

generating ANC from exact Hessian ...
Using Lindh-Hessian (1995)
 Shifting diagonal of input Hessian by    9.8191346213537620E-003
 Lowest  eigenvalues of input Hessian
    0.000000    0.000000    0.000000    0.000000    0.000000    0.000000
    0.010000    0.010281    0.036316    0.343351    0.378084    0.716402
    0.804338    2.427683    2.478439
 Highest eigenvalues
    0.343351    0.378084    0.716402    0.804338    2.427683    2.478439


........................................................................
.............................. CYCLE    1 ..............................
........................................................................

 iter      E             dE          RMSdq      gap      omega  full diag
   1    -13.3891591 -0.133892E+02  0.647E-05    4.37       0.0  T
   2    -13.3891591  0.584244E-11  0.693E-05    4.37     645.0  T
   3    -13.3891591 -0.253024E-10  0.547E-06    4.37    8171.6  T
     SCC iter.                  ...        0 min,  0.001 sec
     gradient                   ...        0 min,  0.001 sec
 * total energy  :   -13.1851448 Eh     change       -0.2851461E-09 Eh
   gradient norm :     0.1916536 Eh/α   predicted     0.0000000E+00 (-100.00%)
   displ. norm   :     0.2942074 α      lambda       -0.4613063E-01
   maximum displ.:     0.2487690 α      in ANC's #4, #6, #8, ...

........................................................................
.............................. CYCLE    2 ..............................
........................................................................

 iter      E             dE          RMSdq      gap      omega  full diag
   1    -13.4408043 -0.134408E+02  0.154E+00    4.74       0.0  T
   2    -13.4402446  0.559731E-03  0.191E+00    4.94       1.0  T
   3    -13.4535186 -0.132740E-01  0.601E-01    4.94       1.0  T
   4    -13.4534580  0.606086E-04  0.310E-01    4.89       1.0  T
   5    -13.4536437 -0.185683E-03  0.361E-02    4.91       1.2  T
   6    -13.4536466 -0.289368E-05  0.777E-03    4.92       5.8  T
   7    -13.4536467 -0.142870E-06  0.668E-04    4.91      66.9  T
   8    -13.4536467  0.126381E-09  0.313E-04    4.91     142.8  T
     SCC iter.                  ...        0 min,  0.001 sec
     gradient                   ...        0 min,  0.000 sec
 * total energy  :   -13.2211803 Eh     change       -0.3603554E-01 Eh
   gradient norm :     0.1008733 Eh/α   predicted    -0.2506180E-01 ( -30.45%)
   displ. norm   :     0.2950683 α      lambda       -0.2240035E-01
   maximum displ.:     0.2213439 α      in ANC's #4, #6, #3, ...

........................................................................
.............................. CYCLE    3 ..............................
........................................................................

 iter      E             dE          RMSdq      gap      omega  full diag
   1    -13.4824659 -0.134825E+02  0.175E+00    4.91       0.0  T
   2    -13.4838510 -0.138503E-02  0.199E+00    4.99       1.0  T
   3    -13.4984177 -0.145667E-01  0.601E-01    5.05       1.0  T
   4    -13.4983031  0.114585E-03  0.339E-01    5.01       1.0  T
   5    -13.4984742 -0.171111E-03  0.352E-02    5.03       1.3  T
   6    -13.4984765 -0.232048E-05  0.813E-03    5.03       5.5  T
   7    -13.4984767 -0.178141E-06  0.825E-04    5.03      54.2  T
   8    -13.4984767 -0.154634E-08  0.439E-04    5.03     101.8  T
     SCC iter.                  ...        0 min,  0.001 sec
     gradient                   ...        0 min,  0.000 sec
 * total energy  :   -13.2263321 Eh     change       -0.5151727E-02 Eh
   gradient norm :     0.0955746 Eh/α   predicted    -0.1217532E-01 ( 136.33%)
   displ. norm   :     0.2040158 α      lambda       -0.8774068E-02
   maximum displ.:     0.1840967 α      in ANC's #3, #4, #6, ...

........................................................................
.............................. CYCLE    4 ..............................
........................................................................

 iter      E             dE          RMSdq      gap      omega  full diag
   1    -13.4794959 -0.134795E+02  0.786E-01    5.00       0.0  T
   2    -13.4795295 -0.336395E-04  0.894E-01    4.97       1.0  T
   3    -13.4821964 -0.266683E-02  0.322E-01    4.95       1.0  T
   4    -13.4822004 -0.400233E-05  0.999E-02    4.96       1.0  T
   5    -13.4822163 -0.159649E-04  0.119E-02    4.95       3.8  T
   6    -13.4822163 -0.519157E-08  0.332E-03    4.95      13.5  T
   7    -13.4822164 -0.340308E-07  0.417E-04    4.95     107.4  T
   8    -13.4822164 -0.511889E-09  0.177E-04    4.95     252.0  T
     SCC iter.                  ...        0 min,  0.001 sec
     gradient                   ...        0 min,  0.000 sec
 * total energy  :   -13.2305895 Eh     change       -0.4257461E-02 Eh
   gradient norm :     0.0153902 Eh/α   predicted    -0.4569632E-02 (   7.33%)
   displ. norm   :     0.1565296 α      lambda       -0.9923154E-03
   maximum displ.:     0.1528920 α      in ANC's #3, #4, #6, ...

........................................................................
.............................. CYCLE    5 ..............................
........................................................................

 iter      E             dE          RMSdq      gap      omega  full diag
   1    -13.4833052 -0.134833E+02  0.525E-01    4.91       0.0  T
   2    -13.4833423 -0.371335E-04  0.297E-01    4.93       1.0  T
   3    -13.4832491  0.931959E-04  0.162E-01    4.93       1.0  T
   4    -13.4833589 -0.109735E-03  0.311E-02    4.92       1.4  T
   5    -13.4833629 -0.406765E-05  0.657E-03    4.93       6.8  T
   6    -13.4833629 -0.499351E-08  0.446E-04    4.93     100.3  T
   7    -13.4833629  0.260041E-10  0.261E-04    4.93     171.2  T
     SCC iter.                  ...        0 min,  0.001 sec
     gradient                   ...        0 min,  0.000 sec
 * total energy  :   -13.2313941 Eh     change       -0.8045200E-03 Eh
   gradient norm :     0.0173158 Eh/α   predicted    -0.5083141E-03 ( -36.82%)
   displ. norm   :     0.2554149 α      lambda       -0.1396994E-02
   maximum displ.:     0.2419678 α      in ANC's #3, #4, #6, ...

........................................................................
.............................. CYCLE    6 ..............................
........................................................................

 iter      E             dE          RMSdq      gap      omega  full diag
   1    -13.4886561 -0.134887E+02  0.904E-01    4.90       0.0  T
   2    -13.4887442 -0.880184E-04  0.518E-01    4.93       1.0  T
   3    -13.4883832  0.360966E-03  0.317E-01    4.93       1.0  T
   4    -13.4888203 -0.437067E-03  0.393E-02    4.92       1.1  T
   5    -13.4888257 -0.544933E-05  0.108E-02    4.93       4.1  T
   6    -13.4888257 -0.124877E-07  0.725E-04    4.93      61.7  T
   7    -13.4888257 -0.558398E-10  0.362E-04    4.93     123.7  T
     SCC iter.                  ...        0 min,  0.001 sec
     gradient                   ...        0 min,  0.000 sec
 * total energy  :   -13.2322898 Eh     change       -0.8957263E-03 Eh
   gradient norm :     0.0126918 Eh/α   predicted    -0.7440685E-03 ( -16.93%)
   displ. norm   :     0.1535738 α      lambda       -0.4559458E-03
   maximum displ.:     0.1103038 α      in ANC's #3, #2, #4, ...

........................................................................
.............................. CYCLE    7 ..............................
........................................................................

 iter      E             dE          RMSdq      gap      omega  full diag
   1    -13.4916229 -0.134916E+02  0.535E-01    4.90       0.0  T
   2    -13.4916508 -0.278879E-04  0.308E-01    4.91       1.0  T
   3    -13.4915249  0.125919E-03  0.183E-01    4.92       1.0  T
   4    -13.4916765 -0.151606E-03  0.205E-02    4.91       2.2  T
   5    -13.4916779 -0.143220E-05  0.567E-03    4.91       7.9  T
   6    -13.4916779 -0.433871E-08  0.391E-04    4.91     114.5  T
   7    -13.4916779 -0.123190E-10  0.173E-04    4.91     258.6  T
     SCC iter.                  ...        0 min,  0.001 sec
     gradient                   ...        0 min,  0.000 sec
 * total energy  :   -13.2322360 Eh     change        0.5376440E-04 Eh
   gradient norm :     0.0125155 Eh/α   predicted    -0.2333514E-03 (-534.03%)
   displ. norm   :     0.2314293 α      lambda       -0.1250485E-02
   maximum displ.:     0.1714620 α      in ANC's #3, #2, #4, ...

........................................................................
.............................. CYCLE    8 ..............................
........................................................................

 iter      E             dE          RMSdq      gap      omega  full diag
   1    -13.4970639 -0.134971E+02  0.833E-01    4.92       0.0  T
   2    -13.4971451 -0.811472E-04  0.487E-01    4.94       1.0  T
   3    -13.4968126  0.332486E-03  0.310E-01    4.95       1.0  T
   4    -13.4972332 -0.420624E-03  0.330E-02    4.94       1.4  T
   5    -13.4972368 -0.357729E-05  0.889E-03    4.94       5.0  T
   6    -13.4972368 -0.114482E-07  0.614E-04    4.94      72.9  T
   7    -13.4972368 -0.104558E-09  0.292E-04    4.94     153.3  T
     SCC iter.                  ...        0 min,  0.001 sec
     gradient                   ...        0 min,  0.000 sec
 * total energy  :   -13.2325229 Eh     change       -0.2868523E-03 Eh
   gradient norm :     0.0117943 Eh/α   predicted    -0.6587334E-03 ( 129.64%)
   displ. norm   :     0.1129776 α      lambda       -0.2921164E-03
   maximum displ.:     0.0970259 α      in ANC's #3, #4, #2, ...

........................................................................
.............................. CYCLE    9 ..............................
........................................................................

 iter      E             dE          RMSdq      gap      omega  full diag
   1    -13.4982639 -0.134983E+02  0.423E-01    5.00       0.0  T
   2    -13.4983168 -0.528521E-04  0.254E-01    4.98       1.0  T
   3    -13.4982631  0.536729E-04  0.170E-01    4.98       1.0  T
   4    -13.4983595 -0.964467E-04  0.330E-02    4.98       1.4  T
   5    -13.4983632 -0.366228E-05  0.481E-03    4.98       9.3  T
   6    -13.4983632 -0.417183E-08  0.329E-04    4.98     135.8  T
   7    -13.4983632 -0.307789E-10  0.194E-04    4.98     230.5  T
     SCC iter.                  ...        0 min,  0.001 sec
     gradient                   ...        0 min,  0.000 sec
 * total energy  :   -13.2326571 Eh     change       -0.1342152E-03 Eh
   gradient norm :     0.0098727 Eh/α   predicted    -0.1479219E-03 (  10.21%)
   displ. norm   :     0.0275700 α      lambda       -0.1402858E-03
   maximum displ.:     0.0196782 α      in ANC's #2, #6, #4, ...

........................................................................
.............................. CYCLE   10 ..............................
........................................................................

 iter      E             dE          RMSdq      gap      omega  full diag
   1    -13.4904384 -0.134904E+02  0.986E-02    4.91       0.0  T
   2    -13.4904381  0.306661E-06  0.745E-02    4.92       1.0  T
   3    -13.4904502 -0.120376E-04  0.397E-02    4.92       1.1  T
   4    -13.4904521 -0.196453E-05  0.448E-03    4.92      10.0  T
   5    -13.4904522 -0.336736E-07  0.192E-03    4.92      23.3  T
   6    -13.4904522 -0.201599E-08  0.197E-04    4.92     227.3  T
   7    -13.4904522 -0.104706E-09  0.849E-05    4.92     527.0  T
     SCC iter.                  ...        0 min,  0.001 sec
     gradient                   ...        0 min,  0.000 sec
 * total energy  :   -13.2326511 Eh     change        0.6010310E-05 Eh
   gradient norm :     0.0100608 Eh/α   predicted    -0.7019765E-04 (*******%)
   displ. norm   :     0.0190520 α      lambda       -0.1010580E-03
   maximum displ.:     0.0139825 α      in ANC's #2, #4, #8, ...

........................................................................
.............................. CYCLE   11 ..............................
........................................................................

 iter      E             dE          RMSdq      gap      omega  full diag
   1    -13.4944750 -0.134945E+02  0.659E-02    4.95       0.0  T
   2    -13.4944750  0.474853E-07  0.485E-02    4.95       1.0  T
   3    -13.4944780 -0.304883E-05  0.274E-02    4.95       1.6  T
   4    -13.4944794 -0.133518E-05  0.233E-03    4.95      19.2  T
   5    -13.4944794 -0.361314E-08  0.613E-04    4.95      73.0  T
   6    -13.4944794 -0.259366E-09  0.101E-04    4.95     444.8  T
     SCC iter.                  ...        0 min,  0.001 sec
     gradient                   ...        0 min,  0.000 sec
 * total energy  :   -13.2327075 Eh     change       -0.5638369E-04 Eh
   gradient norm :     0.0023145 Eh/α   predicted    -0.5054657E-04 ( -10.35%)
   displ. norm   :     0.0056694 α      lambda       -0.9383852E-05
   maximum displ.:     0.0034685 α      in ANC's #4, #6, #3, ...

........................................................................
.............................. CYCLE   12 ..............................
........................................................................

 iter      E             dE          RMSdq      gap      omega  full diag
   1    -13.4947479 -0.134947E+02  0.204E-02    4.96       0.0  T
   2    -13.4947479 -0.671810E-07  0.113E-02    4.95       4.0  T
   3    -13.4947477  0.176850E-06  0.800E-03    4.95       5.6  T
   4    -13.4947480 -0.237282E-06  0.960E-04    4.95      46.6  T
   5    -13.4947480 -0.244320E-08  0.396E-04    4.95     113.0  T
     SCC iter.                  ...        0 min,  0.000 sec
     gradient                   ...        0 min,  0.000 sec
 * total energy  :   -13.2327144 Eh     change       -0.6992664E-05 Eh
   gradient norm :     0.0012365 Eh/α   predicted    -0.4693750E-05 ( -32.88%)
   displ. norm   :     0.0093460 α      lambda       -0.6224522E-05
   maximum displ.:     0.0062056 α      in ANC's #6, #4, #8, ...

........................................................................
.............................. CYCLE   13 ..............................
........................................................................

 iter      E             dE          RMSdq      gap      omega  full diag
   1    -13.4944019 -0.134944E+02  0.403E-02    4.96       0.0  T
   2    -13.4944021 -0.121054E-06  0.239E-02    4.96       1.9  T
   3    -13.4944017  0.345026E-06  0.186E-02    4.96       2.4  T
   4    -13.4944028 -0.110099E-05  0.108E-03    4.96      41.6  T
   5    -13.4944028 -0.168501E-08  0.534E-04    4.96      83.8  T
   6    -13.4944028 -0.340616E-10  0.382E-05    4.96    1172.0  T
     SCC iter.                  ...        0 min,  0.001 sec
     gradient                   ...        0 min,  0.000 sec
 * total energy  :   -13.2327172 Eh     change       -0.2713473E-05 Eh
   gradient norm :     0.0005007 Eh/α   predicted    -0.3114278E-05 (  14.77%)
   displ. norm   :     0.0029771 α      lambda       -0.8424914E-06
   maximum displ.:     0.0019032 α      in ANC's #6, #4, #3, ...

   *** GEOMETRY OPTIMIZATION CONVERGED AFTER 13 ITERATIONS ***

------------------------------------------------------------------------
 total energy gain   :        -0.0475724 Eh      -29.8521 kcal/mol
 total RMSD          :         0.4840603 a0        0.2562 Å
 total power (kW/mol):        -9.6077844 (step)-6953.5474 (real)
------------------------------------------------------------------------

 ANCopt (total)                0 d,  0 h,  0 min,  0.018 sec
 optimizer setup                ...        0 min,  0.000 sec (  0.338%)
 model hessian                  ...        0 min,  0.000 sec (  0.542%)
 ANC generation                 ...        0 min,  0.000 sec (  0.358%)
 coordinate transformation      ...        0 min,  0.000 sec (  0.318%)
 single point calculation       ...        0 min,  0.016 sec ( 90.176%)
 optimization log               ...        0 min,  0.000 sec (  2.118%)
 hessian update                 ...        0 min,  0.000 sec (  0.329%)
 rational function              ...        0 min,  0.001 sec (  3.305%)

================
 final structure:
================
5
 xtb: 6.7.1 (edcfbbe)
C            0.99511547581085       -0.18356992031455        0.08620344131630
N           -0.13229748571578        0.09142952726623       -0.00126644905024
N            2.25949295690194       -0.32460722453670        0.13139454578891
C            3.02000377233687       -1.29687946446153        0.44265822401758
N            3.83357528066611       -2.08953291795346        0.69583023792746

 Bond Distances (Angstroems)
 ---------------------------
C1-N2=1.1638         C1-N3=1.2730         N2-C1=1.1638         N3-C1=1.2730         N3-C4=1.2730         C4-N3=1.2730         
C4-N5=1.1637         N5-C4=1.1637         
 N  C  Rav=1.2184 sigma=0.0546  Rmin=1.1637  Rmax=1.2730     4

 selected bond angles (degree)
 --------------------
N3-C1-N2=172.32                C4-N3-C1=133.37                N5-C4-N3=172.33                

 selected dihedral angles (degree)
 ---------------------------------
C4-N3-C1-N2=179.79            N5-C4-N3-C1=179.79            
           -------------------------------------------------
          |                Final Singlepoint                |
           -------------------------------------------------

          ...................................................
          :                      SETUP                      :
          :.................................................:
          :  # basis functions                  20          :
          :  # atomic orbitals                  20          :
          :  # shells                           10          :
          :  # electrons                        24          :
          :  max. iterations                   250          :
          :  Hamiltonian                  GFN2-xTB          :
          :  restarted?                      false          :
          :  GBSA solvation                  false          :
          :  PC potential                    false          :
          :  electronic temp.          300.0000000     K    :
          :  accuracy                    1.0000000          :
          :  -> integral cutoff          0.2500000E+02      :
          :  -> integral neglect         0.1000000E-07      :
          :  -> SCF convergence          0.1000000E-05 Eh   :
          :  -> wf. convergence          0.1000000E-03 e    :
          :  Broyden damping             0.4000000          :
          :  net charge                         -1          :
          :  unpaired electrons                  0          :
          ...................................................

 iter      E             dE          RMSdq      gap      omega  full diag
   1    -13.4944028 -0.134944E+02  0.251E-05    4.96       0.0  T
   2    -13.4944028 -0.319744E-12  0.184E-05    4.96    2428.3  T
   3    -13.4944028 -0.103917E-11  0.768E-06    4.96    5825.2  T

   *** convergence criteria satisfied after 3 iterations ***

         #    Occupation            Energy/Eh            Energy/eV
      -------------------------------------------------------------
         1        2.0000           -0.4435478             -12.0695
       ...           ...                  ...                  ...
         6        2.0000           -0.3060476              -8.3280
         7        2.0000           -0.2544981              -6.9252
         8        2.0000           -0.2537137              -6.9039
         9        2.0000           -0.2300595              -6.2602
        10        2.0000           -0.2104662              -5.7271
        11        2.0000           -0.1851305              -5.0377
        12        2.0000           -0.1737607              -4.7283 (HOMO)
        13                          0.0083532               0.2273 (LUMO)
        14                          0.0093444               0.2543
        15                          0.0648183               1.7638
        16                          0.1117102               3.0398
        17                          0.3466517               9.4329
       ...                                ...                  ...
        20                          1.4602645              39.7358
      -------------------------------------------------------------
                  HL-Gap            0.1821140 Eh            4.9556 eV
             Fermi-level           -0.0827037 Eh           -2.2505 eV

 SCC (total)                   0 d,  0 h,  0 min,  0.001 sec
 SCC setup                      ...        0 min,  0.000 sec (  4.212%)
 Dispersion                     ...        0 min,  0.000 sec (  1.360%)
 classical contributions        ...        0 min,  0.000 sec (  0.510%)
 integral evaluation            ...        0 min,  0.000 sec ( 16.983%)
 iterations                     ...        0 min,  0.000 sec ( 32.326%)
 molecular gradient             ...        0 min,  0.000 sec ( 38.225%)
 printout                       ...        0 min,  0.000 sec (  5.079%)

         :::::::::::::::::::::::::::::::::::::::::::::::::::::
         ::                     SUMMARY                     ::
         :::::::::::::::::::::::::::::::::::::::::::::::::::::
         :: total energy             -13.232717161805 Eh    ::
         :: gradient norm              0.000501287676 Eh/a0 ::
         :: HOMO-LUMO gap              4.955573397455 eV    ::
         ::.................................................::
         :: SCC energy               -13.494403329798 Eh    ::
         :: -> isotropic ES            0.153771325526 Eh    ::
         :: -> anisotropic ES          0.013891225928 Eh    ::
         :: -> anisotropic XC          0.020579991344 Eh    ::
         :: -> dispersion             -0.002901986404 Eh    ::
         :: repulsion energy           0.261686167992 Eh    ::
         :: add. restraining           0.000000000000 Eh    ::
         :: total charge              -1.000000000000 e     ::
         :::::::::::::::::::::::::::::::::::::::::::::::::::::

           -------------------------------------------------
          |                Property Printout                |
           -------------------------------------------------

    * Orbital Energies and Occupations

         #    Occupation            Energy/Eh            Energy/eV
      -------------------------------------------------------------
         1        2.0000           -0.4435478             -12.0695
         2        2.0000           -0.4289855             -11.6733
         3        2.0000           -0.4148464             -11.2885
         4        2.0000           -0.3710583             -10.0970
         5        2.0000           -0.3083169              -8.3897
         6        2.0000           -0.3060476              -8.3280
         7        2.0000           -0.2544981              -6.9252
         8        2.0000           -0.2537137              -6.9039
         9        2.0000           -0.2300595              -6.2602
        10        2.0000           -0.2104662              -5.7271
        11        2.0000           -0.1851305              -5.0377
        12        2.0000           -0.1737607              -4.7283 (HOMO)
        13                          0.0083532               0.2273 (LUMO)
        14                          0.0093444               0.2543
        15                          0.0648183               1.7638
        16                          0.1117102               3.0398
        17                          0.3466517               9.4329
        18                          0.6225686              16.9410
        19                          1.3662052              37.1763
        20                          1.4602645              39.7358
      -------------------------------------------------------------
                  HL-Gap            0.1821140 Eh            4.9556 eV
             Fermi-level           -0.0827037 Eh           -2.2505 eV

     #   Z          covCN         q      C6AA      α(0)
     1   6 C        1.857     0.158    27.325     8.444
     2   7 N        0.912    -0.499    33.254     8.340
     3   7 N        1.823    -0.318    29.086     7.991
     4   6 C        1.857     0.158    27.324     8.444
     5   7 N        0.912    -0.499    33.254     8.340

 Mol. C6AA /au·bohr⁶  :        747.721427
 Mol. C8AA /au·bohr⁸  :      18370.920550
 Mol. α(0) /au        :         41.558191


Wiberg/Mayer (AO) data.
largest (>0.10) Wiberg bond orders for each atom

 ---------------------------------------------------------------------------
     #   Z sym  total        # sym  WBO       # sym  WBO       # sym  WBO
 ---------------------------------------------------------------------------
     1   6 C    3.951 --     2 N    2.492     3 N    1.390
     2   7 N    2.885 --     1 C    2.492     3 N    0.240
     3   7 N    3.261 --     1 C    1.390     4 C    1.390     2 N    0.240
                             5 N    0.240
     4   6 C    3.951 --     5 N    2.492     3 N    1.390
     5   7 N    2.885 --     4 C    2.492     3 N    0.240
 ---------------------------------------------------------------------------

Topologies differ in total number of bonds
Writing topology from bond orders to xtbtopo.mol

molecular dipole:
                 x           y           z       tot (Debye)
 q only:       -3.649       1.637      -0.576
   full:       -3.610       1.701      -0.596      10.257
molecular quadrupole (traceless):
                xx          xy          yy          xz          yz          zz
 q only:      -22.453      19.221       6.593      -6.432       3.460      15.860
  q+dip:      -24.356      21.651       6.739      -7.205       4.039      17.617
   full:      -25.975      23.132       7.033      -7.678       4.406      18.941

           -------------------------------------------------
          |                Geometry Summary                 |
           -------------------------------------------------

      molecular mass/u    :       66.0415814
   center of mass at/Å    :        1.9944298      -0.7618656       0.2713589
  moments of inertia/u·Å² :        0.6269673E+01   0.1796946E+03   0.1859643E+03
rotational constants/cm⁻¹ :        0.2688758E+01   0.9381267E-01   0.9064983E-01

 * 4 selected distances

     #   Z          #   Z                                           value/Å
     1   6 C        2   7 N                                       1.1637594
     1   6 C        3   7 N                                       1.2730218 (max)
     3   7 N        4   6 C                                       1.2730182
     4   6 C        5   7 N                                       1.1637416 (min)

 * 1 distinct bonds (by element types)

   Z      Z             #   av. dist./Å        max./Å        min./Å
   6 C    7 N           4     1.2183852     1.2730218     1.1637416


optimized geometry written to: xtbopt.xyz


           -------------------------------------------------
          | TOTAL ENERGY              -13.232717161805 Eh   |
          | GRADIENT NORM               0.000501287676 Eh/α |
          | HOMO-LUMO GAP               4.955573397455 eV   |
           -------------------------------------------------

------------------------------------------------------------------------
 * finished run on 2024/12/20 at 01:52:46.898     
------------------------------------------------------------------------
 total:
 * wall-time:     0 d,  0 h,  0 min,  0.037 sec
 *  cpu-time:     0 d,  0 h,  0 min,  0.282 sec
 * ratio c/w:     7.656 speedup
 SCF:
 * wall-time:     0 d,  0 h,  0 min,  0.004 sec
 *  cpu-time:     0 d,  0 h,  0 min,  0.028 sec
 * ratio c/w:     7.797 speedup
 ANC optimizer:
 * wall-time:     0 d,  0 h,  0 min,  0.019 sec
 *  cpu-time:     0 d,  0 h,  0 min,  0.154 sec
 * ratio c/w:     7.978 speedup

