5
 energy: -19.814921831160 gnorm: 0.000043898976 xtb: 6.7.1 (edcfbbe)
Al           1.02144890892787       -0.04587991111939        0.08614633461416
Cl           0.31701657510101        0.31398608104754       -1.87420568303881
Cl           0.31692355720309       -1.92304678151365        0.75597767480884
Cl           0.31642902670715        1.47215787525854        1.37753097037629
Cl           3.13542193206087       -0.04597726367305        0.08603070323951
