      -----------------------------------------------------------      
     |                   =====================                   |     
     |                           x T B                           |     
     |                   =====================                   |     
     |                         S. Grimme                         |     
     |          Mulliken Center for Theoretical Chemistry        |     
     |                    University of Bonn                     |     
      -----------------------------------------------------------      

   * xtb version 6.7.1 (edcfbbe) compiled by 'conda@3ef47c1a292c' on 2024-11-25

   xtb is free software: you can redistribute it and/or modify it under
   the terms of the GNU Lesser General Public License as published by
   the Free Software Foundation, either version 3 of the License, or
   (at your option) any later version.
   
   xtb is distributed in the hope that it will be useful,
   but WITHOUT ANY WARRANTY; without even the implied warranty of
   MERCHANTABILITY or FITNESS FOR A PARTICULAR PURPOSE.  See the
   GNU Lesser General Public License for more details.
   
   Cite this work as:
   * C. Bannwarth, E. Caldeweyher, S. Ehlert, A. Hansen, P. Pracht,
     J. Seibert, S. Spicher, S. Grimme, WIREs Comput. Mol. Sci., 2020, 11,
     e01493. DOI: 10.1002/wcms.1493
   
   for GFN2-xTB:
   * C. Bannwarth, S. Ehlert and S. Grimme., J. Chem. Theory Comput., 2019,
     15, 1652-1671. DOI: 10.1021/acs.jctc.8b01176
   for GFN1-xTB:
   * S. Grimme, C. Bannwarth, P. Shushkov, J. Chem. Theory Comput., 2017,
     13, 1989-2009. DOI: 10.1021/acs.jctc.7b00118
   for GFN0-xTB:
   * P. Pracht, E. Caldeweyher, S. Ehlert, S. Grimme, ChemRxiv, 2019, preprint.
     DOI: 10.26434/chemrxiv.8326202.v1
   for GFN-FF:
   * S. Spicher and S. Grimme, Angew. Chem. Int. Ed., 2020, 59, 15665-15673.
     DOI: 10.1002/anie.202004239
   
   for ALPB and GBSA implicit solvation:
   * S. Ehlert, M. Stahn, S. Spicher, S. Grimme, J. Chem. Theory Comput.,
     2021, 17, 4250-4261. DOI: 10.1021/acs.jctc.1c00471
   
   for ddCOSMO and CPCM-X implicit solvation:
   * M. Stahn, S. Ehlert, S. Grimme, J. Phys. Chem. A,
     2023, XX, XXXX-XXXX. DOI: 10.1021/acs.jpca.3c04382
   
   for DFT-D4:
   * E. Caldeweyher, C. Bannwarth and S. Grimme, J. Chem. Phys., 2017,
     147, 034112. DOI: 10.1063/1.4993215
   * E. Caldeweyher, S. Ehlert, A. Hansen, H. Neugebauer, S. Spicher,
     C. Bannwarth and S. Grimme, J. Chem. Phys., 2019, 150, 154122.
     DOI: 10.1063/1.5090222
   * E. Caldeweyher, J.-M. Mewes, S. Ehlert and S. Grimme, Phys. Chem. Chem. Phys.
     2020, 22, 8499-8512. DOI: 10.1039/D0CP00502A
   
   for sTDA-xTB:
   * S. Grimme and C. Bannwarth, J. Chem. Phys., 2016, 145, 054103.
     DOI: 10.1063/1.4959605
   
   in the mass-spec context:
   * V. Asgeirsson, C. Bauer and S. Grimme, Chem. Sci., 2017, 8, 4879.
     DOI: 10.1039/c7sc00601b
   * J. Koopman and S. Grimme, ACS Omega 2019, 4, 12, 15120-15133.
     DOI: 10.1021/acsomega.9b02011
   
   for metadynamics refer to:
   * S. Grimme, J. Chem. Theory Comput., 2019, 155, 2847-2862
     DOI: 10.1021/acs.jctc.9b00143
   
   for SPH calculations refer to:
   * S. Spicher and S. Grimme, J. Chem. Theory Comput., 2021, 17, 1701-1714
     DOI: 10.1021/acs.jctc.0c01306
   
   for ONIOM refer to:
   * C. Plett, A. Katbashev, S. Ehlert, S. Grimme, M. Bursch,
     Phys. Chem. Chem. Phys., 2023, 25, 17860-17868. DOI: 10.1039/D3CP02178E
   
   for DIPRO refer to:
   * J. Kohn, N. Gildemeister, S. Grimme, D. Fazzi, A. Hansen,
     J. Chem. Phys., 2023, just accepted.
   
   for PTB refer to:
   * S. Grimme, M. Mueller, A. Hansen, J. Chem. Phys., 2023, 158, 124111.
     DOI: 10.1063/5.0137838
   
   with help from (in alphabetical order)
   P. Atkinson, C. Bannwarth, F. Bohle, G. Brandenburg, E. Caldeweyher
   M. Checinski, S. Dohm, S. Ehlert, S. Ehrlich, I. Gerasimov, C. Hölzer
   A. Katbashev, J. Kohn, J. Koopman, C. Lavigne, S. Lehtola, F. März, M. Müller,
   F. Musil, H. Neugebauer, J. Pisarek, C. Plett, P. Pracht, F. Pultar,
   J. Seibert, P. Shushkov, S. Spicher, M. Stahn, M. Steiner, T. Strunk,
   J. Stückrath, T. Rose, and J. Unsleber
   
 * started run on 2024/12/20 at 01:52:47.061     
   ID    Z sym.   atoms
    1   13 Al     1
    2   17 Cl     2-5

           -------------------------------------------------
          |                Calculation Setup                |
           -------------------------------------------------

          program call               : xtb A048.xyz --opt --namespace A048 --charge -1
          calculation namespace      : A048
          coordinate file            : A048.xyz
          omp threads                :                     8


           -------------------------------------------------
          |                 G F N 2 - x T B                 |
           -------------------------------------------------

        Reference                      10.1021/acs.jctc.8b01176
      * Hamiltonian:
        H0-scaling (s, p, d)           1.850000    2.230000    2.230000
        zeta-weighting                 0.500000
      * Dispersion:
        s8                             2.700000
        a1                             0.520000
        a2                             5.000000
        s9                             5.000000
      * Repulsion:
        kExp                           1.500000    1.000000
        rExp                           1.000000
      * Coulomb:
        alpha                          2.000000
        third order                    shell-resolved
        anisotropic                    true
        a3                             3.000000
        a5                             4.000000
        cn-shift                       1.200000
        cn-exp                         4.000000
        max-rad                        5.000000


          ...................................................
          :                      SETUP                      :
          :.................................................:
          :  # basis functions                  50          :
          :  # atomic orbitals                  45          :
          :  # shells                           15          :
          :  # electrons                        32          :
          :  max. iterations                   250          :
          :  Hamiltonian                  GFN2-xTB          :
          :  restarted?                      false          :
          :  GBSA solvation                  false          :
          :  PC potential                    false          :
          :  electronic temp.          300.0000000     K    :
          :  accuracy                    1.0000000          :
          :  -> integral cutoff          0.2500000E+02      :
          :  -> integral neglect         0.1000000E-07      :
          :  -> SCF convergence          0.1000000E-05 Eh   :
          :  -> wf. convergence          0.1000000E-03 e    :
          :  Broyden damping             0.4000000          :
          :  net charge                         -1          :
          :  unpaired electrons                  0          :
          ...................................................

 iter      E             dE          RMSdq      gap      omega  full diag
   1    -19.7085876 -0.197086E+02  0.814E+00    8.62       0.0  T
   2    -19.8008836 -0.922960E-01  0.443E+00    7.74       1.0  T
   3    -19.8141590 -0.132754E-01  0.154E+00    7.29       1.0  T
   4    -19.8146586 -0.499564E-03  0.904E-01    7.02       1.0  T
   5    -19.8113231  0.333554E-02  0.923E-01    7.49       1.0  T
   6    -19.8146217 -0.329862E-02  0.375E-01    7.02       1.0  T
   7    -19.8151644 -0.542719E-03  0.146E-01    7.09       1.0  T
   8    -19.8151534  0.110308E-04  0.143E-01    7.09       1.0  T
   9    -19.8152450 -0.916538E-04  0.152E-02    7.15       2.9  T
  10    -19.8152458 -0.812633E-06  0.389E-03    7.14      11.5  T
  11    -19.8152459 -0.500675E-07  0.188E-03    7.14      23.7  T
  12    -19.8152459 -0.156405E-07  0.905E-06    7.14    4941.4  T
  13    -19.8152459 -0.369482E-12  0.114E-06    7.14   39204.7  T

   *** convergence criteria satisfied after 13 iterations ***

         #    Occupation            Energy/Eh            Energy/eV
      -------------------------------------------------------------
         1        2.0000           -0.9050011             -24.6263
       ...           ...                  ...                  ...
        10        2.0000           -0.2963705              -8.0647
        11        2.0000           -0.2877682              -7.8306
        12        2.0000           -0.2877680              -7.8306
        13        2.0000           -0.2877678              -7.8306
        14        2.0000           -0.2797191              -7.6115
        15        2.0000           -0.2797189              -7.6115
        16        2.0000           -0.2797185              -7.6115 (HOMO)
        17                         -0.0173126              -0.4711 (LUMO)
        18                          0.0315781               0.8593
        19                          0.0315787               0.8593
        20                          0.0315793               0.8593
        21                          0.1248680               3.3978
       ...                                ...                  ...
        45                          0.8909410              24.2437
      -------------------------------------------------------------
                  HL-Gap            0.2624059 Eh            7.1404 eV
             Fermi-level           -0.1485156 Eh           -4.0413 eV

 SCC (total)                   0 d,  0 h,  0 min,  0.010 sec
 SCC setup                      ...        0 min,  0.000 sec (  0.878%)
 Dispersion                     ...        0 min,  0.000 sec (  0.192%)
 classical contributions        ...        0 min,  0.000 sec (  0.254%)
 integral evaluation            ...        0 min,  0.002 sec ( 19.820%)
 iterations                     ...        0 min,  0.006 sec ( 59.800%)
 molecular gradient             ...        0 min,  0.002 sec ( 17.945%)
 printout                       ...        0 min,  0.000 sec (  0.966%)

         :::::::::::::::::::::::::::::::::::::::::::::::::::::
         ::                     SUMMARY                     ::
         :::::::::::::::::::::::::::::::::::::::::::::::::::::
         :: total energy             -19.803988002346 Eh    ::
         :: gradient norm              0.045058312267 Eh/a0 ::
         :: HOMO-LUMO gap              7.140429029774 eV    ::
         ::.................................................::
         :: SCC energy               -19.815240056921 Eh    ::
         :: -> isotropic ES            0.146671853043 Eh    ::
         :: -> anisotropic ES         -0.004730099906 Eh    ::
         :: -> anisotropic XC         -0.001873107035 Eh    ::
         :: -> dispersion             -0.006069991327 Eh    ::
         :: repulsion energy           0.011252054576 Eh    ::
         :: add. restraining           0.000000000000 Eh    ::
         :: total charge              -1.000000000000 e     ::
         :::::::::::::::::::::::::::::::::::::::::::::::::::::

      ----------------------------------------------------------- 
     |                   =====================                   |
     |                        A N C O P T                        |
     |                   =====================                   |
     |               Approximate Normal Coordinate               |
     |                Rational Function Optimizer                |
      ----------------------------------------------------------- 
      ----------------------------------------------------------- 
     |                   =====================                   |
     |                        A N C O P T                        |
     |                   =====================                   |
     |               Approximate Normal Coordinate               |
     |                Rational Function Optimizer                |
      ----------------------------------------------------------- 

          ...................................................
          :                      SETUP                      :
          :.................................................:
          :   optimization level            normal          :
          :   max. optcycles                   200          :
          :   ANC micro-cycles                  20          :
          :   degrees of freedom                 9          :
          :.................................................:
          :   RF solver                   davidson          :
          :   write xtbopt.log                true          :
          :   linear?                        false          :
          :   energy convergence         0.5000000E-05 Eh   :
          :   grad. convergence          0.1000000E-02 Eh/α :
          :   maxmium RF displ.          1.0000000          :
          :   Hlow (freq-cutoff)         0.1000000E-01      :
          :   Hmax (freq-cutoff)         5.0000000          :
          :   S6 in model hess.         20.0000000          :
          ...................................................

generating ANC from exact Hessian ...
Using Lindh-Hessian (1995)
 Shifting diagonal of input Hessian by    8.9225891713237918E-003
 Lowest  eigenvalues of input Hessian
    0.000000    0.000000    0.000000    0.000000    0.000000    0.000000
    0.010000    0.010000    0.010847    0.010847    0.010847    0.082846
    0.176461    0.176465    0.176471
 Highest eigenvalues
    0.010847    0.010847    0.082846    0.176461    0.176465    0.176471


........................................................................
.............................. CYCLE    1 ..............................
........................................................................

 iter      E             dE          RMSdq      gap      omega  full diag
   1    -19.8152459 -0.198152E+02  0.727E-07    7.14       0.0  T
   2    -19.8152459 -0.142109E-13  0.388E-07    7.14  100000.0  T
   3    -19.8152459 -0.106581E-13  0.304E-07    7.14  100000.0  T
     SCC iter.                  ...        0 min,  0.001 sec
     gradient                   ...        0 min,  0.001 sec
 * total energy  :   -19.8039880 Eh     change       -0.3907985E-13 Eh
   gradient norm :     0.0450581 Eh/α   predicted     0.0000000E+00 (-100.00%)
   displ. norm   :     0.4390593 α      lambda       -0.1978273E-01
   maximum displ.:     0.4390395 α      in ANC's #6, #2, #3, ...

........................................................................
.............................. CYCLE    2 ..............................
........................................................................

 iter      E             dE          RMSdq      gap      omega  full diag
   1    -19.8397207 -0.198397E+02  0.757E-01    9.31       0.0  T
   2    -19.8407647 -0.104398E-02  0.414E-01    9.13       1.0  T
   3    -19.8408956 -0.130983E-03  0.220E-01    9.11       1.0  T
   4    -19.8409199 -0.242356E-04  0.150E-01    9.08       1.0  T
   5    -19.8409331 -0.132271E-04  0.398E-02    9.08       1.1  T
   6    -19.8409335 -0.400452E-06  0.981E-03    9.08       4.6  T
   7    -19.8409338 -0.286041E-06  0.282E-03    9.08      15.9  T
   8    -19.8409338 -0.615688E-08  0.186E-04    9.08     239.8  T
   9    -19.8409338 -0.557208E-10  0.520E-05    9.08     860.3  T
     SCC iter.                  ...        0 min,  0.003 sec
     gradient                   ...        0 min,  0.001 sec
 * total energy  :   -19.8149217 Eh     change       -0.1093371E-01 Eh
   gradient norm :     0.0000966 Eh/α   predicted    -0.1179816E-01 (   7.91%)
   displ. norm   :     0.0101242 α      lambda       -0.5124383E-06
   maximum displ.:     0.0077560 α      in ANC's #3, #2, #4, ...

........................................................................
.............................. CYCLE    3 ..............................
........................................................................

 iter      E             dE          RMSdq      gap      omega  full diag
   1    -19.8409027 -0.198409E+02  0.266E-02    9.07       0.0  T
   2    -19.8409028 -0.130322E-06  0.208E-02    9.07       2.2  T
   3    -19.8409028 -0.846193E-08  0.111E-02    9.07       4.0  T
   4    -19.8409028 -0.640195E-08  0.139E-03    9.07      32.1  T
   5    -19.8409028 -0.166306E-08  0.618E-04    9.07      72.4  T
   6    -19.8409028 -0.433875E-09  0.348E-04    9.07     128.7  T
     SCC iter.                  ...        0 min,  0.002 sec
     gradient                   ...        0 min,  0.002 sec
 * total energy  :   -19.8149213 Eh     change        0.4188238E-06 Eh
   gradient norm :     0.0001858 Eh/α   predicted    -0.2552804E-06 (-160.95%)
   displ. norm   :     0.0067291 α      lambda       -0.7797181E-06
   maximum displ.:     0.0063566 α      in ANC's #3, #4, #5, ...

........................................................................
.............................. CYCLE    4 ..............................
........................................................................

 iter      E             dE          RMSdq      gap      omega  full diag
   1    -19.8409085 -0.198409E+02  0.200E-02    9.08       0.0  T
   2    -19.8409086 -0.791868E-07  0.159E-02    9.08       2.8  T
   3    -19.8409086 -0.549810E-08  0.860E-03    9.08       5.2  T
   4    -19.8409086 -0.422695E-08  0.117E-03    9.08      38.1  T
   5    -19.8409086 -0.134749E-08  0.321E-04    9.08     139.1  T
   6    -19.8409086 -0.553051E-10  0.147E-04    9.08     303.8  T
     SCC iter.                  ...        0 min,  0.002 sec
     gradient                   ...        0 min,  0.001 sec
 * total energy  :   -19.8149218 Eh     change       -0.5367722E-06 Eh
   gradient norm :     0.0000435 Eh/α   predicted    -0.3910489E-06 ( -27.15%)
   displ. norm   :     0.0032182 α      lambda       -0.5791354E-07
   maximum displ.:     0.0030478 α      in ANC's #2, #3, #1, ...

   *** GEOMETRY OPTIMIZATION CONVERGED AFTER 4 ITERATIONS ***

------------------------------------------------------------------------
 total energy gain   :        -0.0109338 Eh       -6.8611 kcal/mol
 total RMSD          :         0.1961155 a0        0.1038 Å
 total power (kW/mol):        -7.1766909 (step)-1459.0880 (real)
------------------------------------------------------------------------

 ANCopt (total)                0 d,  0 h,  0 min,  0.020 sec
 optimizer setup                ...        0 min,  0.000 sec (  0.289%)
 model hessian                  ...        0 min,  0.000 sec (  0.595%)
 ANC generation                 ...        0 min,  0.000 sec (  0.360%)
 coordinate transformation      ...        0 min,  0.000 sec (  0.093%)
 single point calculation       ...        0 min,  0.019 sec ( 95.285%)
 optimization log               ...        0 min,  0.000 sec (  0.651%)
 hessian update                 ...        0 min,  0.000 sec (  0.197%)
 rational function              ...        0 min,  0.000 sec (  1.642%)

================
 final structure:
================
5
 xtb: 6.7.1 (edcfbbe)
Al           1.02144890892787       -0.04587991111939        0.08614633461416
Cl           0.31701657510101        0.31398608104754       -1.87420568303881
Cl           0.31692355720309       -1.92304678151365        0.75597767480884
Cl           0.31642902670715        1.47215787525854        1.37753097037629
Cl           3.13542193206087       -0.04597726367305        0.08603070323951

 Bond Distances (Angstroems)
 ---------------------------
Al1-Cl2=2.1139       Al1-Cl3=2.1140       Al1-Cl4=2.1140       Al1-Cl5=2.1140       Cl2-Al1=2.1139       Cl3-Al1=2.1140       
Cl4-Al1=2.1140       Cl5-Al1=2.1140       
 Cl Al Rav=2.1140 sigma=0.0000  Rmin=2.1139  Rmax=2.1140     4

 selected bond angles (degree)
 --------------------
Cl3-Al1-Cl2=109.51             Cl4-Al1-Cl2=109.46             Cl4-Al1-Cl3=109.45             Cl5-Al1-Cl2=109.46             
Cl5-Al1-Cl3=109.47             Cl5-Al1-Cl4=109.49             

 selected dihedral angles (degree)
 ---------------------------------

           -------------------------------------------------
          |                Final Singlepoint                |
           -------------------------------------------------

          ...................................................
          :                      SETUP                      :
          :.................................................:
          :  # basis functions                  50          :
          :  # atomic orbitals                  45          :
          :  # shells                           15          :
          :  # electrons                        32          :
          :  max. iterations                   250          :
          :  Hamiltonian                  GFN2-xTB          :
          :  restarted?                      false          :
          :  GBSA solvation                  false          :
          :  PC potential                    false          :
          :  electronic temp.          300.0000000     K    :
          :  accuracy                    1.0000000          :
          :  -> integral cutoff          0.2500000E+02      :
          :  -> integral neglect         0.1000000E-07      :
          :  -> SCF convergence          0.1000000E-05 Eh   :
          :  -> wf. convergence          0.1000000E-03 e    :
          :  Broyden damping             0.4000000          :
          :  net charge                         -1          :
          :  unpaired electrons                  0          :
          ...................................................

 iter      E             dE          RMSdq      gap      omega  full diag
   1    -19.8409086 -0.198409E+02  0.427E-05    9.08       0.0  T
   2    -19.8409086 -0.125411E-11  0.352E-05    9.08    1270.2  T
   3    -19.8409086 -0.149925E-11  0.267E-05    9.08    1676.3  T

   *** convergence criteria satisfied after 3 iterations ***

         #    Occupation            Energy/Eh            Energy/eV
      -------------------------------------------------------------
         1        2.0000           -0.9031799             -24.5768
       ...           ...                  ...                  ...
        10        2.0000           -0.2972870              -8.0896
        11        2.0000           -0.2829028              -7.6982
        12        2.0000           -0.2828927              -7.6979
        13        2.0000           -0.2828823              -7.6976
        14        2.0000           -0.2764228              -7.5218
        15        2.0000           -0.2764130              -7.5216
        16        2.0000           -0.2764109              -7.5215 (HOMO)
        17                          0.0571600               1.5554 (LUMO)
        18                          0.0693760               1.8878
        19                          0.0694178               1.8890
        20                          0.0694580               1.8900
        21                          0.1416074               3.8533
       ...                                ...                  ...
        45                          1.1648288              31.6966
      -------------------------------------------------------------
                  HL-Gap            0.3335709 Eh            9.0769 eV
             Fermi-level           -0.1096255 Eh           -2.9831 eV

 SCC (total)                   0 d,  0 h,  0 min,  0.004 sec
 SCC setup                      ...        0 min,  0.000 sec (  1.163%)
 Dispersion                     ...        0 min,  0.000 sec (  0.278%)
 classical contributions        ...        0 min,  0.000 sec (  0.134%)
 integral evaluation            ...        0 min,  0.001 sec ( 20.472%)
 iterations                     ...        0 min,  0.001 sec ( 31.479%)
 molecular gradient             ...        0 min,  0.002 sec ( 44.481%)
 printout                       ...        0 min,  0.000 sec (  1.629%)

         :::::::::::::::::::::::::::::::::::::::::::::::::::::
         ::                     SUMMARY                     ::
         :::::::::::::::::::::::::::::::::::::::::::::::::::::
         :: total energy             -19.814921831160 Eh    ::
         :: gradient norm              0.000043898976 Eh/a0 ::
         :: HOMO-LUMO gap              9.076927038582 eV    ::
         ::.................................................::
         :: SCC energy               -19.840904591725 Eh    ::
         :: -> isotropic ES            0.156811312671 Eh    ::
         :: -> anisotropic ES         -0.007332640031 Eh    ::
         :: -> anisotropic XC         -0.004077649607 Eh    ::
         :: -> dispersion             -0.006342092449 Eh    ::
         :: repulsion energy           0.025982760566 Eh    ::
         :: add. restraining           0.000000000000 Eh    ::
         :: total charge              -1.000000000000 e     ::
         :::::::::::::::::::::::::::::::::::::::::::::::::::::

           -------------------------------------------------
          |                Property Printout                |
           -------------------------------------------------

    * Orbital Energies and Occupations

         #    Occupation            Energy/Eh            Energy/eV
      -------------------------------------------------------------
         1        2.0000           -0.9031799             -24.5768
       ...           ...                  ...                  ...
         4        2.0000           -0.8997716             -24.4840
         5        2.0000           -0.3758048             -10.2262
         6        2.0000           -0.3039965              -8.2722
         7        2.0000           -0.3039819              -8.2718
         8        2.0000           -0.2972984              -8.0899
         9        2.0000           -0.2972955              -8.0898
        10        2.0000           -0.2972870              -8.0896
        11        2.0000           -0.2829028              -7.6982
        12        2.0000           -0.2828927              -7.6979
        13        2.0000           -0.2828823              -7.6976
        14        2.0000           -0.2764228              -7.5218
        15        2.0000           -0.2764130              -7.5216
        16        2.0000           -0.2764109              -7.5215 (HOMO)
        17                          0.0571600               1.5554 (LUMO)
        18                          0.0693760               1.8878
        19                          0.0694178               1.8890
        20                          0.0694580               1.8900
        21                          0.1416074               3.8533
        22                          0.1416394               3.8542
        23                          0.1781051               4.8465
        24                          0.1781107               4.8466
        25                          0.1781177               4.8468
        26                          0.1816346               4.9425
        27                          0.1816410               4.9427
       ...                                ...                  ...
        45                          1.1648288              31.6966
      -------------------------------------------------------------
                  HL-Gap            0.3335709 Eh            9.0769 eV
             Fermi-level           -0.1096255 Eh           -2.9831 eV

     #   Z          covCN         q      C6AA      α(0)
     1  13 Al       3.069     0.425    92.141    19.561
     2  17 Cl       0.769    -0.356   110.481    16.079
     3  17 Cl       0.769    -0.356   110.481    16.079
     4  17 Cl       0.769    -0.356   110.485    16.079
     5  17 Cl       0.769    -0.356   110.482    16.079

 Mol. C6AA /au·bohr⁶  :       2627.990361
 Mol. C8AA /au·bohr⁸  :     131160.139732
 Mol. α(0) /au        :         83.875230


Wiberg/Mayer (AO) data.
largest (>0.10) Wiberg bond orders for each atom

 ---------------------------------------------------------------------------
     #   Z sym  total        # sym  WBO       # sym  WBO       # sym  WBO
 ---------------------------------------------------------------------------
     1  13 Al   4.066 --     2 Cl   1.017     3 Cl   1.017     5 Cl   1.017
                             4 Cl   1.016
     2  17 Cl   1.138 --     1 Al   1.017
     3  17 Cl   1.138 --     1 Al   1.017
     4  17 Cl   1.138 --     1 Al   1.016
     5  17 Cl   1.138 --     1 Al   1.017
 ---------------------------------------------------------------------------

Topologies differ in total number of bonds
Writing topology from bond orders to xtbtopo.mol

molecular dipole:
                 x           y           z       tot (Debye)
 q only:       -1.930       0.086      -0.164
   full:       -1.930       0.086      -0.164       4.929
molecular quadrupole (traceless):
                xx          xy          yy          xz          yz          zz
 q only:       -3.709       0.252       1.870      -0.470       0.025       1.839
  q+dip:       -3.709       0.253       1.870      -0.470       0.024       1.839
   full:       -3.709       0.253       1.870      -0.469       0.025       1.839

           -------------------------------------------------
          |                Geometry Summary                 |
           -------------------------------------------------

      molecular mass/u    :      168.7932888
   center of mass at/Å    :        1.0214480      -0.0457456       0.0863035
  moments of inertia/u·Å² :        0.4223963E+03   0.4224553E+03   0.4226295E+03
rotational constants/cm⁻¹ :        0.3990951E-01   0.3990394E-01   0.3988750E-01

 * 4 selected distances

     #   Z          #   Z                                           value/Å
     1  13 Al       2  17 Cl                                      2.1139322 (min)
     1  13 Al       3  17 Cl                                      2.1139504
     1  13 Al       4  17 Cl                                      2.1140404 (max)
     1  13 Al       5  17 Cl                                      2.1139732

 * 1 distinct bonds (by element types)

   Z      Z             #   av. dist./Å        max./Å        min./Å
  13 Al  17 Cl          4     2.1139741     2.1140404     2.1139322


optimized geometry written to: xtbopt.xyz


           -------------------------------------------------
          | TOTAL ENERGY              -19.814921831160 Eh   |
          | GRADIENT NORM               0.000043898976 Eh/α |
          | HOMO-LUMO GAP               9.076927038582 eV   |
           -------------------------------------------------

------------------------------------------------------------------------
 * finished run on 2024/12/20 at 01:52:47.110     
------------------------------------------------------------------------
 total:
 * wall-time:     0 d,  0 h,  0 min,  0.049 sec
 *  cpu-time:     0 d,  0 h,  0 min,  0.376 sec
 * ratio c/w:     7.684 speedup
 SCF:
 * wall-time:     0 d,  0 h,  0 min,  0.010 sec
 *  cpu-time:     0 d,  0 h,  0 min,  0.080 sec
 * ratio c/w:     7.888 speedup
 ANC optimizer:
 * wall-time:     0 d,  0 h,  0 min,  0.024 sec
 *  cpu-time:     0 d,  0 h,  0 min,  0.190 sec
 * ratio c/w:     7.997 speedup

