      -----------------------------------------------------------      
     |                   =====================                   |     
     |                           x T B                           |     
     |                   =====================                   |     
     |                         S. Grimme                         |     
     |          Mulliken Center for Theoretical Chemistry        |     
     |                    University of Bonn                     |     
      -----------------------------------------------------------      

   * xtb version 6.7.1 (edcfbbe) compiled by 'conda@3ef47c1a292c' on 2024-11-25

   xtb is free software: you can redistribute it and/or modify it under
   the terms of the GNU Lesser General Public License as published by
   the Free Software Foundation, either version 3 of the License, or
   (at your option) any later version.
   
   xtb is distributed in the hope that it will be useful,
   but WITHOUT ANY WARRANTY; without even the implied warranty of
   MERCHANTABILITY or FITNESS FOR A PARTICULAR PURPOSE.  See the
   GNU Lesser General Public License for more details.
   
   Cite this work as:
   * C. Bannwarth, E. Caldeweyher, S. Ehlert, A. Hansen, P. Pracht,
     J. Seibert, S. Spicher, S. Grimme, WIREs Comput. Mol. Sci., 2020, 11,
     e01493. DOI: 10.1002/wcms.1493
   
   for GFN2-xTB:
   * C. Bannwarth, S. Ehlert and S. Grimme., J. Chem. Theory Comput., 2019,
     15, 1652-1671. DOI: 10.1021/acs.jctc.8b01176
   for GFN1-xTB:
   * S. Grimme, C. Bannwarth, P. Shushkov, J. Chem. Theory Comput., 2017,
     13, 1989-2009. DOI: 10.1021/acs.jctc.7b00118
   for GFN0-xTB:
   * P. Pracht, E. Caldeweyher, S. Ehlert, S. Grimme, ChemRxiv, 2019, preprint.
     DOI: 10.26434/chemrxiv.8326202.v1
   for GFN-FF:
   * S. Spicher and S. Grimme, Angew. Chem. Int. Ed., 2020, 59, 15665-15673.
     DOI: 10.1002/anie.202004239
   
   for ALPB and GBSA implicit solvation:
   * S. Ehlert, M. Stahn, S. Spicher, S. Grimme, J. Chem. Theory Comput.,
     2021, 17, 4250-4261. DOI: 10.1021/acs.jctc.1c00471
   
   for ddCOSMO and CPCM-X implicit solvation:
   * M. Stahn, S. Ehlert, S. Grimme, J. Phys. Chem. A,
     2023, XX, XXXX-XXXX. DOI: 10.1021/acs.jpca.3c04382
   
   for DFT-D4:
   * E. Caldeweyher, C. Bannwarth and S. Grimme, J. Chem. Phys., 2017,
     147, 034112. DOI: 10.1063/1.4993215
   * E. Caldeweyher, S. Ehlert, A. Hansen, H. Neugebauer, S. Spicher,
     C. Bannwarth and S. Grimme, J. Chem. Phys., 2019, 150, 154122.
     DOI: 10.1063/1.5090222
   * E. Caldeweyher, J.-M. Mewes, S. Ehlert and S. Grimme, Phys. Chem. Chem. Phys.
     2020, 22, 8499-8512. DOI: 10.1039/D0CP00502A
   
   for sTDA-xTB:
   * S. Grimme and C. Bannwarth, J. Chem. Phys., 2016, 145, 054103.
     DOI: 10.1063/1.4959605
   
   in the mass-spec context:
   * V. Asgeirsson, C. Bauer and S. Grimme, Chem. Sci., 2017, 8, 4879.
     DOI: 10.1039/c7sc00601b
   * J. Koopman and S. Grimme, ACS Omega 2019, 4, 12, 15120-15133.
     DOI: 10.1021/acsomega.9b02011
   
   for metadynamics refer to:
   * S. Grimme, J. Chem. Theory Comput., 2019, 155, 2847-2862
     DOI: 10.1021/acs.jctc.9b00143
   
   for SPH calculations refer to:
   * S. Spicher and S. Grimme, J. Chem. Theory Comput., 2021, 17, 1701-1714
     DOI: 10.1021/acs.jctc.0c01306
   
   for ONIOM refer to:
   * C. Plett, A. Katbashev, S. Ehlert, S. Grimme, M. Bursch,
     Phys. Chem. Chem. Phys., 2023, 25, 17860-17868. DOI: 10.1039/D3CP02178E
   
   for DIPRO refer to:
   * J. Kohn, N. Gildemeister, S. Grimme, D. Fazzi, A. Hansen,
     J. Chem. Phys., 2023, just accepted.
   
   for PTB refer to:
   * S. Grimme, M. Mueller, A. Hansen, J. Chem. Phys., 2023, 158, 124111.
     DOI: 10.1063/5.0137838
   
   with help from (in alphabetical order)
   P. Atkinson, C. Bannwarth, F. Bohle, G. Brandenburg, E. Caldeweyher
   M. Checinski, S. Dohm, S. Ehlert, S. Ehrlich, I. Gerasimov, C. Hölzer
   A. Katbashev, J. Kohn, J. Koopman, C. Lavigne, S. Lehtola, F. März, M. Müller,
   F. Musil, H. Neugebauer, J. Pisarek, C. Plett, P. Pracht, F. Pultar,
   J. Seibert, P. Shushkov, S. Spicher, M. Stahn, M. Steiner, T. Strunk,
   J. Stückrath, T. Rose, and J. Unsleber
   
 * started run on 2024/12/20 at 01:52:47.396     
   ID    Z sym.   atoms
    1    9 F      1, 12-18
    2    6 C      2, 3, 9-11
    3    8 O      4, 6-8
    4   16 S      5
    5    1 H      19-21

           -------------------------------------------------
          |                Calculation Setup                |
           -------------------------------------------------

          program call               : xtb A049.xyz --opt --namespace A049 --charge -1
          calculation namespace      : A049
          coordinate file            : A049.xyz
          omp threads                :                     8


           -------------------------------------------------
          |                 G F N 2 - x T B                 |
           -------------------------------------------------

        Reference                      10.1021/acs.jctc.8b01176
      * Hamiltonian:
        H0-scaling (s, p, d)           1.850000    2.230000    2.230000
        zeta-weighting                 0.500000
      * Dispersion:
        s8                             2.700000
        a1                             0.520000
        a2                             5.000000
        s9                             5.000000
      * Repulsion:
        kExp                           1.500000    1.000000
        rExp                           1.000000
      * Coulomb:
        alpha                          2.000000
        third order                    shell-resolved
        anisotropic                    true
        a3                             3.000000
        a5                             4.000000
        cn-shift                       1.200000
        cn-exp                         4.000000
        max-rad                        5.000000


          ...................................................
          :                      SETUP                      :
          :.................................................:
          :  # basis functions                  81          :
          :  # atomic orbitals                  80          :
          :  # shells                           40          :
          :  # electrons                       110          :
          :  max. iterations                   250          :
          :  Hamiltonian                  GFN2-xTB          :
          :  restarted?                      false          :
          :  GBSA solvation                  false          :
          :  PC potential                    false          :
          :  electronic temp.          300.0000000     K    :
          :  accuracy                    1.0000000          :
          :  -> integral cutoff          0.2500000E+02      :
          :  -> integral neglect         0.1000000E-07      :
          :  -> SCF convergence          0.1000000E-05 Eh   :
          :  -> wf. convergence          0.1000000E-03 e    :
          :  Broyden damping             0.4000000          :
          :  net charge                         -1          :
          :  unpaired electrons                  0          :
          ...................................................

 iter      E             dE          RMSdq      gap      omega  full diag
   1    -69.9804736 -0.699805E+02  0.708E+00    8.49       0.0  T
   2    -70.1092855 -0.128812E+00  0.393E+00    7.87       1.0  T
   3    -70.1163839 -0.709849E-02  0.155E+00    6.60       1.0  T
   4    -70.1231239 -0.673998E-02  0.416E-01    5.60       1.0  T
   5    -70.1235842 -0.460295E-03  0.227E-01    5.69       1.0  T
   6    -70.1237718 -0.187540E-03  0.111E-01    5.77       1.0  T
   7    -70.1238241 -0.523253E-04  0.426E-02    5.78       1.0  T
   8    -70.1238334 -0.927901E-05  0.134E-02    5.79       1.6  T
   9    -70.1238339 -0.521087E-06  0.503E-03    5.78       4.3  T
  10    -70.1238340 -0.918682E-07  0.162E-03    5.78      13.5  T
  11    -70.1238340 -0.540084E-08  0.549E-04    5.78      39.8  T
  12    -70.1238340 -0.895824E-09  0.219E-04    5.78      99.7  T

   *** convergence criteria satisfied after 12 iterations ***

         #    Occupation            Energy/Eh            Energy/eV
      -------------------------------------------------------------
         1        2.0000           -0.8126558             -22.1135
       ...           ...                  ...                  ...
        49        2.0000           -0.3224973              -8.7756
        50        2.0000           -0.2834540              -7.7132
        51        2.0000           -0.2779031              -7.5621
        52        2.0000           -0.2730401              -7.4298
        53        2.0000           -0.2629965              -7.1565
        54        2.0000           -0.2611966              -7.1075
        55        2.0000           -0.2492546              -6.7826 (HOMO)
        56                         -0.0367222              -0.9993 (LUMO)
        57                          0.0013040               0.0355
        58                          0.0198945               0.5414
        59                          0.0483009               1.3143
        60                          0.0573500               1.5606
       ...                                ...                  ...
        80                          1.3490077              36.7084
      -------------------------------------------------------------
                  HL-Gap            0.2125324 Eh            5.7833 eV
             Fermi-level           -0.1429884 Eh           -3.8909 eV

 SCC (total)                   0 d,  0 h,  0 min,  0.018 sec
 SCC setup                      ...        0 min,  0.000 sec (  0.776%)
 Dispersion                     ...        0 min,  0.000 sec (  0.762%)
 classical contributions        ...        0 min,  0.000 sec (  0.204%)
 integral evaluation            ...        0 min,  0.002 sec ( 13.749%)
 iterations                     ...        0 min,  0.012 sec ( 67.920%)
 molecular gradient             ...        0 min,  0.003 sec ( 16.051%)
 printout                       ...        0 min,  0.000 sec (  0.455%)

         :::::::::::::::::::::::::::::::::::::::::::::::::::::
         ::                     SUMMARY                     ::
         :::::::::::::::::::::::::::::::::::::::::::::::::::::
         :: total energy             -69.881527373922 Eh    ::
         :: gradient norm              0.093671019492 Eh/a0 ::
         :: HOMO-LUMO gap              5.783300743761 eV    ::
         ::.................................................::
         :: SCC energy               -70.123725051392 Eh    ::
         :: -> isotropic ES            0.304262923832 Eh    ::
         :: -> anisotropic ES         -0.016425634226 Eh    ::
         :: -> anisotropic XC         -0.055585388009 Eh    ::
         :: -> dispersion             -0.022599775783 Eh    ::
         :: repulsion energy           0.242197677470 Eh    ::
         :: add. restraining           0.000000000000 Eh    ::
         :: total charge              -1.000000000000 e     ::
         :::::::::::::::::::::::::::::::::::::::::::::::::::::

      ----------------------------------------------------------- 
     |                   =====================                   |
     |                        A N C O P T                        |
     |                   =====================                   |
     |               Approximate Normal Coordinate               |
     |                Rational Function Optimizer                |
      ----------------------------------------------------------- 
      ----------------------------------------------------------- 
     |                   =====================                   |
     |                        A N C O P T                        |
     |                   =====================                   |
     |               Approximate Normal Coordinate               |
     |                Rational Function Optimizer                |
      ----------------------------------------------------------- 

          ...................................................
          :                      SETUP                      :
          :.................................................:
          :   optimization level            normal          :
          :   max. optcycles                   200          :
          :   ANC micro-cycles                  20          :
          :   degrees of freedom                57          :
          :.................................................:
          :   RF solver                   davidson          :
          :   write xtbopt.log                true          :
          :   linear?                        false          :
          :   energy convergence         0.5000000E-05 Eh   :
          :   grad. convergence          0.1000000E-02 Eh/α :
          :   maxmium RF displ.          1.0000000          :
          :   Hlow (freq-cutoff)         0.1000000E-01      :
          :   Hmax (freq-cutoff)         5.0000000          :
          :   S6 in model hess.         20.0000000          :
          ...................................................

generating ANC from exact Hessian ...
Using Lindh-Hessian (1995)
 Shifting diagonal of input Hessian by    8.4641760257215034E-003
 Lowest  eigenvalues of input Hessian
    0.000000    0.000000    0.000000    0.000000    0.000000    0.000000
    0.010000    0.011146    0.012080    0.015409    0.016957    0.019854
    0.026682    0.029266    0.037772    0.038119    0.061025    0.065949
 Highest eigenvalues
    1.622464    1.629660    1.691062    2.182080    3.515818    3.550752


........................................................................
.............................. CYCLE    1 ..............................
........................................................................

 iter      E             dE          RMSdq      gap      omega  full diag
   1    -70.1238340 -0.701238E+02  0.664E-05    5.78       0.0  T
   2    -70.1238340 -0.642331E-11  0.439E-05    5.78     497.3  T
   3    -70.1238340 -0.149214E-11  0.176E-05    5.78    1241.3  T
     SCC iter.                  ...        0 min,  0.003 sec
     gradient                   ...        0 min,  0.003 sec
 * total energy  :   -69.8815274 Eh     change       -0.1236913E-09 Eh
   gradient norm :     0.0936680 Eh/α   predicted     0.0000000E+00 (-100.00%)
   displ. norm   :     0.2612624 α      lambda       -0.1063550E-01
   maximum displ.:     0.0941460 α      in ANC's #9, #7, #10, ...

........................................................................
.............................. CYCLE    2 ..............................
........................................................................

 iter      E             dE          RMSdq      gap      omega  full diag
   1    -70.1333550 -0.701334E+02  0.212E-01    6.19       0.0  T
   2    -70.1333949 -0.398869E-04  0.123E-01    6.24       1.0  T
   3    -70.1333982 -0.331509E-05  0.278E-02    6.28       1.0  T
   4    -70.1334002 -0.202202E-05  0.806E-03    6.29       2.7  T
   5    -70.1334004 -0.213568E-06  0.325E-03    6.28       6.7  T
   6    -70.1334004 -0.218202E-07  0.182E-03    6.28      12.0  T
   7    -70.1334005 -0.782615E-08  0.673E-04    6.28      32.4  T
   8    -70.1334005 -0.139211E-08  0.297E-04    6.28      73.5  T
     SCC iter.                  ...        0 min,  0.007 sec
     gradient                   ...        0 min,  0.003 sec
 * total energy  :   -69.8895173 Eh     change       -0.7989937E-02 Eh
   gradient norm :     0.0556410 Eh/α   predicted    -0.5685119E-02 ( -28.85%)
   displ. norm   :     0.3201420 α      lambda       -0.6831709E-02
   maximum displ.:     0.1710991 α      in ANC's #9, #10, #7, ...

........................................................................
.............................. CYCLE    3 ..............................
........................................................................

 iter      E             dE          RMSdq      gap      omega  full diag
   1    -70.1409438 -0.701409E+02  0.183E-01    6.66       0.0  T
   2    -70.1410073 -0.634875E-04  0.107E-01    6.74       1.0  T
   3    -70.1410131 -0.580297E-05  0.405E-02    6.79       1.0  T
   4    -70.1410154 -0.233310E-05  0.113E-02    6.81       1.9  T
   5    -70.1410162 -0.754722E-06  0.411E-03    6.81       5.3  T
   6    -70.1410162 -0.409372E-07  0.205E-03    6.81      10.7  T
   7    -70.1410162 -0.979028E-08  0.931E-04    6.81      23.4  T
   8    -70.1410162 -0.316841E-08  0.460E-04    6.81      47.4  T
     SCC iter.                  ...        0 min,  0.010 sec
     gradient                   ...        0 min,  0.003 sec
 * total energy  :   -69.8936241 Eh     change       -0.4106750E-02 Eh
   gradient norm :     0.0208729 Eh/α   predicted    -0.3766921E-02 (  -8.27%)
   displ. norm   :     0.1756883 α      lambda       -0.1119659E-02
   maximum displ.:     0.0894089 α      in ANC's #9, #10, #1, ...

........................................................................
.............................. CYCLE    4 ..............................
........................................................................

 iter      E             dE          RMSdq      gap      omega  full diag
   1    -70.1421364 -0.701421E+02  0.789E-02    6.88       0.0  T
   2    -70.1421562 -0.197423E-04  0.477E-02    6.92       1.0  T
   3    -70.1421573 -0.111931E-05  0.255E-02    6.93       1.0  T
   4    -70.1421575 -0.178618E-06  0.472E-03    6.94       4.6  T
   5    -70.1421575 -0.753254E-07  0.222E-03    6.94       9.8  T
   6    -70.1421576 -0.102297E-07  0.686E-04    6.94      31.8  T
   7    -70.1421576 -0.217979E-08  0.334E-04    6.94      65.2  T
     SCC iter.                  ...        0 min,  0.006 sec
     gradient                   ...        0 min,  0.003 sec
 * total energy  :   -69.8944159 Eh     change       -0.7918285E-03 Eh
   gradient norm :     0.0150475 Eh/α   predicted    -0.5772360E-03 ( -27.10%)
   displ. norm   :     0.1758196 α      lambda       -0.6673454E-03
   maximum displ.:     0.1097360 α      in ANC's #1, #10, #9, ...

........................................................................
.............................. CYCLE    5 ..............................
........................................................................

 iter      E             dE          RMSdq      gap      omega  full diag
   1    -70.1425943 -0.701426E+02  0.880E-02    6.96       0.0  T
   2    -70.1426187 -0.244107E-04  0.537E-02    6.98       1.0  T
   3    -70.1426198 -0.112427E-05  0.273E-02    6.99       1.0  T
   4    -70.1426200 -0.187009E-06  0.590E-03    7.00       3.7  T
   5    -70.1426200 -0.481465E-07  0.256E-03    7.00       8.5  T
   6    -70.1426200 -0.899080E-08  0.422E-04    7.00      51.8  T
   7    -70.1426200 -0.100522E-08  0.222E-04    7.00      98.1  T
     SCC iter.                  ...        0 min,  0.006 sec
     gradient                   ...        0 min,  0.003 sec
 * total energy  :   -69.8948508 Eh     change       -0.4349287E-03 Eh
   gradient norm :     0.0084484 Eh/α   predicted    -0.3439902E-03 ( -20.91%)
   displ. norm   :     0.1437509 α      lambda       -0.2686975E-03
   maximum displ.:     0.1015039 α      in ANC's #1, #6, #4, ...

........................................................................
.............................. CYCLE    6 ..............................
........................................................................

 iter      E             dE          RMSdq      gap      omega  full diag
   1    -70.1431714 -0.701432E+02  0.645E-02    6.99       0.0  T
   2    -70.1431819 -0.105237E-04  0.373E-02    6.99       1.0  T
   3    -70.1431825 -0.545887E-06  0.165E-02    7.00       1.3  T
   4    -70.1431826 -0.935375E-07  0.454E-03    7.00       4.8  T
   5    -70.1431826 -0.216182E-07  0.181E-03    7.00      12.0  T
   6    -70.1431826 -0.681300E-08  0.246E-04    7.00      88.7  T
   7    -70.1431826 -0.175660E-09  0.122E-04    7.00     178.8  T
     SCC iter.                  ...        0 min,  0.006 sec
     gradient                   ...        0 min,  0.003 sec
 * total energy  :   -69.8950509 Eh     change       -0.2000657E-03 Eh
   gradient norm :     0.0044506 Eh/α   predicted    -0.1373665E-03 ( -31.34%)
   displ. norm   :     0.1988817 α      lambda       -0.2373392E-03
   maximum displ.:     0.1299987 α      in ANC's #1, #6, #4, ...

........................................................................
.............................. CYCLE    7 ..............................
........................................................................

 iter      E             dE          RMSdq      gap      omega  full diag
   1    -70.1435271 -0.701435E+02  0.786E-02    6.98       0.0  T
   2    -70.1435385 -0.114402E-04  0.430E-02    6.99       1.0  T
   3    -70.1435392 -0.721114E-06  0.173E-02    6.99       1.3  T
   4    -70.1435394 -0.118189E-06  0.517E-03    6.99       4.2  T
   5    -70.1435394 -0.179382E-07  0.168E-03    6.99      13.0  T
   6    -70.1435394 -0.108353E-07  0.290E-04    6.99      75.3  T
   7    -70.1435394 -0.227175E-09  0.136E-04    6.99     160.7  T
     SCC iter.                  ...        0 min,  0.006 sec
     gradient                   ...        0 min,  0.003 sec
 * total energy  :   -69.8952232 Eh     change       -0.1723199E-03 Eh
   gradient norm :     0.0055085 Eh/α   predicted    -0.1233647E-03 ( -28.41%)
   displ. norm   :     0.2171824 α      lambda       -0.1761574E-03
   maximum displ.:     0.1338803 α      in ANC's #1, #4, #6, ...

........................................................................
.............................. CYCLE    8 ..............................
........................................................................

 iter      E             dE          RMSdq      gap      omega  full diag
   1    -70.1433234 -0.701433E+02  0.785E-02    6.98       0.0  T
   2    -70.1433312 -0.783402E-05  0.417E-02    6.98       1.0  T
   3    -70.1433319 -0.699905E-06  0.151E-02    6.99       1.4  T
   4    -70.1433320 -0.100355E-06  0.479E-03    6.99       4.6  T
   5    -70.1433321 -0.138307E-07  0.131E-03    6.99      16.7  T
   6    -70.1433321 -0.133820E-07  0.284E-04    6.99      76.8  T
   7    -70.1433321 -0.169535E-09  0.127E-04    6.99     172.1  T
     SCC iter.                  ...        0 min,  0.006 sec
     gradient                   ...        0 min,  0.003 sec
 * total energy  :   -69.8953580 Eh     change       -0.1347827E-03 Eh
   gradient norm :     0.0079394 Eh/α   predicted    -0.9223528E-04 ( -31.57%)
   displ. norm   :     0.2689397 α      lambda       -0.1936412E-03
   maximum displ.:     0.1596321 α      in ANC's #1, #4, #6, ...

........................................................................
.............................. CYCLE    9 ..............................
........................................................................

 iter      E             dE          RMSdq      gap      omega  full diag
   1    -70.1425044 -0.701425E+02  0.924E-02    6.99       0.0  T
   2    -70.1425132 -0.876448E-05  0.496E-02    6.99       1.0  T
   3    -70.1425142 -0.100757E-05  0.166E-02    6.99       1.3  T
   4    -70.1425144 -0.182411E-06  0.561E-03    6.99       3.9  T
   5    -70.1425144 -0.329175E-07  0.161E-03    6.99      13.6  T
   6    -70.1425144 -0.217033E-07  0.342E-04    6.99      63.8  T
   7    -70.1425144 -0.160767E-09  0.118E-04    6.99     184.9  T
     SCC iter.                  ...        0 min,  0.006 sec
     gradient                   ...        0 min,  0.003 sec
 * total energy  :   -69.8955029 Eh     change       -0.1448643E-03 Eh
   gradient norm :     0.0096571 Eh/α   predicted    -0.1038343E-03 ( -28.32%)
   displ. norm   :     0.2599591 α      lambda       -0.1968939E-03
   maximum displ.:     0.1541230 α      in ANC's #1, #4, #6, ...

........................................................................
.............................. CYCLE   10 ..............................
........................................................................

 iter      E             dE          RMSdq      gap      omega  full diag
   1    -70.1417223 -0.701417E+02  0.873E-02    7.01       0.0  T
   2    -70.1417300 -0.776103E-05  0.485E-02    7.01       1.0  T
   3    -70.1417310 -0.946974E-06  0.153E-02    7.00       1.4  T
   4    -70.1417312 -0.235648E-06  0.549E-03    7.00       4.0  T
   5    -70.1417312 -0.399402E-07  0.178E-03    7.00      12.2  T
   6    -70.1417313 -0.187480E-07  0.365E-04    7.00      59.7  T
   7    -70.1417313 -0.276998E-09  0.199E-04    7.00     109.8  T
     SCC iter.                  ...        0 min,  0.006 sec
     gradient                   ...        0 min,  0.003 sec
 * total energy  :   -69.8956465 Eh     change       -0.1436577E-03 Eh
   gradient norm :     0.0102168 Eh/α   predicted    -0.1051008E-03 ( -26.84%)
   displ. norm   :     0.1999744 α      lambda       -0.2208406E-03
   maximum displ.:     0.1243370 α      in ANC's #1, #4, #2, ...

........................................................................
.............................. CYCLE   11 ..............................
........................................................................

 iter      E             dE          RMSdq      gap      omega  full diag
   1    -70.1422435 -0.701422E+02  0.708E-02    7.04       0.0  T
   2    -70.1422500 -0.655778E-05  0.414E-02    7.04       1.0  T
   3    -70.1422507 -0.689291E-06  0.136E-02    7.03       1.6  T
   4    -70.1422509 -0.120092E-06  0.454E-03    7.03       4.8  T
   5    -70.1422509 -0.203435E-07  0.174E-03    7.03      12.5  T
   6    -70.1422509 -0.140717E-07  0.314E-04    7.03      69.5  T
   7    -70.1422509 -0.236810E-09  0.178E-04    7.03     122.8  T
     SCC iter.                  ...        0 min,  0.006 sec
     gradient                   ...        0 min,  0.005 sec
 * total energy  :   -69.8958078 Eh     change       -0.1612866E-03 Eh
   gradient norm :     0.0085565 Eh/α   predicted    -0.1148689E-03 ( -28.78%)
   displ. norm   :     0.1981170 α      lambda       -0.1926015E-03
   maximum displ.:     0.1347126 α      in ANC's #1, #2, #4, ...

........................................................................
.............................. CYCLE   12 ..............................
........................................................................

 iter      E             dE          RMSdq      gap      omega  full diag
   1    -70.1427249 -0.701427E+02  0.695E-02    7.06       0.0  T
   2    -70.1427299 -0.503490E-05  0.375E-02    7.06       1.0  T
   3    -70.1427305 -0.650806E-06  0.126E-02    7.05       1.7  T
   4    -70.1427306 -0.840424E-07  0.403E-03    7.05       5.4  T
   5    -70.1427306 -0.138562E-07  0.129E-03    7.05      17.0  T
   6    -70.1427307 -0.655919E-08  0.344E-04    7.05      63.4  T
   7    -70.1427307 -0.484377E-09  0.198E-04    7.05     110.0  T
     SCC iter.                  ...        0 min,  0.007 sec
     gradient                   ...        0 min,  0.003 sec
 * total energy  :   -69.8959486 Eh     change       -0.1407612E-03 Eh
   gradient norm :     0.0070243 Eh/α   predicted    -0.1000817E-03 ( -28.90%)
   displ. norm   :     0.2466740 α      lambda       -0.1566346E-03
   maximum displ.:     0.1731524 α      in ANC's #1, #2, #4, ...

........................................................................
.............................. CYCLE   13 ..............................
........................................................................

 iter      E             dE          RMSdq      gap      omega  full diag
   1    -70.1426675 -0.701427E+02  0.909E-02    7.07       0.0  T
   2    -70.1426765 -0.900354E-05  0.444E-02    7.06       1.0  T
   3    -70.1426775 -0.968332E-06  0.167E-02    7.06       1.3  T
   4    -70.1426776 -0.161726E-06  0.544E-03    7.06       4.0  T
   5    -70.1426777 -0.255540E-07  0.151E-03    7.06      14.5  T
   6    -70.1426777 -0.994187E-08  0.439E-04    7.06      49.7  T
   7    -70.1426777 -0.562281E-09  0.241E-04    7.06      90.7  T
     SCC iter.                  ...        0 min,  0.006 sec
     gradient                   ...        0 min,  0.003 sec
 * total energy  :   -69.8960644 Eh     change       -0.1158040E-03 Eh
   gradient norm :     0.0065259 Eh/α   predicted    -0.8308545E-04 ( -28.25%)
   displ. norm   :     0.2142317 α      lambda       -0.1476069E-03
   maximum displ.:     0.1478860 α      in ANC's #1, #2, #4, ...

........................................................................
.............................. CYCLE   14 ..............................
........................................................................

 iter      E             dE          RMSdq      gap      omega  full diag
   1    -70.1443873 -0.701444E+02  0.915E-02    7.07       0.0  T
   2    -70.1443981 -0.107681E-04  0.414E-02    7.07       1.0  T
   3    -70.1443990 -0.908358E-06  0.158E-02    7.07       1.4  T
   4    -70.1443992 -0.174185E-06  0.567E-03    7.07       3.8  T
   5    -70.1443992 -0.460814E-07  0.201E-03    7.07      10.9  T
   6    -70.1443992 -0.132935E-07  0.390E-04    7.07      56.0  T
   7    -70.1443992 -0.404469E-09  0.215E-04    7.07     101.4  T
     SCC iter.                  ...        0 min,  0.006 sec
     gradient                   ...        0 min,  0.003 sec
 * total energy  :   -69.8961584 Eh     change       -0.9403199E-04 Eh
   gradient norm :     0.0054587 Eh/α   predicted    -0.7719192E-04 ( -17.91%)
   displ. norm   :     0.4212203 α      lambda       -0.1478964E-03
   maximum displ.:     0.2852520 α      in ANC's #1, #2, #4, ...

........................................................................
.............................. CYCLE   15 ..............................
........................................................................

 iter      E             dE          RMSdq      gap      omega  full diag
   1    -70.1407555 -0.701408E+02  0.166E-01    7.04       0.0  T
   2    -70.1407919 -0.363517E-04  0.784E-02    7.04       1.0  T
   3    -70.1407947 -0.280934E-05  0.321E-02    7.05       1.0  T
   4    -70.1407952 -0.517952E-06  0.100E-02    7.05       2.2  T
   5    -70.1407953 -0.605297E-07  0.253E-03    7.05       8.6  T
   6    -70.1407953 -0.514554E-07  0.839E-04    7.05      26.0  T
   7    -70.1407953 -0.188324E-08  0.419E-04    7.05      52.1  T
     SCC iter.                  ...        0 min,  0.006 sec
     gradient                   ...        0 min,  0.003 sec
 * total energy  :   -69.8961694 Eh     change       -0.1096944E-04 Eh
   gradient norm :     0.0108336 Eh/α   predicted    -0.8718368E-04 ( 694.79%)
   displ. norm   :     0.1286420 α      lambda       -0.1730102E-03
   maximum displ.:     0.0799965 α      in ANC's #1, #4, #6, ...

........................................................................
.............................. CYCLE   16 ..............................
........................................................................

 iter      E             dE          RMSdq      gap      omega  full diag
   1    -70.1439907 -0.701440E+02  0.489E-02    7.05       0.0  T
   2    -70.1439938 -0.310825E-05  0.269E-02    7.04       1.0  T
   3    -70.1439941 -0.316103E-06  0.100E-02    7.04       2.2  T
   4    -70.1439942 -0.939702E-07  0.332E-03    7.04       6.6  T
   5    -70.1439942 -0.160450E-07  0.124E-03    7.04      17.7  T
   6    -70.1439942 -0.779413E-08  0.367E-04    7.04      59.5  T
   7    -70.1439942 -0.312355E-09  0.182E-04    7.04     120.1  T
     SCC iter.                  ...        0 min,  0.006 sec
     gradient                   ...        0 min,  0.003 sec
 * total energy  :   -69.8962635 Eh     change       -0.9416654E-04 Eh
   gradient norm :     0.0040778 Eh/α   predicted    -0.8794226E-04 (  -6.61%)
   displ. norm   :     0.0986778 α      lambda       -0.4374169E-04
   maximum displ.:     0.0664966 α      in ANC's #2, #1, #4, ...

........................................................................
.............................. CYCLE   17 ..............................
........................................................................

 iter      E             dE          RMSdq      gap      omega  full diag
   1    -70.1444062 -0.701444E+02  0.411E-02    7.04       0.0  T
   2    -70.1444079 -0.174379E-05  0.184E-02    7.04       1.2  T
   3    -70.1444081 -0.172663E-06  0.678E-03    7.04       3.2  T
   4    -70.1444081 -0.224315E-07  0.226E-03    7.04       9.6  T
   5    -70.1444081 -0.309980E-08  0.471E-04    7.04      46.3  T
   6    -70.1444081 -0.161668E-08  0.149E-04    7.04     146.5  T
     SCC iter.                  ...        0 min,  0.005 sec
     gradient                   ...        0 min,  0.003 sec
 * total energy  :   -69.8962988 Eh     change       -0.3527022E-04 Eh
   gradient norm :     0.0029536 Eh/α   predicted    -0.2208379E-04 ( -37.39%)
   displ. norm   :     0.2269777 α      lambda       -0.7123848E-04
   maximum displ.:     0.1488733 α      in ANC's #2, #1, #4, ...

........................................................................
.............................. CYCLE   18 ..............................
........................................................................

 iter      E             dE          RMSdq      gap      omega  full diag
   1    -70.1438737 -0.701439E+02  0.891E-02    7.01       0.0  T
   2    -70.1438814 -0.768322E-05  0.405E-02    7.02       1.0  T
   3    -70.1438822 -0.849747E-06  0.151E-02    7.02       1.4  T
   4    -70.1438823 -0.114663E-06  0.509E-03    7.02       4.3  T
   5    -70.1438823 -0.159248E-07  0.114E-03    7.02      19.2  T
   6    -70.1438824 -0.116956E-07  0.346E-04    7.02      63.1  T
   7    -70.1438824 -0.260911E-09  0.151E-04    7.02     144.1  T
     SCC iter.                  ...        0 min,  0.006 sec
     gradient                   ...        0 min,  0.003 sec
 * total energy  :   -69.8963427 Eh     change       -0.4389228E-04 Eh
   gradient norm :     0.0023084 Eh/α   predicted    -0.3745187E-04 ( -14.67%)
   displ. norm   :     0.0871998 α      lambda       -0.1848464E-04
   maximum displ.:     0.0541371 α      in ANC's #2, #1, #8, ...

........................................................................
.............................. CYCLE   19 ..............................
........................................................................

 iter      E             dE          RMSdq      gap      omega  full diag
   1    -70.1437523 -0.701438E+02  0.325E-02    7.03       0.0  T
   2    -70.1437531 -0.835281E-06  0.153E-02    7.03       1.4  T
   3    -70.1437532 -0.120154E-06  0.543E-03    7.03       4.0  T
   4    -70.1437532 -0.161892E-07  0.187E-03    7.03      11.7  T
   5    -70.1437532 -0.478984E-08  0.523E-04    7.03      41.7  T
   6    -70.1437532 -0.198801E-08  0.118E-04    7.03     184.6  T
     SCC iter.                  ...        0 min,  0.005 sec
     gradient                   ...        0 min,  0.003 sec
 * total energy  :   -69.8963550 Eh     change       -0.1230803E-04 Eh
   gradient norm :     0.0021799 Eh/α   predicted    -0.9314547E-05 ( -24.32%)
   displ. norm   :     0.0716829 α      lambda       -0.1713620E-04
   maximum displ.:     0.0444311 α      in ANC's #2, #1, #8, ...

........................................................................
.............................. CYCLE   20 ..............................
........................................................................

 iter      E             dE          RMSdq      gap      omega  full diag
   1    -70.1438195 -0.701438E+02  0.262E-02    7.03       0.0  T
   2    -70.1438201 -0.601052E-06  0.133E-02    7.03       1.6  T
   3    -70.1438202 -0.807088E-07  0.443E-03    7.03       4.9  T
   4    -70.1438202 -0.391859E-07  0.189E-03    7.04      11.5  T
   5    -70.1438203 -0.768607E-08  0.417E-04    7.04      52.3  T
   6    -70.1438203 -0.574616E-09  0.914E-05    7.04     238.7  T
     SCC iter.                  ...        0 min,  0.005 sec
     gradient                   ...        0 min,  0.003 sec
 * total energy  :   -69.8963644 Eh     change       -0.9420158E-05 Eh
   gradient norm :     0.0017451 Eh/α   predicted    -0.8614521E-05 (  -8.55%)
   displ. norm   :     0.0241072 α      lambda       -0.5857623E-05
   maximum displ.:     0.0120283 α      in ANC's #4, #8, #7, ...
 * RMSD in coord.:     0.6449297 α      energy gain  -0.1483704E-01 Eh

generating ANC from exact Hessian ...
Using Lindh-Hessian (1995)
 Shifting diagonal of input Hessian by    8.0109958543656528E-003
 Lowest  eigenvalues of input Hessian
    0.000000    0.000000    0.000000    0.000000    0.000000    0.000000
    0.010000    0.011491    0.012463    0.015575    0.016565    0.019233
    0.026756    0.027132    0.033064    0.034718    0.058157    0.060925
 Highest eigenvalues
    1.641850    1.692916    1.725070    1.929716    3.629878    3.741408


........................................................................
.............................. CYCLE   21 ..............................
........................................................................

 iter      E             dE          RMSdq      gap      omega  full diag
   1    -70.1439879 -0.701440E+02  0.102E-02    7.06       0.0  T
   2    -70.1439880 -0.165749E-06  0.582E-03    7.05       3.8  T
   3    -70.1439880 -0.134819E-07  0.194E-03    7.05      11.3  T
   4    -70.1439881 -0.138144E-07  0.857E-04    7.05      25.5  T
   5    -70.1439881 -0.123143E-08  0.195E-04    7.05     111.7  T
     SCC iter.                  ...        0 min,  0.004 sec
     gradient                   ...        0 min,  0.003 sec
 * total energy  :   -69.8963687 Eh     change       -0.4279323E-05 Eh
   gradient norm :     0.0009422 Eh/α   predicted     0.0000000E+00 (-100.00%)
   displ. norm   :     0.0142713 α      lambda       -0.2969062E-05
   maximum displ.:     0.0081401 α      in ANC's #3, #7, #6, ...

   *** GEOMETRY OPTIMIZATION CONVERGED AFTER 21 ITERATIONS ***

------------------------------------------------------------------------
 total energy gain   :        -0.0148413 Eh       -9.3131 kcal/mol
 total RMSD          :         0.6449297 a0        0.3413 Å
 total power (kW/mol):        -1.8555186 (step) -163.2090 (real)
------------------------------------------------------------------------

 ANCopt (total)                0 d,  0 h,  0 min,  0.239 sec
 optimizer setup                ...        0 min,  0.000 sec (  0.031%)
 model hessian                  ...        0 min,  0.016 sec (  6.514%)
 ANC generation                 ...        0 min,  0.001 sec (  0.258%)
 coordinate transformation      ...        0 min,  0.000 sec (  0.061%)
 single point calculation       ...        0 min,  0.218 sec ( 91.326%)
 optimization log               ...        0 min,  0.001 sec (  0.575%)
 hessian update                 ...        0 min,  0.001 sec (  0.227%)
 rational function              ...        0 min,  0.002 sec (  0.691%)

================
 final structure:
================
21
 xtb: 6.7.1 (edcfbbe)
F            1.47522685055210        0.54740600206314       -0.40876714205601
C            2.57721580054666       -0.04744551920068        0.09022397530732
C            2.67764545513681        0.00059924048695        1.62905212606531
O            2.26091843014272       -1.12416448124463        2.27417581194251
S            0.55211627338359       -1.16690566358593        2.12908333165403
O            0.16409355232584        0.14266038259769        2.60944885349918
O            0.36703190749270       -1.35435689904774        0.70842138878478
O            0.16936264758773       -2.26968320364737        2.96414956802933
C            2.85270954254199       -1.41517606646828       -0.59650942116331
C            2.25342975571494       -1.52796478676581       -2.03185423880219
C            2.61100011969240       -0.33848816253387       -2.95865700732519
F            3.94027164190433       -0.18486951119533       -3.07970595015853
F            2.14753353847366       -0.59594989620741       -4.20052656788103
F            2.73504274707229       -2.66996688061527       -2.58867408310877
F            0.92127536257943       -1.65340662037500       -2.02798744072204
F            4.21270022427051       -1.49636964863279       -0.74333505647353
F            2.53792405156429       -2.50677898321125        0.09333489890539
F            3.57275741987452        0.78209386489158       -0.40619865361003
H            3.73690167097491        0.17835775170685        1.85945605792720
H            2.05684830728183        0.85558216579107        1.94242135007096
H            2.15882470088562        0.59903691519449       -2.60935180088296

 Bond Distances (Angstroems)
 ---------------------------
F1-C2=1.3480         C2-F1=1.3480         C2-C3=1.5429         C2-C9=1.5551         C2-F18=1.3877        C3-C2=1.5429         
C3-O4=1.3620         C3-H19=1.0985        C3-H20=1.1021        O4-C3=1.3620         O4-S5=1.7155         S5-O4=1.7155         
S5-O6=1.4479         S5-O7=1.4449         S5-O8=1.4353         O6-S5=1.4479         O7-S5=1.4449         O8-S5=1.4353         
C9-C2=1.5551         C9-C10=1.5595        C9-F16=1.3703        C9-F17=1.3291        C10-C9=1.5595        C10-C11=1.5497       
C10-F14=1.3587       C10-F15=1.3381       C11-C10=1.5497       C11-F12=1.3436       C11-F13=1.3503       C11-H21=1.0979       
F12-C11=1.3436       F13-C11=1.3503       F14-C10=1.3587       F15-C10=1.3381       F16-C9=1.3703        F17-C9=1.3291        
F18-C2=1.3877        H19-C3=1.0985        H20-C3=1.1021        H21-C11=1.0979       
 C  H  Rav=1.0995 sigma=0.0018  Rmin=1.0979  Rmax=1.1021     3
 C  C  Rav=1.5518 sigma=0.0062  Rmin=1.5429  Rmax=1.5595     4
 O  C  Rav=1.3620 sigma=0.0000  Rmin=1.3620  Rmax=1.3620     1
 F  C  Rav=1.3532 sigma=0.0175  Rmin=1.3291  Rmax=1.3877     8
 S  O  Rav=1.5109 sigma=0.1182  Rmin=1.4353  Rmax=1.7155     4

 selected bond angles (degree)
 --------------------
C3-C2-F1=114.12                C9-C2-F1=111.68                C9-C2-C3=117.15                F18-C2-F1=100.97               
F18-C2-C3=106.95               F18-C2-C9=103.93               O4-C3-C2=115.26                H19-C3-C2=106.08               
H19-C3-O4=109.23               H20-C3-C2=105.73               H20-C3-O4=109.49               H20-C3-H19=110.98              
S5-O4-C3=106.58                O6-S5-O4=102.50                O7-S5-O4=102.36                O7-S5-O6=114.16                
O8-S5-O4=103.63                O8-S5-O6=115.50                O8-S5-O7=115.99                C10-C9-C2=113.70               
F16-C9-C2=105.98               F16-C9-C10=106.17              F17-C9-C2=116.82               F17-C9-C10=109.10              
F17-C9-F16=104.00              C11-C10-C9=113.97              F14-C10-C9=107.56              F14-C10-C11=108.56             
F15-C10-C9=112.75              F15-C10-C11=107.66             F15-C10-F14=105.98             

 selected dihedral angles (degree)
 ---------------------------------
O4-C3-C2-F1= 98.02            O4-C3-C2-C9=324.82            O4-C3-C2-F18=208.78           H19-C3-C2-F1=219.02           
H19-C3-C2-C9= 85.82           H19-C3-C2-F18=329.78          H20-C3-C2-F1=336.95           H20-C3-C2-C9=203.74           
H20-C3-C2-F18= 87.70          S5-O4-C3-C2=288.27            S5-O4-C3-H19=169.00           S5-O4-C3-H20= 47.28           
O6-S5-O4-C3=307.49            O7-S5-O4-C3= 66.02            O8-S5-O4-C3=187.00            C10-C9-C2-F1= 24.95           
C10-C9-C2-C3=159.23           C10-C9-C2-F18=276.92          F16-C9-C2-F1=141.19           F16-C9-C2-C3=275.47           
F16-C9-C2-F18= 33.16          F17-C9-C2-F1=256.46           F17-C9-C2-C3= 30.73           F17-C9-C2-F18=148.42          
C11-C10-C9-C2= 50.39          C11-C10-C9-F16=294.27         C11-C10-C9-F17=182.73         F14-C10-C9-C2=170.79          
F14-C10-C9-F16= 54.67         F14-C10-C9-F17=303.13         F15-C10-C9-C2=287.27          F15-C10-C9-F16=171.14         
F15-C10-C9-F17= 59.61         
           -------------------------------------------------
          |                Final Singlepoint                |
           -------------------------------------------------

          ...................................................
          :                      SETUP                      :
          :.................................................:
          :  # basis functions                  81          :
          :  # atomic orbitals                  80          :
          :  # shells                           40          :
          :  # electrons                       110          :
          :  max. iterations                   250          :
          :  Hamiltonian                  GFN2-xTB          :
          :  restarted?                      false          :
          :  GBSA solvation                  false          :
          :  PC potential                    false          :
          :  electronic temp.          300.0000000     K    :
          :  accuracy                    1.0000000          :
          :  -> integral cutoff          0.2500000E+02      :
          :  -> integral neglect         0.1000000E-07      :
          :  -> SCF convergence          0.1000000E-05 Eh   :
          :  -> wf. convergence          0.1000000E-03 e    :
          :  Broyden damping             0.4000000          :
          :  net charge                         -1          :
          :  unpaired electrons                  0          :
          ...................................................

 iter      E             dE          RMSdq      gap      omega  full diag
   1    -70.1439881 -0.701440E+02  0.652E-05    7.05       0.0  T
   2    -70.1439881 -0.675016E-11  0.379E-05    7.05     576.5  T
   3    -70.1439881 -0.810019E-12  0.147E-05    7.05    1482.2  T

   *** convergence criteria satisfied after 3 iterations ***

         #    Occupation            Energy/Eh            Energy/eV
      -------------------------------------------------------------
         1        2.0000           -0.8015811             -21.8121
       ...           ...                  ...                  ...
        49        2.0000           -0.3230696              -8.7912
        50        2.0000           -0.2994625              -8.1488
        51        2.0000           -0.2967678              -8.0755
        52        2.0000           -0.2936832              -7.9915
        53        2.0000           -0.2810186              -7.6469
        54        2.0000           -0.2805641              -7.6345
        55        2.0000           -0.2680770              -7.2947 (HOMO)
        56                         -0.0088689              -0.2413 (LUMO)
        57                          0.0238207               0.6482
        58                          0.0376711               1.0251
        59                          0.0438938               1.1944
        60                          0.0748069               2.0356
       ...                                ...                  ...
        80                          1.4221837              38.6996
      -------------------------------------------------------------
                  HL-Gap            0.2592080 Eh            7.0534 eV
             Fermi-level           -0.1384730 Eh           -3.7680 eV

 SCC (total)                   0 d,  0 h,  0 min,  0.007 sec
 SCC setup                      ...        0 min,  0.000 sec (  1.205%)
 Dispersion                     ...        0 min,  0.000 sec (  0.899%)
 classical contributions        ...        0 min,  0.000 sec (  0.165%)
 integral evaluation            ...        0 min,  0.001 sec ( 16.874%)
 iterations                     ...        0 min,  0.003 sec ( 38.474%)
 molecular gradient             ...        0 min,  0.003 sec ( 41.034%)
 printout                       ...        0 min,  0.000 sec (  1.144%)

         :::::::::::::::::::::::::::::::::::::::::::::::::::::
         ::                     SUMMARY                     ::
         :::::::::::::::::::::::::::::::::::::::::::::::::::::
         :: total energy             -69.896368697859 Eh    ::
         :: gradient norm              0.000941882380 Eh/a0 ::
         :: HOMO-LUMO gap              7.053409785646 eV    ::
         ::.................................................::
         :: SCC energy               -70.143847652438 Eh    ::
         :: -> isotropic ES            0.290675631964 Eh    ::
         :: -> anisotropic ES         -0.025075800527 Eh    ::
         :: -> anisotropic XC         -0.057599945770 Eh    ::
         :: -> dispersion             -0.023508574322 Eh    ::
         :: repulsion energy           0.247478954580 Eh    ::
         :: add. restraining           0.000000000000 Eh    ::
         :: total charge              -1.000000000000 e     ::
         :::::::::::::::::::::::::::::::::::::::::::::::::::::

           -------------------------------------------------
          |                Property Printout                |
           -------------------------------------------------

    * Orbital Energies and Occupations

         #    Occupation            Energy/Eh            Energy/eV
      -------------------------------------------------------------
         1        2.0000           -0.8015811             -21.8121
       ...           ...                  ...                  ...
        43        2.0000           -0.4232436             -11.5170
        44        2.0000           -0.4069774             -11.0744
        45        2.0000           -0.3904819             -10.6256
        46        2.0000           -0.3652194              -9.9381
        47        2.0000           -0.3627418              -9.8707
        48        2.0000           -0.3567292              -9.7071
        49        2.0000           -0.3230696              -8.7912
        50        2.0000           -0.2994625              -8.1488
        51        2.0000           -0.2967678              -8.0755
        52        2.0000           -0.2936832              -7.9915
        53        2.0000           -0.2810186              -7.6469
        54        2.0000           -0.2805641              -7.6345
        55        2.0000           -0.2680770              -7.2947 (HOMO)
        56                         -0.0088689              -0.2413 (LUMO)
        57                          0.0238207               0.6482
        58                          0.0376711               1.0251
        59                          0.0438938               1.1944
        60                          0.0748069               2.0356
        61                          0.0778619               2.1187
        62                          0.0969501               2.6381
        63                          0.1022323               2.7819
        64                          0.1295017               3.5239
        65                          0.1487336               4.0472
        66                          0.1665145               4.5311
       ...                                ...                  ...
        80                          1.4221837              38.6996
      -------------------------------------------------------------
                  HL-Gap            0.2592080 Eh            7.0534 eV
             Fermi-level           -0.1384730 Eh           -3.7680 eV

     #   Z          covCN         q      C6AA      α(0)
     1   9 F        0.791    -0.200    11.235     3.959
     2   6 C        3.515     0.302    17.175     6.120
     3   6 C        3.969     0.098    18.902     6.177
     4   8 O        1.705    -0.480    22.451     6.397
     5  16 S        3.724     1.485    93.815    16.302
     6   8 O        0.860    -0.696    28.603     7.171
     7   8 O        0.860    -0.713    29.061     7.228
     8   8 O        0.860    -0.649    27.350     7.012
     9   6 C        3.517     0.327    16.824     6.053
    10   6 C        3.517     0.321    16.896     6.065
    11   6 C        3.468     0.295    17.858     6.346
    12   9 F        0.787    -0.190    11.129     3.941
    13   9 F        0.788    -0.193    11.166     3.947
    14   9 F        0.789    -0.185    11.086     3.933
    15   9 F        0.789    -0.167    10.899     3.900
    16   9 F        0.791    -0.204    11.280     3.967
    17   9 F        0.790    -0.152    10.748     3.873
    18   9 F        0.793    -0.242    11.674     4.036
    19   1 H        0.923     0.063     2.167     2.302
    20   1 H        0.923     0.079     1.993     2.208
    21   1 H        0.923     0.101     1.777     2.084

 Mol. C6AA /au·bohr⁶  :       6673.622251
 Mol. C8AA /au·bohr⁸  :     156539.161495
 Mol. α(0) /au        :        113.020018


Wiberg/Mayer (AO) data.
largest (>0.10) Wiberg bond orders for each atom

 ---------------------------------------------------------------------------
     #   Z sym  total        # sym  WBO       # sym  WBO       # sym  WBO
 ---------------------------------------------------------------------------
     1   9 F    1.074 --     2 C    0.965
     2   6 C    3.838 --     1 F    0.965     3 C    0.933     9 C    0.917
                            18 F    0.914
     3   6 C    3.953 --     4 O    1.053    19 H    0.957    20 H    0.943
                             2 C    0.933
     4   8 O    2.014 --     3 C    1.053     5 S    0.705
     5  16 S    5.014 --     8 O    1.475     6 O    1.410     7 O    1.407
                             4 O    0.705
     6   8 O    1.742 --     5 S    1.410     8 O    0.124     7 O    0.121
     7   8 O    1.734 --     5 S    1.407     8 O    0.123     6 O    0.121
     8   8 O    1.791 --     5 S    1.475     6 O    0.124     7 O    0.123
     9   6 C    3.883 --    17 F    1.001    16 F    0.940     2 C    0.917
                            10 C    0.911
    10   6 C    3.888 --    15 F    0.984    14 F    0.958    11 C    0.929
                             9 C    0.911
    11   6 C    3.871 --    12 F    0.974    13 F    0.966    21 H    0.941
                            10 C    0.929
    12   9 F    1.072 --    11 C    0.974
    13   9 F    1.065 --    11 C    0.966
    14   9 F    1.072 --    10 C    0.958
    15   9 F    1.100 --    10 C    0.984
    16   9 F    1.050 --     9 C    0.940
    17   9 F    1.122 --     9 C    1.001
    18   9 F    1.016 --     2 C    0.914
    19   1 H    0.996 --     3 C    0.957
    20   1 H    0.993 --     3 C    0.943
    21   1 H    0.990 --    11 C    0.941
 ---------------------------------------------------------------------------

Topologies differ in total number of bonds
Writing topology from bond orders to xtbtopo.mol

molecular dipole:
                 x           y           z       tot (Debye)
 q only:       -1.694       2.884      -2.212
   full:       -1.616       3.071      -2.120      10.336
molecular quadrupole (traceless):
                xx          xy          yy          xz          yz          zz
 q only:        6.629       9.904       5.261       8.494       7.424     -11.890
  q+dip:        5.196       9.074       6.943      12.187       8.387     -12.140
   full:        6.639       9.856       6.272      11.947       7.841     -12.911

           -------------------------------------------------
          |                Geometry Summary                 |
           -------------------------------------------------

      molecular mass/u    :      311.1271341
   center of mass at/Å    :        2.0511898      -0.9552386      -0.3019468
  moments of inertia/u·Å² :        0.6387723E+03   0.1849762E+04   0.1951993E+04
rotational constants/cm⁻¹ :        0.2639067E-01   0.9113407E-02   0.8636114E-02

 * 16 selected distances

     #   Z          #   Z                                           value/Å
     1   9 F        2   6 C                                       1.3480432
     2   6 C        3   6 C                                       1.5428503 (max)
     3   6 C        4   8 O                                       1.3619617
     5  16 S        6   8 O                                       1.4478523
     5  16 S        7   8 O                                       1.4448789
     5  16 S        8   8 O                                       1.4352542
    11   6 C       12   9 F                                       1.3435828
    11   6 C       13   9 F                                       1.3503067
    10   6 C       14   9 F                                       1.3587378
    10   6 C       15   9 F                                       1.3380532
     9   6 C       16   9 F                                       1.3703011
     9   6 C       17   9 F                                       1.3291247
     2   6 C       18   9 F                                       1.3876867
     3   6 C       19   1 H                                       1.0985026
     3   6 C       20   1 H                                       1.1020823
    11   6 C       21   1 H                                       1.0979209 (min)

 * 5 distinct bonds (by element types)

   Z      Z             #   av. dist./Å        max./Å        min./Å
   1 H    6 C           3     1.0995019     1.1020823     1.0979209
   6 C    6 C           1     1.5428503     1.5428503     1.5428503
   6 C    8 O           1     1.3619617     1.3619617     1.3619617
   6 C    9 F           8     1.3532295     1.3876867     1.3291247
   8 O   16 S           3     1.4426618     1.4478523     1.4352542


optimized geometry written to: xtbopt.xyz


           -------------------------------------------------
          | TOTAL ENERGY              -69.896368697859 Eh   |
          | GRADIENT NORM               0.000941882380 Eh/α |
          | HOMO-LUMO GAP               7.053409785646 eV   |
           -------------------------------------------------

------------------------------------------------------------------------
 * finished run on 2024/12/20 at 01:52:47.674     
------------------------------------------------------------------------
 total:
 * wall-time:     0 d,  0 h,  0 min,  0.279 sec
 *  cpu-time:     0 d,  0 h,  0 min,  2.190 sec
 * ratio c/w:     7.861 speedup
 SCF:
 * wall-time:     0 d,  0 h,  0 min,  0.018 sec
 *  cpu-time:     0 d,  0 h,  0 min,  0.143 sec
 * ratio c/w:     7.892 speedup
 ANC optimizer:
 * wall-time:     0 d,  0 h,  0 min,  0.247 sec
 *  cpu-time:     0 d,  0 h,  0 min,  1.958 sec
 * ratio c/w:     7.942 speedup

