21
 energy: -69.881527374046 gnorm: 0.093668070263 xtb: 6.7.1 (edcfbbe)
F            1.11295000000000        0.22424000000000       -0.32184000000000
C            2.38857000000000       -0.11790000000000       -0.03026000000000
C            2.67270000000000       -0.06323000000000        1.46702000000000
O            2.12007000000000       -1.11053000000000        2.23929000000000
S            0.50369000000000       -1.14000000000000        2.45165000000000
O            0.16847000000000        0.25373000000000        2.72215000000000
O            0.02203000000000       -1.64533000000000        1.17254000000000
O            0.33046000000000       -2.04301000000000        3.58129000000000
C            2.80396000000000       -1.41482000000000       -0.71477000000000
C            2.36067000000000       -1.47120000000000       -2.16911000000000
C            2.82093000000000       -0.27681000000000       -2.98620000000000
F            4.16570000000000       -0.10717000000000       -2.91142000000000
F            2.54413000000000       -0.46973000000000       -4.30861000000000
F            2.85447000000000       -2.61599000000000       -2.74117000000000
F            1.00561000000000       -1.57241000000000       -2.27234000000000
F            4.17303000000000       -1.50998000000000       -0.65032000000000
F            2.35525000000000       -2.52295000000000       -0.07026000000000
F            3.12767000000000        0.90255000000000       -0.59481000000000
H            3.75821000000000       -0.10706000000000        1.61436000000000
H            2.36874000000000        0.90943000000000        1.87028000000000
H            2.32352000000000        0.65238000000000       -2.69927000000000
21
 energy: -69.889517310772 gnorm: 0.055641296029 xtb: 6.7.1 (edcfbbe)
F            1.11795164876242        0.22541397755271       -0.31115637189956
C            2.37992700636569       -0.11608077394936        0.01288866968023
C            2.68096509028259       -0.07271500946957        1.50802862659716
O            2.15587497894891       -1.12225467895516        2.24358332669480
S            0.51658546496266       -1.12783997663105        2.43258690131156
O            0.19841541542694        0.26683046075414        2.70467876412802
O            0.02871924709236       -1.62424430635813        1.15703688108188
O            0.33000647620501       -2.02581967864890        3.55571173198941
C            2.79217722786996       -1.41641598828769       -0.69939875301654
C            2.36292185809845       -1.47762393187503       -2.17735439740836
C            2.81473602791368       -0.27218368638942       -3.00904985989009
F            4.15160561653664       -0.09934931525062       -2.92657049782515
F            2.54494108618760       -0.48861417637582       -4.32191478451788
F            2.86081752428826       -2.61690314583917       -2.74030860548336
F            1.01814325251451       -1.57921395843038       -2.28232308585500
F            4.15659215217567       -1.49817732228381       -0.64771467088362
F            2.35612831902657       -2.52573852255833       -0.07464682585720
F            3.13202716084813        0.88954248671198       -0.56586858858946
H            3.77392786011370       -0.10900968876978        1.62159090422243
H            2.30156291046248        0.88937429857881        1.88635012139174
H            2.30680367591776        0.65523293647456       -2.71794948587098
21
 energy: -69.893624060540 gnorm: 0.020873478906 xtb: 6.7.1 (edcfbbe)
F            1.12542178871108        0.23605088428188       -0.30385449953039
C            2.36958401450941       -0.11727753266271        0.04600623196604
C            2.67747181582983       -0.09179601702068        1.54804209194043
O            2.20619504256366       -1.15241047142316        2.24803055313878
S            0.53249465305606       -1.11467966134548        2.40868021514583
O            0.25353628428543        0.28711865710620        2.66957429585775
O            0.03883994585931       -1.60358497283386        1.14030564364625
O            0.32070293307664       -1.99619102678896        3.52932674702674
C            2.78399032548882       -1.42634389563583       -0.68220656086568
C            2.35874438386733       -1.48348299081386       -2.18225810299880
C            2.80989573764287       -0.26657967394223       -3.02702157762359
F            4.13747978079468       -0.08378106766365       -2.94260199058066
F            2.54104278735636       -0.50450803330591       -4.32714202071758
F            2.86767866661683       -2.61269010553790       -2.73166170006018
F            1.02494672742897       -1.58754811858816       -2.29165671488573
F            4.14493130363065       -1.48866841872674       -0.64443002117279
F            2.35972657652716       -2.53606724993246       -0.08272244249826
F            3.14244651166436        0.87283102048207       -0.54204428423360
H            3.77638754981773       -0.07990252949300        1.62654339512442
H            2.22168325094280        0.85014652239764        1.91509463781780
H            2.28762992032997        0.65357468144679       -2.72580389649664
21
 energy: -69.894415888997 gnorm: 0.015047914874 xtb: 6.7.1 (edcfbbe)
F            1.13564969450526        0.25124694713013       -0.30426689204484
C            2.37178046516187       -0.11756024832992        0.05239262651619
C            2.67407449302466       -0.09727309457817        1.56115237487606
O            2.22697426444117       -1.17493991023955        2.24850531053561
S            0.53663136493664       -1.11255927431566        2.39628478550925
O            0.28446835088038        0.29490680183408        2.64951360029620
O            0.04735712793425       -1.59422802238512        1.12681791418827
O            0.30271783983580       -1.98660659250905        3.51557191907937
C            2.78375491862805       -1.42992601209500       -0.67657214453306
C            2.35568462862178       -1.48572294039607       -2.18061715694346
C            2.80219880649049       -0.26662206751894       -3.03138472585286
F            4.12703589201372       -0.07250917121863       -2.95135678830670
F            2.53096735529774       -0.51472151881062       -4.32767649249556
F            2.87212261302647       -2.61202810526092       -2.72486408780520
F            1.02362354830008       -1.59428516390692       -2.29192587656865
F            4.14474572005479       -1.48597373563314       -0.64342249793078
F            2.36297472210328       -2.54203735082401       -0.08485793025862
F            3.16004280257127        0.86625594134148       -0.52893204627515
H            3.77277075723637       -0.04795591824236        1.63706276097826
H            2.19369516559229        0.82793861368874        1.93718630970140
H            2.27155946934355        0.64881082226965       -2.73041096266556
21
 energy: -69.894850817682 gnorm: 0.008448596670 xtb: 6.7.1 (edcfbbe)
F            1.15446278284181        0.27340375299967       -0.31022171031203
C            2.38300083691144       -0.11639146228172        0.05234275500533
C            2.67364961142837       -0.09638321195540        1.56680108779518
O            2.24173396437105       -1.19129568420735        2.24535868685123
S            0.53641039261387       -1.11409261387989        2.38349056466482
O            0.30155347462633        0.29584235970583        2.63294756593763
O            0.05953849350188       -1.58687624172419        1.10811478507577
O            0.28077290563303       -1.98572430688154        3.49888614228504
C            2.78658028464387       -1.43183010619596       -0.67195844520765
C            2.35259930095662       -1.48769045181902       -2.17417271394309
C            2.78968006603368       -0.26813792181354       -3.02890606490531
F            4.11344121030803       -0.06149012106062       -2.95873719381811
F            2.51229657362623       -0.52272471412942       -4.32349954620085
F            2.87465785192498       -2.61276032288263       -2.71745263306691
F            1.01970086966014       -1.60193942425809       -2.28434060321157
F            4.14834224183379       -1.48799604310840       -0.64428894475009
F            2.36697435232427       -2.54604560335953       -0.08188730351779
F            3.18952748628201        0.85740304561727       -0.52261469337458
H            3.76846517941241       -0.01389276413935        1.65362505526662
H            2.17509495204294        0.81005989719621        1.95342320417628
H            2.25234716902310        0.64277193817767       -2.72870999474959
21
 energy: -69.895050883393 gnorm: 0.004450599592 xtb: 6.7.1 (edcfbbe)
F            1.17494059120181        0.29082182786954       -0.31741920072668
C            2.39822087090400       -0.11478945227365        0.05044938390606
C            2.67627083546884       -0.09063111697237        1.56694285318085
O            2.24761072439668       -1.19305604599088        2.24072461195428
S            0.53374548417632       -1.11675333582409        2.37279048207829
O            0.29872435914011        0.29068895640563        2.62730650452948
O            0.07191053353801       -1.58040065331549        1.08869097147783
O            0.26668189734751       -1.99379653383223        3.48089132495643
C            2.79098036629736       -1.43311903495280       -0.66851344890831
C            2.35029271750713       -1.48952211805567       -2.16628062413307
C            2.77743829310001       -0.26981090805172       -3.02211916751998
F            4.10130337934853       -0.05649101655993       -2.96280045674051
F            2.49209344869609       -0.52454409444130       -4.31630055527544
F            2.87314859486926       -2.61404402722693       -2.71298608424655
F            1.01593662899655       -1.60785839816646       -2.27148838328842
F            4.15329326915664       -1.49474415180440       -0.64658952123717
F            2.37083145055559       -2.54681802497384       -0.07476875268075
F            3.21811232848369        0.84868163687006       -0.52312773434889
H            3.76690088251617        0.00699796346896        1.66808921290239
H            2.16433855872283        0.80481800180028        1.95458817667636
H            2.23805478557664        0.63858052602729       -2.71987959255578
21
 energy: -69.895223203289 gnorm: 0.005508764878 xtb: 6.7.1 (edcfbbe)
F            1.20374712918150        0.31143080726373       -0.32942600564189
C            2.42012034653702       -0.11189719330728        0.04841662712748
C            2.67890137997593       -0.08086908714215        1.56646549695734
O            2.25253399655044       -1.18902479836965        2.23452581353857
S            0.53083984021548       -1.12052677165344        2.35842410262334
O            0.28918777168433        0.28147371524732        2.62851602928031
O            0.08939311891926       -1.56768061431888        1.06022724028456
O            0.25344566803769       -2.01153736464767        3.45242007759844
C            2.79748841008501       -1.43543120098121       -0.66377292642625
C            2.34705294951241       -1.49283216287374       -2.15558357918474
C            2.76133619955098       -0.27208690497865       -3.01166393778332
F            4.08569760871982       -0.05497407667775       -2.96707840576353
F            2.46375676907500       -0.52336196861998       -4.30514674283012
F            2.86849871714492       -2.61622310712501       -2.70889422980774
F            1.01126012148746       -1.61591031494926       -2.25147617122908
F            4.16016754298792       -1.50699952110181       -0.65020862089002
F            2.37600847540034       -2.54610089236642       -0.06271380724182
F            3.25629664695315        0.83727723012677       -0.52499369385410
H            3.76525157253491        0.03002094367089        1.68630604197250
H            2.14733036732458        0.80515466052083        1.94720181501222
H            2.22251536812155        0.63430862228338       -2.70334512374157
21
 energy: -69.895357985990 gnorm: 0.007939991773 xtb: 6.7.1 (edcfbbe)
F            1.23451496198603        0.33207910214980       -0.34514027735131
C            2.44272949868604       -0.10783444481464        0.04712779485053
C            2.67905828325944       -0.07031770370578        1.56719796322405
O            2.25582388501304       -1.18227513617535        2.22949065416701
S            0.52904390914364       -1.12419302408812        2.34289146753419
O            0.27875519653521        0.27130872228657        2.63720995960479
O            0.10750512951829       -1.54845310373845        1.02859030936203
O            0.24316136344757       -2.03562925368627        3.41778640961291
C            2.80489935601715       -1.43827715579117       -0.65857904389374
C            2.34321253850137       -1.49751117163776       -2.14516036485290
C            2.74459563571341       -0.27471807502648       -3.00177548564295
F            4.06955047839763       -0.05698534135694       -2.97259536587174
F            2.43271425156624       -0.52113332397367       -4.29363328741235
F            2.86325333448314       -2.61890027928742       -2.70534666765330
F            1.00682039611766       -1.62638934780504       -2.22966313780182
F            4.16766314598292       -1.52032471524733       -0.65434864944964
F            2.38247923937333       -2.54426620005138       -0.04890516971750
F            3.29611918837461        0.82666528156709       -0.52405509709277
H            3.76202262213166        0.05173206358785        1.70528562136471
H            2.12839663305611        0.80914844143832        1.93667154330753
H            2.20851095269515        0.63048466535621       -2.68484917628702
21
 energy: -69.895502850278 gnorm: 0.009658553687 xtb: 6.7.1 (edcfbbe)
F            1.27182550961717        0.35702404526697       -0.36710403112312
C            2.46862891628283       -0.10194315798332        0.04622645579360
C            2.67641789514061       -0.05821374203794        1.56962155838565
O            2.25768556597101       -1.17301320448132        2.22606268770855
S            0.52818011673596       -1.12812000550008        2.32383490561248
O            0.26676751187145        0.25874264376851        2.65427968792068
O            0.12833220592457       -1.51892783680761        0.99000924962944
O            0.23344461300242       -2.06920719279329        3.37138034618079
C            2.81430199829421       -1.44160081480444       -0.65224800185033
C            2.33793985387331       -1.50424182566925       -2.13368766802162
C            2.72461283452235       -0.27835354644750       -2.99193878937333
F            4.05033398308612       -0.06251287285405       -2.98149462619997
F            2.39392998873050       -0.51888805803372       -4.28056370502205
F            2.85790098397343       -2.62232353698276       -2.70096238178894
F            1.00190569987365       -1.64164741913852       -2.20381048429071
F            4.17686446504551       -1.53481135002864       -0.66012782165480
F            2.39196636106455       -2.54107340721222       -0.03168470419425
F            3.34360312787861        0.81533696867032       -0.51836825659876
H            3.75589604081843        0.07617276996597        1.72784891767569
H            2.10638031706980        0.81556207064705        1.92435693897328
H            2.19391201122305        0.62624947245593       -2.66343027776138
21
 energy: -69.895646507953 gnorm: 0.010219675713 xtb: 6.7.1 (edcfbbe)
F            1.30764172823411        0.38099170339434       -0.38919047627996
C            2.49150784142388       -0.09589380045426        0.04647391872141
C            2.67171800038779       -0.04812639772897        1.57374724700142
O            2.25743477897062       -1.16382674126262        2.22676835030158
S            0.52885448690914       -1.13118314845904        2.30466761089062
O            0.25577160459759        0.24648117774984        2.67225464848266
O            0.14796918062133       -1.48683867381125        0.95403537855247
O            0.22599051194357       -2.10242001150764        3.32322630644973
C            2.82351566649409       -1.44426457480416       -0.64618577266699
C            2.33194886314353       -1.51125951989145       -2.12371888437903
C            2.70563109582627       -0.28219545584329       -2.98486186364815
F            4.03213426246834       -0.07072154629250       -2.99304441109275
F            2.35505300650260       -0.51773345768686       -4.26878032734749
F            2.85399536933683       -2.62535320749502       -2.69615219246701
F            0.99745672798336       -1.65826184442029       -2.18009277457612
F            4.18552500618563       -1.54563734660256       -0.66722219726029
F            2.40332232168806       -2.53729090642389       -0.01503212256496
F            3.38787109339027        0.80538532176607       -0.50735004152410
H            3.74800853494806        0.09773160243871        1.74879971911327
H            2.08690037041591        0.82177773955294        1.91469010713881
H            2.18257954852847        0.62284908778204       -2.64483222284406
21
 energy: -69.895807794545 gnorm: 0.008559031171 xtb: 6.7.1 (edcfbbe)
F            1.33487195401124        0.39940912400198       -0.40438787405060
C            2.50632934434012       -0.09141033728958        0.04886775297715
C            2.66671629035732       -0.04243602719829        1.57948198931587
O            2.25523793443094       -1.15663439950304        2.23352283057290
S            0.53157694245247       -1.13284246635074        2.28771196902557
O            0.24729210055130        0.23665922024228        2.68129001370793
O            0.16525273897746       -1.46154430507350        0.92778599760624
O            0.22153090800517       -2.12551709719935        3.28265130834866
C            2.83021718333303       -1.44543113385785       -0.64144345089629
C            2.32566805531785       -1.51665784247976       -2.11688497842499
C            2.69119739739264       -0.28551452934214       -2.98201738354025
F            4.01843908234658       -0.08084561855640       -3.00590513456525
F            2.32268720067362       -0.51822557089106       -4.26024153568677
F            2.85168722405241       -2.62701891579121       -2.69137323438226
F            0.99372435247120       -1.67205003627525       -2.16332117154305
F            4.19138615912407       -1.54956711065587       -0.67515244363309
F            2.41484691115019       -2.53398134395628       -0.00221806726478
F            3.41955038792378        0.79808774252488       -0.49184997519906
H            3.74051952295429        0.11214370114752        1.76426099525148
H            2.07446445602022        0.82610674777678        1.91069758860527
H            2.17763385411351        0.62148019872703       -2.63327519622349
21
 energy: -69.895948555782 gnorm: 0.007025394394 xtb: 6.7.1 (edcfbbe)
F            1.35918429088122        0.41934525880081       -0.41237295551930
C            2.51816480452119       -0.08757844241977        0.05325269325828
C            2.66463334593532       -0.03717223851900        1.58688166618682
O            2.25464528941640       -1.15234975734907        2.24301893406116
S            0.53567696866298       -1.13478774526252        2.26783692384979
O            0.24137048461205        0.22644958120474        2.68050714929053
O            0.18770711585290       -1.43808762025126        0.89908227445976
O            0.21327550704079       -2.14549985201028        3.23971063886466
C            2.83491919148932       -1.44508140445601       -0.63586756468999
C            2.31813119113433       -1.52084690644185       -2.10878016471248
C            2.67702147764391       -0.28996182640068       -2.97984657873574
F            4.00520521032907       -0.09177219358567       -3.02099303850820
F            2.28982337950098       -0.52253820442089       -4.25183321555413
F            2.84884299316889       -2.62879352682599       -2.68345702952132
F            0.98840861938205       -1.68334946537678       -2.14808993603256
F            4.19548367544251       -1.54876398808426       -0.68346384899679
F            2.42692588574222       -2.53168450611926        0.01034324025605
F            3.44789730554964        0.79030269391365       -0.47549117328933
H            3.73554259547971        0.12849005925234        1.77969874463610
H            2.06443069818653        0.82807862821424        1.91340754699078
H            2.17353997002729        0.61981145613766       -2.62534430629271
21
 energy: -69.896064359741 gnorm: 0.006527685903 xtb: 6.7.1 (edcfbbe)
F            1.38709106244539        0.44668219361040       -0.41694096983483
C            2.53198642713190       -0.08198184466263        0.05902678655197
C            2.66575113843809       -0.02895401820229        1.59489711738316
O            2.25588441072573       -1.14664574473276        2.25252104975677
S            0.54032227127753       -1.13840219201833        2.24154899123615
O            0.23175396194667        0.21220302508594        2.67473017989931
O            0.22048870005512       -1.41181128490304        0.85943331620874
O            0.20108130310602       -2.17104267408121        3.18483757358559
C            2.83862393977771       -1.44293358805648       -0.62777512504803
C            2.30860464920304       -1.52484906683192       -2.09619911242606
C            2.65952477446445       -0.29663448665888       -2.97523681739590
F            3.98867144003264       -0.10494909055271       -3.03778465196395
F            2.25081607271841       -0.53081992079036       -4.24035439867805
F            2.84304095062906       -2.63226685008800       -2.67012208906263
F            0.98038286145835       -1.69353125905214       -2.12879116640345
F            4.19887299284102       -1.54569808900394       -0.69162913259910
F            2.44100008627777       -2.52907361512613        0.02655950892944
F            3.48091760252884        0.78106947469668       -0.46070344987983
H            3.73200396840627        0.14659913950237        1.79775693210517
H            2.05683475917343        0.83042847795489        1.91864767343434
H            2.16717662736177        0.61682141391075       -2.61622221579722
21
 energy: -69.896158391729 gnorm: 0.005459109568 xtb: 6.7.1 (edcfbbe)
F            1.40631691628934        0.47173207186124       -0.41097238113758
C            2.53928510108001       -0.07649050132903        0.06694014668243
C            2.67059200693122       -0.02203328602194        1.60243362505640
O            2.25854656946562       -1.14093817852269        2.26244111111045
S            0.54617325733878       -1.14292315672169        2.21538838535669
O            0.21949681436152        0.19784428002048        2.65534990916527
O            0.25724017339707       -1.39803219942930        0.82439556556497
O            0.19246686241559       -2.18840681261566        3.13571804977947
C            2.83756977303406       -1.43831685318217       -0.61948277546170
C            2.29810094448934       -1.52597069333718       -2.08325695775852
C            2.64665324244087       -0.30387105601284       -2.97087471351768
F            3.97605063006599       -0.12037576378248       -3.05065185210182
F            2.22149696973415       -0.54199883665134       -4.22962377840210
F            2.83217805290266       -2.63659042041809       -2.65349272147565
F            0.97053044854021       -1.69437612067649       -2.11357993438619
F            4.19768479016446       -1.53741662519180       -0.69755846557484
F            2.45351862895798       -2.52704060720778        0.04005136702548
F            3.50135800912708        0.77500392252436       -0.44971788193291
H            3.73285355045781        0.15632082764789        1.81037256275471
H            2.05719993138744        0.83313038382673        1.92615837637946
H            2.16551732741796        0.61495962522003       -2.61183763712459
21
 energy: -69.896169361168 gnorm: 0.010844826518 xtb: 6.7.1 (edcfbbe)
F            1.45302185711278        0.51999364437143       -0.41737313662358
C            2.56431718940351       -0.06494732606638        0.07635881520848
C            2.67525251798849       -0.00502352363872        1.61372512397181
O            2.26455500842057       -1.12989624965496        2.26992555183935
S            0.55289360356196       -1.15197409346271        2.16979491540599
O            0.19803585313157        0.17102271010635        2.64465206019446
O            0.31689441740915       -1.35915910368619        0.75373724738880
O            0.17537784508802       -2.23572737587534        3.04110240357644
C            2.84179367422818       -1.43387508468912       -0.60434608818148
C            2.28085320176204       -1.53128362557731       -2.05844235462107
C            2.61890112391368       -0.31657879618772       -2.95906406660609
F            3.94886313249202       -0.14404531404367       -3.07166532830010
F            2.16240270172857       -0.55730751726629       -4.20803171159087
F            2.81121963785473       -2.64592138727899       -2.62740937898974
F            0.95340847636597       -1.70163300776708       -2.07665880800403
F            4.20196144661116       -1.53477618990269       -0.70781144935235
F            2.47647093863037       -2.52235201908671        0.06819097259830
F            3.55610900069985        0.76177314257694       -0.43399938009056
H            3.73161837962293        0.18625974666458        1.84048212482009
H            2.04268547000135        0.84096603479316        1.92916827637555
H            2.15419452397208        0.60869533567175       -2.59413578901728
21
 energy: -69.896263527704 gnorm: 0.004078115098 xtb: 6.7.1 (edcfbbe)
F            1.43695079643474        0.50738455472527       -0.40974729168062
C            2.55476642028397       -0.06666393702946        0.07559505768464
C            2.67591881769307       -0.00931549608982        1.61078774342097
O            2.26302011948858       -1.13228551773891        2.26613180856576
S            0.55137115460195       -1.15132935670729        2.17941224342269
O            0.19896244825660        0.17622443961240        2.63799769243749
O            0.30514940490978       -1.37706835112759        0.77297777706628
O            0.18371968024382       -2.22119629646319        3.06446142774564
C            2.83849322225243       -1.43254981917034       -0.60746655235943
C            2.28325195526332       -1.52791016677646       -2.06268776459620
C            2.62894966785784       -0.31488757398441       -2.96147895231534
F            3.95805242676626       -0.14187537315316       -3.06324465986343
F            2.18353756850563       -0.55647627500813       -4.21302791757252
F            2.80793512098907       -2.64590306694548       -2.62981775070591
F            0.95446875514311       -1.69053933602373       -2.08507362733578
F            4.19903592518402       -1.53085227358760       -0.70499664917644
F            2.47377451053491       -2.52331908271296        0.06077700272351
F            3.53465945237882        0.76904229915018       -0.44035692444572
H            3.73518248056424        0.17200149849428        1.82993031333475
H            2.05306141668347        0.84132118497326        1.92944041006218
H            2.16056865596340        0.61040794556344       -2.60141338641051
21
 energy: -69.896298797928 gnorm: 0.002953734008 xtb: 6.7.1 (edcfbbe)
F            1.44425975088770        0.51600196502977       -0.40815285019420
C            2.55838204391653       -0.06279864169682        0.07887959602154
C            2.67693779633478       -0.00617530377240        1.61378882150099
O            2.26334174952566       -1.12984126457878        2.26603523435105
S            0.55234754759307       -1.15440726825011        2.16798051895126
O            0.19103900081745        0.16920866153022        2.63140615287216
O            0.31905281215412       -1.37201715174447        0.75847557705845
O            0.18276418615571       -2.23163046285391        3.04170033802098
C            2.83950803427741       -1.42943113652941       -0.60385079385679
C            2.27767084289133       -1.52775542040337       -2.05563628092984
C            2.62536466666459       -0.31921821367494       -2.95935321756128
F            3.95417509924994       -0.15077751322000       -3.06637484706825
F            2.17507484427883       -0.56299255827969       -4.20865030178685
F            2.79465430531134       -2.65043770532851       -2.62087419028017
F            0.94787256571556       -1.68422375026533       -2.07398607684073
F            4.20048529466103       -1.52529809323488       -0.70894843297794
F            2.48451039017294       -2.52122666835271        0.06763173827766
F            3.54083743904952        0.77064349624839       -0.43687611457983
H            3.73649874235699        0.17260109604695        1.83459855252725
H            2.05503160872722        0.84519356675957        1.93100536904547
H            2.16102127925730        0.60879236657075       -2.60059879254880
21
 energy: -69.896342690209 gnorm: 0.002308646556 xtb: 6.7.1 (edcfbbe)
F            1.46394973547079        0.53758550973098       -0.40972792895375
C            2.56916473383490       -0.05356960753765        0.08537272871099
C            2.67770065448046        0.00007469598951        1.62152850878092
O            2.26407363325481       -1.12558173109788        2.26719134878273
S            0.55370648981227       -1.16171878648245        2.14309352783537
O            0.17474605533590        0.15319733497127        2.61882765571164
O            0.34883329018154       -1.35958395821343        0.72613167275860
O            0.17796580367651       -2.25609405112988        2.99149808710759
C            2.84424850185736       -1.42282559119528       -0.59648802568124
C            2.26490113737219       -1.52826483039063       -2.04039228572114
C            2.61595615699338       -0.32907427150193       -2.95585657936281