      -----------------------------------------------------------      
     |                   =====================                   |     
     |                           x T B                           |     
     |                   =====================                   |     
     |                         S. Grimme                         |     
     |          Mulliken Center for Theoretical Chemistry        |     
     |                    University of Bonn                     |     
      -----------------------------------------------------------      

   * xtb version 6.7.1 (edcfbbe) compiled by 'conda@3ef47c1a292c' on 2024-11-25

   xtb is free software: you can redistribute it and/or modify it under
   the terms of the GNU Lesser General Public License as published by
   the Free Software Foundation, either version 3 of the License, or
   (at your option) any later version.
   
   xtb is distributed in the hope that it will be useful,
   but WITHOUT ANY WARRANTY; without even the implied warranty of
   MERCHANTABILITY or FITNESS FOR A PARTICULAR PURPOSE.  See the
   GNU Lesser General Public License for more details.
   
   Cite this work as:
   * C. Bannwarth, E. Caldeweyher, S. Ehlert, A. Hansen, P. Pracht,
     J. Seibert, S. Spicher, S. Grimme, WIREs Comput. Mol. Sci., 2020, 11,
     e01493. DOI: 10.1002/wcms.1493
   
   for GFN2-xTB:
   * C. Bannwarth, S. Ehlert and S. Grimme., J. Chem. Theory Comput., 2019,
     15, 1652-1671. DOI: 10.1021/acs.jctc.8b01176
   for GFN1-xTB:
   * S. Grimme, C. Bannwarth, P. Shushkov, J. Chem. Theory Comput., 2017,
     13, 1989-2009. DOI: 10.1021/acs.jctc.7b00118
   for GFN0-xTB:
   * P. Pracht, E. Caldeweyher, S. Ehlert, S. Grimme, ChemRxiv, 2019, preprint.
     DOI: 10.26434/chemrxiv.8326202.v1
   for GFN-FF:
   * S. Spicher and S. Grimme, Angew. Chem. Int. Ed., 2020, 59, 15665-15673.
     DOI: 10.1002/anie.202004239
   
   for ALPB and GBSA implicit solvation:
   * S. Ehlert, M. Stahn, S. Spicher, S. Grimme, J. Chem. Theory Comput.,
     2021, 17, 4250-4261. DOI: 10.1021/acs.jctc.1c00471
   
   for ddCOSMO and CPCM-X implicit solvation:
   * M. Stahn, S. Ehlert, S. Grimme, J. Phys. Chem. A,
     2023, XX, XXXX-XXXX. DOI: 10.1021/acs.jpca.3c04382
   
   for DFT-D4:
   * E. Caldeweyher, C. Bannwarth and S. Grimme, J. Chem. Phys., 2017,
     147, 034112. DOI: 10.1063/1.4993215
   * E. Caldeweyher, S. Ehlert, A. Hansen, H. Neugebauer, S. Spicher,
     C. Bannwarth and S. Grimme, J. Chem. Phys., 2019, 150, 154122.
     DOI: 10.1063/1.5090222
   * E. Caldeweyher, J.-M. Mewes, S. Ehlert and S. Grimme, Phys. Chem. Chem. Phys.
     2020, 22, 8499-8512. DOI: 10.1039/D0CP00502A
   
   for sTDA-xTB:
   * S. Grimme and C. Bannwarth, J. Chem. Phys., 2016, 145, 054103.
     DOI: 10.1063/1.4959605
   
   in the mass-spec context:
   * V. Asgeirsson, C. Bauer and S. Grimme, Chem. Sci., 2017, 8, 4879.
     DOI: 10.1039/c7sc00601b
   * J. Koopman and S. Grimme, ACS Omega 2019, 4, 12, 15120-15133.
     DOI: 10.1021/acsomega.9b02011
   
   for metadynamics refer to:
   * S. Grimme, J. Chem. Theory Comput., 2019, 155, 2847-2862
     DOI: 10.1021/acs.jctc.9b00143
   
   for SPH calculations refer to:
   * S. Spicher and S. Grimme, J. Chem. Theory Comput., 2021, 17, 1701-1714
     DOI: 10.1021/acs.jctc.0c01306
   
   for ONIOM refer to:
   * C. Plett, A. Katbashev, S. Ehlert, S. Grimme, M. Bursch,
     Phys. Chem. Chem. Phys., 2023, 25, 17860-17868. DOI: 10.1039/D3CP02178E
   
   for DIPRO refer to:
   * J. Kohn, N. Gildemeister, S. Grimme, D. Fazzi, A. Hansen,
     J. Chem. Phys., 2023, just accepted.
   
   for PTB refer to:
   * S. Grimme, M. Mueller, A. Hansen, J. Chem. Phys., 2023, 158, 124111.
     DOI: 10.1063/5.0137838
   
   with help from (in alphabetical order)
   P. Atkinson, C. Bannwarth, F. Bohle, G. Brandenburg, E. Caldeweyher
   M. Checinski, S. Dohm, S. Ehlert, S. Ehrlich, I. Gerasimov, C. Hölzer
   A. Katbashev, J. Kohn, J. Koopman, C. Lavigne, S. Lehtola, F. März, M. Müller,
   F. Musil, H. Neugebauer, J. Pisarek, C. Plett, P. Pracht, F. Pultar,
   J. Seibert, P. Shushkov, S. Spicher, M. Stahn, M. Steiner, T. Strunk,
   J. Stückrath, T. Rose, and J. Unsleber
   
 * started run on 2024/12/20 at 01:52:48.539     
   ID    Z sym.   atoms
    1    6 C      1, 2, 7, 8
    2    8 O      3, 5, 6, 9
    3   15 P      4
    4    1 H      10-19

           -------------------------------------------------
          |                Calculation Setup                |
           -------------------------------------------------

          program call               : xtb A052.xyz --opt --namespace A052 --charge -1
          calculation namespace      : A052
          coordinate file            : A052.xyz
          omp threads                :                     8


           -------------------------------------------------
          |                 G F N 2 - x T B                 |
           -------------------------------------------------

        Reference                      10.1021/acs.jctc.8b01176
      * Hamiltonian:
        H0-scaling (s, p, d)           1.850000    2.230000    2.230000
        zeta-weighting                 0.500000
      * Dispersion:
        s8                             2.700000
        a1                             0.520000
        a2                             5.000000
        s9                             5.000000
      * Repulsion:
        kExp                           1.500000    1.000000
        rExp                           1.000000
      * Coulomb:
        alpha                          2.000000
        third order                    shell-resolved
        anisotropic                    true
        a3                             3.000000
        a5                             4.000000
        cn-shift                       1.200000
        cn-exp                         4.000000
        max-rad                        5.000000


          ...................................................
          :                      SETUP                      :
          :.................................................:
          :  # basis functions                  52          :
          :  # atomic orbitals                  51          :
          :  # shells                           29          :
          :  # electrons                        56          :
          :  max. iterations                   250          :
          :  Hamiltonian                  GFN2-xTB          :
          :  restarted?                      false          :
          :  GBSA solvation                  false          :
          :  PC potential                    false          :
          :  electronic temp.          300.0000000     K    :
          :  accuracy                    1.0000000          :
          :  -> integral cutoff          0.2500000E+02      :
          :  -> integral neglect         0.1000000E-07      :
          :  -> SCF convergence          0.1000000E-05 Eh   :
          :  -> wf. convergence          0.1000000E-03 e    :
          :  Broyden damping             0.4000000          :
          :  net charge                         -1          :
          :  unpaired electrons                  0          :
          ...................................................

 iter      E             dE          RMSdq      gap      omega  full diag
   1    -32.7125319 -0.327125E+02  0.729E+00    2.57       0.0  T
   2    -32.8779846 -0.165453E+00  0.403E+00    1.06       1.0  T
   3    -32.8851750 -0.719044E-02  0.154E+00    0.64       1.0  T
   4    -32.8905058 -0.533085E-02  0.939E-01    0.76       1.0  T
   5    -32.8939699 -0.346407E-02  0.379E-01    0.72       1.0  T
   6    -32.8942915 -0.321621E-03  0.166E-01    0.75       1.0  T
   7    -32.8943306 -0.390411E-04  0.697E-02    0.73       1.0  T
   8    -32.8943390 -0.845375E-05  0.213E-02    0.75       1.1  T
   9    -32.8943403 -0.122709E-05  0.670E-03    0.74       3.4  T
  10    -32.8943404 -0.103320E-06  0.220E-03    0.74      10.4  T
  11    -32.8943404 -0.412751E-08  0.104E-03    0.74      22.0  T
  12    -32.8943404 -0.155911E-08  0.220E-04    0.74     104.4  T
  13    -32.8943404 -0.122604E-09  0.929E-05    0.74     246.9  T

   *** convergence criteria satisfied after 13 iterations ***

         #    Occupation            Energy/Eh            Energy/eV
      -------------------------------------------------------------
         1        2.0000           -0.5417671             -14.7422
       ...           ...                  ...                  ...
        22        2.0000           -0.2915607              -7.9338
        23        2.0000           -0.2595384              -7.0624
        24        2.0000           -0.2532991              -6.8926
        25        2.0000           -0.2132154              -5.8019
        26        2.0000           -0.2051802              -5.5832
        27        2.0000           -0.2014734              -5.4824
        28        2.0000           -0.1695760              -4.6144 (HOMO)
        29        0.0000           -0.1423615              -3.8739 (LUMO)
        30                          0.0738483               2.0095
        31                          0.1751109               4.7650
        32                          0.1997879               5.4365
        33                          0.2403322               6.5398
       ...                                ...                  ...
        51                          1.5972267              43.4628
      -------------------------------------------------------------
                  HL-Gap            0.0272145 Eh            0.7405 eV
             Fermi-level           -0.1559688 Eh           -4.2441 eV

 SCC (total)                   0 d,  0 h,  0 min,  0.013 sec
 SCC setup                      ...        0 min,  0.000 sec (  2.350%)
 Dispersion                     ...        0 min,  0.000 sec (  2.673%)
 classical contributions        ...        0 min,  0.000 sec (  1.838%)
 integral evaluation            ...        0 min,  0.002 sec ( 13.295%)
 iterations                     ...        0 min,  0.008 sec ( 56.829%)
 molecular gradient             ...        0 min,  0.003 sec ( 22.336%)
 printout                       ...        0 min,  0.000 sec (  0.555%)

         :::::::::::::::::::::::::::::::::::::::::::::::::::::
         ::                     SUMMARY                     ::
         :::::::::::::::::::::::::::::::::::::::::::::::::::::
         :: total energy             -32.659903504906 Eh    ::
         :: gradient norm              0.220720275316 Eh/a0 ::
         :: HOMO-LUMO gap              0.740543315690 eV    ::
         ::.................................................::
         :: SCC energy               -32.894248886016 Eh    ::
         :: -> isotropic ES            0.241243790904 Eh    ::
         :: -> anisotropic ES          0.000795132463 Eh    ::
         :: -> anisotropic XC          0.011485902532 Eh    ::
         :: -> dispersion             -0.014708030784 Eh    ::
         :: repulsion energy           0.234345381111 Eh    ::
         :: add. restraining           0.000000000000 Eh    ::
         :: total charge              -1.000000000000 e     ::
         :::::::::::::::::::::::::::::::::::::::::::::::::::::

      ----------------------------------------------------------- 
     |                   =====================                   |
     |                        A N C O P T                        |
     |                   =====================                   |
     |               Approximate Normal Coordinate               |
     |                Rational Function Optimizer                |
      ----------------------------------------------------------- 
      ----------------------------------------------------------- 
     |                   =====================                   |
     |                        A N C O P T                        |
     |                   =====================                   |
     |               Approximate Normal Coordinate               |
     |                Rational Function Optimizer                |
      ----------------------------------------------------------- 

          ...................................................
          :                      SETUP                      :
          :.................................................:
          :   optimization level            normal          :
          :   max. optcycles                   200          :
          :   ANC micro-cycles                  20          :
          :   degrees of freedom                51          :
          :.................................................:
          :   RF solver                   davidson          :
          :   write xtbopt.log                true          :
          :   linear?                        false          :
          :   energy convergence         0.5000000E-05 Eh   :
          :   grad. convergence          0.1000000E-02 Eh/α :
          :   maxmium RF displ.          1.0000000          :
          :   Hlow (freq-cutoff)         0.1000000E-01      :
          :   Hmax (freq-cutoff)         5.0000000          :
          :   S6 in model hess.         20.0000000          :
          ...................................................

generating ANC from exact Hessian ...
Using Lindh-Hessian (1995)
 Shifting diagonal of input Hessian by    8.8305752423363231E-003
 Lowest  eigenvalues of input Hessian
    0.000000    0.000000    0.000000    0.000000    0.000000    0.000000
    0.010000    0.011163    0.011448    0.014606    0.017038    0.018958
    0.025963    0.029564    0.033599    0.037183    0.050313    0.051803
 Highest eigenvalues
    1.253794    1.295336    1.384915    1.548449    1.754559    2.133071


........................................................................
.............................. CYCLE    1 ..............................
........................................................................

 iter      E             dE          RMSdq      gap      omega  full diag
   1    -32.8943404 -0.328943E+02  0.233E-05    0.74       0.0  T
   2    -32.8943404 -0.525802E-12  0.158E-05    0.74    1447.6  T
   3    -32.8943404 -0.142109E-12  0.627E-06    0.74    3658.0  T
     SCC iter.                  ...        0 min,  0.003 sec
     gradient                   ...        0 min,  0.001 sec
 * total energy  :   -32.6599035 Eh     change       -0.3919354E-10 Eh
   gradient norm :     0.2207197 Eh/α   predicted     0.0000000E+00 (-100.00%)
   displ. norm   :     0.6171733 α      lambda       -0.9210912E-01
   maximum displ.:     0.3276701 α      in ANC's #9, #27, #30, ...

........................................................................
.............................. CYCLE    2 ..............................
........................................................................

 iter      E             dE          RMSdq      gap      omega  full diag
   1    -32.9706473 -0.329706E+02  0.128E+00    2.39       0.0  T
   2    -32.9720298 -0.138256E-02  0.772E-01    2.53       1.0  T
   3    -32.9720668 -0.369806E-04  0.295E-01    2.57       1.0  T
   4    -32.9722859 -0.219074E-03  0.103E-01    2.58       1.0  T
   5    -32.9722994 -0.134927E-04  0.409E-02    2.59       1.0  T
   6    -32.9723030 -0.361779E-05  0.150E-02    2.58       1.5  T
   7    -32.9723032 -0.250402E-06  0.785E-03    2.58       2.9  T
   8    -32.9723033 -0.758642E-07  0.149E-03    2.58      15.4  T
   9    -32.9723033 -0.338066E-08  0.530E-04    2.58      43.3  T
  10    -32.9723033 -0.714870E-09  0.226E-04    2.58     101.4  T
     SCC iter.                  ...        0 min,  0.005 sec
     gradient                   ...        0 min,  0.001 sec
 * total energy  :   -32.7319847 Eh     change       -0.7208122E-01 Eh
   gradient norm :     0.1622522 Eh/α   predicted    -0.6361107E-01 ( -11.75%)
   displ. norm   :     0.5688328 α      lambda       -0.6695589E-01
   maximum displ.:     0.2066173 α      in ANC's #36, #9, #33, ...

........................................................................
.............................. CYCLE    3 ..............................
........................................................................

 iter      E             dE          RMSdq      gap      omega  full diag
   1    -33.0316901 -0.330317E+02  0.116E+00    4.44       0.0  T
   2    -33.0337635 -0.207333E-02  0.528E-01    4.68       1.0  T
   3    -33.0339629 -0.199384E-03  0.218E-01    4.73       1.0  T
   4    -33.0339924 -0.295471E-04  0.839E-02    4.76       1.0  T
   5    -33.0339944 -0.204890E-05  0.179E-02    4.76       1.3  T
   6    -33.0339952 -0.744417E-06  0.803E-03    4.76       2.9  T
   7    -33.0339953 -0.853552E-07  0.414E-03    4.76       5.5  T
   8    -33.0339953 -0.174588E-07  0.143E-03    4.76      16.1  T
   9    -33.0339953 -0.183535E-08  0.571E-04    4.76      40.2  T
  10    -33.0339953 -0.462386E-09  0.144E-04    4.76     159.2  T
     SCC iter.                  ...        0 min,  0.005 sec
     gradient                   ...        0 min,  0.001 sec
 * total energy  :   -32.7794881 Eh     change       -0.4750340E-01 Eh
   gradient norm :     0.1140817 Eh/α   predicted    -0.4431122E-01 (  -6.72%)
   displ. norm   :     0.4795705 α      lambda       -0.3458232E-01
   maximum displ.:     0.2498399 α      in ANC's #36, #8, #4, ...

........................................................................
.............................. CYCLE    4 ..............................
........................................................................

 iter      E             dE          RMSdq      gap      omega  full diag
   1    -33.0716641 -0.330717E+02  0.826E-01    6.42       0.0  T
   2    -33.0728560 -0.119188E-02  0.445E-01    6.64       1.0  T
   3    -33.0729539 -0.978299E-04  0.198E-01    6.66       1.0  T
   4    -33.0729732 -0.193853E-04  0.475E-02    6.69       1.0  T
   5    -33.0729743 -0.101055E-05  0.179E-02    6.69       1.3  T
   6    -33.0729747 -0.401707E-06  0.569E-03    6.69       4.0  T
   7    -33.0729747 -0.260050E-07  0.277E-03    6.69       8.3  T
   8    -33.0729747 -0.972199E-08  0.914E-04    6.69      25.1  T
   9    -33.0729747 -0.716796E-09  0.402E-04    6.69      57.0  T
     SCC iter.                  ...        0 min,  0.004 sec
     gradient                   ...        0 min,  0.001 sec
 * total energy  :   -32.8036381 Eh     change       -0.2414992E-01 Eh
   gradient norm :     0.0768270 Eh/α   predicted    -0.2126792E-01 ( -11.93%)
   displ. norm   :     0.6081687 α      lambda       -0.2199818E-01
   maximum displ.:     0.3313922 α      in ANC's #8, #9, #36, ...

........................................................................
.............................. CYCLE    5 ..............................
........................................................................

 iter      E             dE          RMSdq      gap      omega  full diag
   1    -33.0833883 -0.330834E+02  0.125E+00    7.95       0.0  T
   2    -33.0838238 -0.435551E-03  0.822E-01    7.85       1.0  T
   3    -33.0838292 -0.535327E-05  0.777E-02    7.86       1.0  T
   4    -33.0838531 -0.239252E-04  0.245E-02    7.85       1.0  T
   5    -33.0838537 -0.627505E-06  0.881E-03    7.85       2.6  T
   6    -33.0838538 -0.962963E-07  0.337E-03    7.85       6.8  T
   7    -33.0838539 -0.125370E-07  0.133E-03    7.85      17.2  T
   8    -33.0838539 -0.296615E-08  0.436E-04    7.85      52.7  T
   9    -33.0838539 -0.345729E-09  0.197E-04    7.85     116.4  T
     SCC iter.                  ...        0 min,  0.004 sec
     gradient                   ...        0 min,  0.001 sec
 * total energy  :   -32.8197988 Eh     change       -0.1616072E-01 Eh
   gradient norm :     0.0840259 Eh/α   predicted    -0.1506732E-01 (  -6.77%)
   displ. norm   :     0.5339316 α      lambda       -0.2106535E-01
   maximum displ.:     0.2511053 α      in ANC's #36, #8, #9, ...

........................................................................
.............................. CYCLE    6 ..............................
........................................................................

 iter      E             dE          RMSdq      gap      omega  full diag
   1    -33.1024094 -0.331024E+02  0.116E+00    8.99       0.0  T
   2    -33.1033571 -0.947727E-03  0.705E-01    8.95       1.0  T
   3    -33.1033980 -0.408610E-04  0.217E-01    8.96       1.0  T
   4    -33.1034320 -0.340027E-04  0.367E-02    8.94       1.0  T
   5    -33.1034333 -0.130554E-05  0.158E-02    8.95       1.5  T
   6    -33.1034335 -0.220775E-06  0.485E-03    8.95       4.7  T
   7    -33.1034335 -0.309487E-07  0.270E-03    8.95       8.5  T
   8    -33.1034335 -0.136483E-07  0.822E-04    8.95      27.9  T
   9    -33.1034335 -0.112456E-08  0.295E-04    8.95      77.7  T
     SCC iter.                  ...        0 min,  0.004 sec
     gradient                   ...        0 min,  0.001 sec
 * total energy  :   -32.8318244 Eh     change       -0.1202566E-01 Eh
   gradient norm :     0.0552940 Eh/α   predicted    -0.1353536E-01 (  12.55%)
   displ. norm   :     0.5033043 α      lambda       -0.9716089E-02
   maximum displ.:     0.2363345 α      in ANC's #9, #8, #4, ...

........................................................................
.............................. CYCLE    7 ..............................
........................................................................

 iter      E             dE          RMSdq      gap      omega  full diag
   1    -33.0935579 -0.330936E+02  0.108E+00    9.15       0.0  T
   2    -33.0945608 -0.100296E-02  0.707E-01    9.01       1.0  T
   3    -33.0946034 -0.425794E-04  0.249E-01    9.02       1.0  T
   4    -33.0946160 -0.125967E-04  0.291E-02    9.00       1.0  T
   5    -33.0946170 -0.106036E-05  0.147E-02    9.00       1.6  T
   6    -33.0946172 -0.198126E-06  0.319E-03    9.00       7.2  T
   7    -33.0946173 -0.986284E-08  0.171E-03    9.00      13.4  T
   8    -33.0946173 -0.357510E-08  0.409E-04    9.00      56.1  T
   9    -33.0946173 -0.267491E-09  0.212E-04    9.00     108.3  T
     SCC iter.                  ...        0 min,  0.004 sec
     gradient                   ...        0 min,  0.001 sec
 * total energy  :   -32.8344506 Eh     change       -0.2626161E-02 Eh
   gradient norm :     0.0485185 Eh/α   predicted    -0.6088665E-02 ( 131.85%)
   displ. norm   :     0.1950742 α      lambda       -0.4032481E-02
   maximum displ.:     0.1050142 α      in ANC's #9, #1, #4, ...

........................................................................
.............................. CYCLE    8 ..............................
........................................................................

 iter      E             dE          RMSdq      gap      omega  full diag
   1    -33.1043574 -0.331044E+02  0.332E-01    9.13       0.0  T
   2    -33.1044588 -0.101390E-03  0.230E-01    9.17       1.0  T
   3    -33.1044637 -0.488406E-05  0.917E-02    9.16       1.0  T
   4    -33.1044652 -0.149851E-05  0.934E-03    9.17       2.5  T
   5    -33.1044653 -0.113832E-06  0.435E-03    9.17       5.3  T
   6    -33.1044653 -0.175656E-07  0.165E-03    9.17      13.9  T
   7    -33.1044653 -0.268921E-08  0.696E-04    9.17      32.9  T
   8    -33.1044653 -0.711367E-09  0.221E-04    9.17     103.6  T
     SCC iter.                  ...        0 min,  0.004 sec
     gradient                   ...        0 min,  0.001 sec
 * total energy  :   -32.8370331 Eh     change       -0.2582499E-02 Eh
   gradient norm :     0.0192871 Eh/α   predicted    -0.2092979E-02 ( -18.96%)
   displ. norm   :     0.2503776 α      lambda       -0.1509068E-02
   maximum displ.:     0.1200297 α      in ANC's #5, #7, #1, ...

........................................................................
.............................. CYCLE    9 ..............................
........................................................................

 iter      E             dE          RMSdq      gap      omega  full diag
   1    -33.1089967 -0.331090E+02  0.177E-01    9.24       0.0  T
   2    -33.1090125 -0.158540E-04  0.120E-01    9.25       1.0  T
   3    -33.1090138 -0.131170E-05  0.155E-02    9.24       1.5  T
   4    -33.1090143 -0.513358E-06  0.740E-03    9.25       3.1  T
   5    -33.1090144 -0.414923E-07  0.201E-03    9.25      11.4  T
   6    -33.1090144 -0.823557E-08  0.115E-03    9.25      19.9  T
   7    -33.1090144 -0.103792E-08  0.424E-04    9.25      54.1  T
   8    -33.1090144 -0.244867E-09  0.931E-05    9.25     246.5  T
     SCC iter.                  ...        0 min,  0.004 sec
     gradient                   ...        0 min,  0.001 sec
 * total energy  :   -32.8381211 Eh     change       -0.1088029E-02 Eh
   gradient norm :     0.0094692 Eh/α   predicted    -0.8018385E-03 ( -26.30%)
   displ. norm   :     0.3142902 α      lambda       -0.1029399E-02
   maximum displ.:     0.1611587 α      in ANC's #5, #7, #1, ...

........................................................................
.............................. CYCLE   10 ..............................
........................................................................

 iter      E             dE          RMSdq      gap      omega  full diag
   1    -33.1099124 -0.331099E+02  0.221E-01    9.27       0.0  T
   2    -33.1099266 -0.142413E-04  0.130E-01    9.27       1.0  T
   3    -33.1099279 -0.129431E-05  0.221E-02    9.27       1.0  T
   4    -33.1099288 -0.852936E-06  0.788E-03    9.27       2.9  T
   5    -33.1099288 -0.466369E-07  0.233E-03    9.27       9.9  T
   6    -33.1099288 -0.514873E-08  0.104E-03    9.27      22.1  T
   7    -33.1099288 -0.703636E-09  0.391E-04    9.27      58.7  T
   8    -33.1099288 -0.293959E-09  0.858E-05    9.27     267.4  T
     SCC iter.                  ...        0 min,  0.004 sec
     gradient                   ...        0 min,  0.001 sec
 * total energy  :   -32.8388208 Eh     change       -0.6996909E-03 Eh
   gradient norm :     0.0123475 Eh/α   predicted    -0.5655449E-03 ( -19.17%)
   displ. norm   :     0.2379247 α      lambda       -0.4900431E-03
   maximum displ.:     0.1224988 α      in ANC's #7, #5, #3, ...

........................................................................
.............................. CYCLE   11 ..............................
........................................................................

 iter      E             dE          RMSdq      gap      omega  full diag
   1    -33.1096344 -0.331096E+02  0.158E-01    9.28       0.0  T
   2    -33.1096375 -0.311587E-05  0.917E-02    9.28       1.0  T
   3    -33.1096379 -0.432222E-06  0.962E-03    9.28       2.4  T
   4    -33.1096381 -0.115620E-06  0.361E-03    9.28       6.4  T
   5    -33.1096381 -0.879145E-08  0.110E-03    9.28      20.8  T
   6    -33.1096381 -0.112960E-08  0.537E-04    9.28      42.7  T
   7    -33.1096381 -0.179384E-09  0.151E-04    9.28     152.2  T
     SCC iter.                  ...        0 min,  0.003 sec
     gradient                   ...        0 min,  0.001 sec
 * total energy  :   -32.8391755 Eh     change       -0.3547009E-03 Eh
   gradient norm :     0.0141102 Eh/α   predicted    -0.2588936E-03 ( -27.01%)
   displ. norm   :     0.2465590 α      lambda       -0.4428448E-03
   maximum displ.:     0.1585979 α      in ANC's #3, #5, #7, ...

........................................................................
.............................. CYCLE   12 ..............................
........................................................................

 iter      E             dE          RMSdq      gap      omega  full diag
   1    -33.1091171 -0.331091E+02  0.133E-01    9.31       0.0  T
   2    -33.1091219 -0.473135E-05  0.768E-02    9.30       1.0  T
   3    -33.1091222 -0.338517E-06  0.128E-02    9.30       1.8  T
   4    -33.1091224 -0.161941E-06  0.366E-03    9.30       6.3  T
   5    -33.1091224 -0.118142E-07  0.945E-04    9.30      24.3  T
   6    -33.1091224 -0.283659E-08  0.375E-04    9.30      61.2  T
     SCC iter.                  ...        0 min,  0.003 sec
     gradient                   ...        0 min,  0.001 sec
 * total energy  :   -32.8395092 Eh     change       -0.3337252E-03 Eh
   gradient norm :     0.0127800 Eh/α   predicted    -0.2348853E-03 ( -29.62%)
   displ. norm   :     0.2931969 α      lambda       -0.5070207E-03
   maximum displ.:     0.2196380 α      in ANC's #3, #5, #4, ...

........................................................................
.............................. CYCLE   13 ..............................
........................................................................

 iter      E             dE          RMSdq      gap      omega  full diag
   1    -33.1088158 -0.331088E+02  0.131E-01    9.35       0.0  T
   2    -33.1088308 -0.149847E-04  0.801E-02    9.34       1.0  T
   3    -33.1088318 -0.973561E-06  0.244E-02    9.34       1.0  T
   4    -33.1088321 -0.300864E-06  0.698E-03    9.34       3.3  T
   5    -33.1088321 -0.374022E-07  0.183E-03    9.34      12.6  T
   6    -33.1088321 -0.498669E-08  0.440E-04    9.34      52.2  T
   7    -33.1088321 -0.770655E-10  0.231E-04    9.34      99.3  T
     SCC iter.                  ...        0 min,  0.003 sec
     gradient                   ...        0 min,  0.001 sec
 * total energy  :   -32.8398896 Eh     change       -0.3803667E-03 Eh
   gradient norm :     0.0099595 Eh/α   predicted    -0.2753043E-03 ( -27.62%)
   displ. norm   :     0.3389149 α      lambda       -0.5339753E-03
   maximum displ.:     0.2632594 α      in ANC's #3, #4, #5, ...

........................................................................
.............................. CYCLE   14 ..............................
........................................................................

 iter      E             dE          RMSdq      gap      omega  full diag
   1    -33.1087137 -0.331087E+02  0.139E-01    9.39       0.0  T
   2    -33.1087334 -0.196827E-04  0.875E-02    9.37       1.0  T
   3    -33.1087348 -0.145178E-05  0.274E-02    9.37       1.0  T
   4    -33.1087352 -0.363918E-06  0.902E-03    9.37       2.5  T
   5    -33.1087353 -0.454824E-07  0.207E-03    9.37      11.1  T
   6    -33.1087353 -0.540285E-08  0.585E-04    9.37      39.2  T
   7    -33.1087353 -0.154877E-09  0.311E-04    9.37      73.8  T
     SCC iter.                  ...        0 min,  0.003 sec
     gradient                   ...        0 min,  0.001 sec
 * total energy  :   -32.8403048 Eh     change       -0.4152003E-03 Eh
   gradient norm :     0.0112025 Eh/α   predicted    -0.2976582E-03 ( -28.31%)
   displ. norm   :     0.4408937 α      lambda       -0.6441923E-03
   maximum displ.:     0.3326754 α      in ANC's #3, #4, #5, ...

........................................................................
.............................. CYCLE   15 ..............................
........................................................................

 iter      E             dE          RMSdq      gap      omega  full diag
   1    -33.1085687 -0.331086E+02  0.200E-01    9.40       0.0  T
   2    -33.1085866 -0.178286E-04  0.128E-01    9.39       1.0  T
   3    -33.1085873 -0.711118E-06  0.210E-02    9.39       1.1  T
   4    -33.1085884 -0.109899E-05  0.793E-03    9.39       2.9  T
   5    -33.1085884 -0.350390E-07  0.209E-03    9.39      11.0  T
   6    -33.1085884 -0.410565E-08  0.794E-04    9.39      28.9  T
   7    -33.1085884 -0.357133E-09  0.349E-04    9.39      65.7  T
     SCC iter.                  ...        0 min,  0.004 sec
     gradient                   ...        0 min,  0.001 sec
 * total energy  :   -32.8408216 Eh     change       -0.5167519E-03 Eh
   gradient norm :     0.0160589 Eh/α   predicted    -0.3847115E-03 ( -25.55%)
   displ. norm   :     0.5251059 α      lambda       -0.7846070E-03
   maximum displ.:     0.3806097 α      in ANC's #3, #4, #2, ...

........................................................................
.............................. CYCLE   16 ..............................
........................................................................

 iter      E             dE          RMSdq      gap      omega  full diag
   1    -33.1077687 -0.331078E+02  0.286E-01    9.39       0.0  T
   2    -33.1077810 -0.123479E-04  0.183E-01    9.39       1.0  T
   3    -33.1077808  0.240297E-06  0.255E-02    9.39       1.0  T
   4    -33.1077826 -0.187450E-05  0.576E-03    9.39       4.0  T
   5    -33.1077827 -0.174011E-07  0.157E-03    9.39      14.6  T
   6    -33.1077827 -0.306913E-08  0.743E-04    9.39      30.9  T
   7    -33.1077827 -0.739334E-09  0.243E-04    9.39      94.4  T
     SCC iter.                  ...        0 min,  0.003 sec
     gradient                   ...        0 min,  0.001 sec
 * total energy  :   -32.8414358 Eh     change       -0.6141833E-03 Eh
   gradient norm :     0.0199957 Eh/α   predicted    -0.5004786E-03 ( -18.51%)
   displ. norm   :     0.4310009 α      lambda       -0.8413764E-03
   maximum displ.:     0.2788297 α      in ANC's #3, #4, #2, ...

........................................................................
.............................. CYCLE   17 ..............................
........................................................................

 iter      E             dE          RMSdq      gap      omega  full diag
   1    -33.1102714 -0.331103E+02  0.299E-01    9.40       0.0  T
   2    -33.1102843 -0.129043E-04  0.189E-01    9.42       1.0  T
   3    -33.1102846 -0.274486E-06  0.246E-02    9.41       1.0  T
   4    -33.1102857 -0.107695E-05  0.602E-03    9.42       3.8  T
   5    -33.1102857 -0.179341E-07  0.238E-03    9.42       9.6  T
   6    -33.1102857 -0.476425E-08  0.742E-04    9.42      30.9  T
   7    -33.1102857 -0.615010E-09  0.293E-04    9.42      78.2  T
     SCC iter.                  ...        0 min,  0.003 sec
     gradient                   ...        0 min,  0.001 sec
 * total energy  :   -32.8420434 Eh     change       -0.6076811E-03 Eh
   gradient norm :     0.0174463 Eh/α   predicted    -0.4988373E-03 ( -17.91%)
   displ. norm   :     0.4488579 α      lambda       -0.7868616E-03
   maximum displ.:     0.3490250 α      in ANC's #3, #4, #5, ...

........................................................................
.............................. CYCLE   18 ..............................
........................................................................

 iter      E             dE          RMSdq      gap      omega  full diag
   1    -33.1064199 -0.331064E+02  0.357E-01    9.44       0.0  T
   2    -33.1064375 -0.175877E-04  0.213E-01    9.46       1.0  T
   3    -33.1064394 -0.196019E-05  0.145E-02    9.46       1.6  T
   4    -33.1064397 -0.292656E-06  0.793E-03    9.46       2.9  T
   5    -33.1064397 -0.295010E-07  0.210E-03    9.46      10.9  T
   6    -33.1064397 -0.631973E-08  0.902E-04    9.46      25.4  T
   7    -33.1064397 -0.782450E-09  0.310E-04    9.46      74.1  T
     SCC iter.                  ...        0 min,  0.003 sec
     gradient                   ...        0 min,  0.002 sec
 * total energy  :   -32.8423847 Eh     change       -0.3412761E-03 Eh
   gradient norm :     0.0127010 Eh/α   predicted    -0.4727005E-03 (  38.51%)
   displ. norm   :     0.2395428 α      lambda       -0.9705172E-03
   maximum displ.:     0.1319272 α      in ANC's #5, #7, #1, ...

........................................................................
.............................. CYCLE   19 ..............................
........................................................................

 iter      E             dE          RMSdq      gap      omega  full diag
   1    -33.1210350 -0.331210E+02  0.214E-01    9.60       0.0  T
   2    -33.1210710 -0.360666E-04  0.118E-01    9.62       1.0  T
   3    -33.1210736 -0.262127E-05  0.313E-02    9.62       1.0  T
   4    -33.1210741 -0.481889E-06  0.911E-03    9.62       2.5  T
   5    -33.1210742 -0.525179E-07  0.406E-03    9.62       5.7  T
   6    -33.1210742 -0.793823E-08  0.923E-04    9.62      24.9  T
   7    -33.1210742 -0.418922E-09  0.469E-04    9.62      48.9  T
     SCC iter.                  ...        0 min,  0.003 sec
     gradient                   ...        0 min,  0.001 sec
 * total energy  :   -32.8421973 Eh     change        0.1874138E-03 Eh
   gradient norm :     0.0199102 Eh/α   predicted    -0.5131204E-03 (-373.79%)
   displ. norm   :     0.1765088 α      lambda       -0.9687890E-03
   maximum displ.:     0.1286119 α      in ANC's #3, #4, #8, ...

........................................................................
.............................. CYCLE   20 ..............................
........................................................................

 iter      E             dE          RMSdq      gap      omega  full diag
   1    -33.1120183 -0.331120E+02  0.105E-01    9.55       0.0  T
   2    -33.1120405 -0.222306E-04  0.713E-02    9.54       1.0  T
   3    -33.1120420 -0.155673E-05  0.319E-02    9.54       1.0  T
   4    -33.1120423 -0.250808E-06  0.810E-03    9.54       2.8  T
   5    -33.1120423 -0.401583E-07  0.244E-03    9.54       9.4  T
   6    -33.1120423 -0.544956E-08  0.868E-04    9.54      26.4  T
   7    -33.1120423 -0.341302E-09  0.467E-04    9.54      49.2  T
     SCC iter.                  ...        0 min,  0.003 sec
     gradient                   ...        0 min,  0.001 sec
 * total energy  :   -32.8426728 Eh     change       -0.4755277E-03 Eh
   gradient norm :     0.0052254 Eh/α   predicted    -0.4994882E-03 (   5.04%)
   displ. norm   :     0.0722791 α      lambda       -0.1103003E-03
   maximum displ.:     0.0465322 α      in ANC's #2, #7, #4, ...
 * RMSD in coord.:     0.9707630 α      energy gain  -0.1827693E+00 Eh

generating ANC from exact Hessian ...
Using Lindh-Hessian (1995)
 Shifting diagonal of input Hessian by    8.4984932738469323E-003
 Lowest  eigenvalues of input Hessian
    0.000000    0.000000    0.000000    0.000000    0.000000    0.000000
    0.010000    0.011275    0.011462    0.014172    0.017042    0.018211
    0.026061    0.030233    0.035819    0.049821    0.050974    0.054268
 Highest eigenvalues
    1.222389    1.350970    1.488207    1.710146    2.421804    3.152811


........................................................................
.............................. CYCLE   21 ..............................
........................................................................

 iter      E             dE          RMSdq      gap      omega  full diag
   1    -33.1115886 -0.331116E+02  0.568E-02    9.56       0.0  T
   2    -33.1115907 -0.211895E-05  0.267E-02    9.57       1.0  T
   3    -33.1115909 -0.146926E-06  0.112E-02    9.57       2.0  T
   4    -33.1115910 -0.766589E-07  0.201E-03    9.57      11.4  T
   5    -33.1115910 -0.212424E-08  0.967E-04    9.57      23.7  T
   6    -33.1115910 -0.587171E-09  0.235E-04    9.57      97.6  T
     SCC iter.                  ...        0 min,  0.003 sec
     gradient                   ...        0 min,  0.001 sec
 * total energy  :   -32.8427126 Eh     change       -0.3973398E-04 Eh
   gradient norm :     0.0041955 Eh/α   predicted     0.0000000E+00 (-100.00%)
   displ. norm   :     0.0478509 α      lambda       -0.5910167E-04
   maximum displ.:     0.0337330 α      in ANC's #3, #2, #5, ...

........................................................................
.............................. CYCLE   22 ..............................
........................................................................

 iter      E             dE          RMSdq      gap      omega  full diag
   1    -33.1125505 -0.331126E+02  0.193E-02    9.57       0.0  T
   2    -33.1125507 -0.221633E-06  0.116E-02    9.57       2.0  T
   3    -33.1125507 -0.216607E-07  0.259E-03    9.57       8.8  T
   4    -33.1125507 -0.871694E-09  0.795E-04    9.57      28.9  T
   5    -33.1125507 -0.245407E-09  0.147E-04    9.57     156.1  T
     SCC iter.                  ...        0 min,  0.002 sec
     gradient                   ...        0 min,  0.001 sec
 * total energy  :   -32.8427588 Eh     change       -0.4619488E-04 Eh
   gradient norm :     0.0017987 Eh/α   predicted    -0.3032169E-04 ( -34.36%)
   displ. norm   :     0.1605676 α      lambda       -0.6652025E-04
   maximum displ.:     0.1172484 α      in ANC's #3, #2, #5, ...

........................................................................
.............................. CYCLE   23 ..............................
........................................................................

 iter      E             dE          RMSdq      gap      omega  full diag
   1    -33.1135624 -0.331136E+02  0.509E-02    9.58       0.0  T
   2    -33.1135636 -0.116504E-05  0.310E-02    9.58       1.0  T
   3    -33.1135637 -0.111454E-06  0.588E-03    9.58       3.9  T
   4    -33.1135637 -0.177955E-07  0.193E-03    9.58      11.9  T
   5    -33.1135637 -0.214160E-08  0.783E-04    9.58      29.3  T
   6    -33.1135637 -0.606811E-09  0.163E-04    9.58     141.0  T
     SCC iter.                  ...        0 min,  0.003 sec
     gradient                   ...        0 min,  0.001 sec
 * total energy  :   -32.8428240 Eh     change       -0.6522279E-04 Eh
   gradient norm :     0.0031932 Eh/α   predicted    -0.3364311E-04 ( -48.42%)
   displ. norm   :     0.0991671 α      lambda       -0.4578346E-04
   maximum displ.:     0.0701718 α      in ANC's #3, #2, #5, ...

........................................................................
.............................. CYCLE   24 ..............................
........................................................................

 iter      E             dE          RMSdq      gap      omega  full diag
   1    -33.1132595 -0.331133E+02  0.364E-02    9.58       0.0  T
   2    -33.1132599 -0.366591E-06  0.225E-02    9.58       1.0  T
   3    -33.1132599 -0.122811E-07  0.306E-03    9.58       7.5  T
   4    -33.1132599 -0.310079E-07  0.114E-03    9.58      20.1  T
   5    -33.1132599 -0.509786E-09  0.418E-04    9.58      54.9  T
   6    -33.1132599 -0.114483E-09  0.828E-05    9.58     277.0  T
     SCC iter.                  ...        0 min,  0.003 sec
     gradient                   ...        0 min,  0.001 sec
 * total energy  :   -32.8428671 Eh     change       -0.4310637E-04 Eh
   gradient norm :     0.0031432 Eh/α   predicted    -0.2312695E-04 ( -46.35%)
   displ. norm   :     0.1800552 α      lambda       -0.8350078E-04
   maximum displ.:     0.1219699 α      in ANC's #3, #2, #1, ...

........................................................................
.............................. CYCLE   25 ..............................
........................................................................

 iter      E             dE          RMSdq      gap      omega  full diag
   1    -33.1123950 -0.331124E+02  0.743E-02    9.59       0.0  T
   2    -33.1123965 -0.151135E-05  0.468E-02    9.59       1.0  T
   3    -33.1123965  0.510366E-08  0.635E-03    9.59       3.6  T
   4    -33.1123966 -0.171449E-06  0.211E-03    9.59      10.9  T
   5    -33.1123966 -0.146548E-08  0.596E-04    9.59      38.5  T
   6    -33.1123966 -0.334509E-09  0.179E-04    9.59     128.1  T
     SCC iter.                  ...        0 min,  0.003 sec
     gradient                   ...        0 min,  0.001 sec
 * total energy  :   -32.8429362 Eh     change       -0.6909301E-04 Eh
   gradient norm :     0.0023339 Eh/α   predicted    -0.4310728E-04 ( -37.61%)
   displ. norm   :     0.2043061 α      lambda       -0.6525045E-04
   maximum displ.:     0.1381985 α      in ANC's #3, #2, #1, ...

........................................................................
.............................. CYCLE   26 ..............................
........................................................................

 iter      E             dE          RMSdq      gap      omega  full diag
   1    -33.1113411 -0.331113E+02  0.903E-02    9.60       0.0  T
   2    -33.1113433 -0.223414E-05  0.579E-02    9.60       1.0  T
   3    -33.1113433  0.548572E-07  0.775E-03    9.60       3.0  T
   4    -33.1113436 -0.285664E-06  0.233E-03    9.60       9.8  T
   5    -33.1113436 -0.165414E-08  0.615E-04    9.60      37.3  T
   6    -33.1113436 -0.476142E-09  0.212E-04    9.60     108.2  T
     SCC iter.                  ...        0 min,  0.003 sec
     gradient                   ...        0 min,  0.001 sec
 * total energy  :   -32.8429795 Eh     change       -0.4330592E-04 Eh
   gradient norm :     0.0033941 Eh/α   predicted    -0.3398828E-04 ( -21.52%)
   displ. norm   :     0.1144320 α      lambda       -0.2941754E-04
   maximum displ.:     0.0794379 α      in ANC's #3, #2, #5, ...

........................................................................
.............................. CYCLE   27 ..............................
........................................................................

 iter      E             dE          RMSdq      gap      omega  full diag
   1    -33.1113744 -0.331114E+02  0.541E-02    9.61       0.0  T
   2    -33.1113752 -0.799183E-06  0.356E-02    9.61       1.0  T
   3    -33.1113751  0.360466E-07  0.471E-03    9.61       4.9  T
   4    -33.1113753 -0.112919E-06  0.123E-03    9.61      18.6  T
   5    -33.1113753 -0.404825E-09  0.324E-04    9.61      70.7  T
   6    -33.1113753 -0.190532E-09  0.116E-04    9.61     197.2  T
     SCC iter.                  ...        0 min,  0.003 sec
     gradient                   ...        0 min,  0.001 sec
 * total energy  :   -32.8430033 Eh     change       -0.2380444E-04 Eh
   gradient norm :     0.0035456 Eh/α   predicted    -0.1490255E-04 ( -37.40%)
   displ. norm   :     0.2005203 α      lambda       -0.6432755E-04
   maximum displ.:     0.1420112 α      in ANC's #3, #2, #4, ...

........................................................................
.............................. CYCLE   28 ..............................
........................................................................

 iter      E             dE          RMSdq      gap      omega  full diag
   1    -33.1121766 -0.331122E+02  0.992E-02    9.63       0.0  T
   2    -33.1121794 -0.275418E-05  0.660E-02    9.63       1.0  T
   3    -33.1121792  0.133318E-06  0.879E-03    9.63       2.6  T
   4    -33.1121796 -0.384472E-06  0.221E-03    9.63      10.4  T
   5    -33.1121796 -0.111852E-08  0.626E-04    9.63      36.6  T
   6    -33.1121796 -0.694378E-09  0.200E-04    9.63     114.5  T
     SCC iter.                  ...        0 min,  0.003 sec
     gradient                   ...        0 min,  0.001 sec
 * total energy  :   -32.8430505 Eh     change       -0.4723166E-04 Eh
   gradient norm :     0.0031148 Eh/α   predicted    -0.3346533E-04 ( -29.15%)
   displ. norm   :     0.2122395 α      lambda       -0.5194719E-04
   maximum displ.:     0.1520114 α      in ANC's #3, #2, #4, ...

........................................................................
.............................. CYCLE   29 ..............................
........................................................................

 iter      E             dE          RMSdq      gap      omega  full diag
   1    -33.1125006 -0.331125E+02  0.104E-01    9.64       0.0  T
   2    -33.1125033 -0.270744E-05  0.683E-02    9.64       1.0  T
   3    -33.1125032  0.123624E-06  0.938E-03    9.64       2.4  T
   4    -33.1125036 -0.403850E-06  0.250E-03    9.64       9.2  T
   5    -33.1125036 -0.161425E-08  0.555E-04    9.64      41.3  T
   6    -33.1125036 -0.787082E-09  0.236E-04    9.64      97.0  T
     SCC iter.                  ...        0 min,  0.003 sec
     gradient                   ...        0 min,  0.001 sec
 * total energy  :   -32.8430909 Eh     change       -0.4040351E-04 Eh
   gradient norm :     0.0029375 Eh/α   predicted    -0.2714548E-04 ( -32.81%)
   displ. norm   :     0.2584232 α      lambda       -0.6013250E-04
   maximum displ.:     0.1828463 α      in ANC's #3, #2, #4, ...

........................................................................
.............................. CYCLE   30 ..............................
........................................................................

 iter      E             dE          RMSdq      gap      omega  full diag
   1    -33.1130882 -0.331131E+02  0.126E-01    9.65       0.0  T
   2    -33.1130917 -0.345335E-05  0.806E-02    9.65       1.0  T
   3    -33.1130916  0.114271E-06  0.113E-02    9.65       2.0  T
   4    -33.1130921 -0.529072E-06  0.329E-03    9.65       7.0  T
   5    -33.1130921 -0.320797E-08  0.638E-04    9.65      36.0  T
   6    -33.1130921 -0.108325E-08  0.307E-04    9.65      74.6  T
     SCC iter.                  ...        0 min,  0.003 sec
     gradient                   ...        0 min,  0.001 sec
 * total energy  :   -32.8431367 Eh     change       -0.4574023E-04 Eh
   gradient norm :     0.0023931 Eh/α   predicted    -0.3207573E-04 ( -29.87%)
   displ. norm   :     0.3760468 α      lambda       -0.5812267E-04
   maximum displ.:     0.2664870 α      in ANC's #3, #2, #4, ...

........................................................................
.............................. CYCLE   31 ..............................
........................................................................

 iter      E             dE          RMSdq      gap      omega  full diag
   1    -33.1111399 -0.331111E+02  0.185E-01    9.65       0.0  T
   2    -33.1111475 -0.756718E-05  0.116E-01    9.65       1.0  T
   3    -33.1111473  0.199886E-06  0.157E-02    9.65       1.5  T
   4    -33.1111484 -0.109046E-05  0.470E-03    9.65       4.9  T
   5    -33.1111484 -0.764022E-08  0.110E-03    9.65      20.9  T
   6    -33.1111484 -0.165426E-08  0.407E-04    9.65      56.4  T
   7    -33.1111484 -0.150479E-09  0.140E-04    9.65     163.9  T
     SCC iter.                  ...        0 min,  0.003 sec
     gradient                   ...        0 min,  0.001 sec
 * total energy  :   -32.8431607 Eh     change       -0.2399850E-04 Eh
   gradient norm :     0.0042299 Eh/α   predicted    -0.3319441E-04 (  38.32%)
   displ. norm   :     0.2104285 α      lambda       -0.1071659E-03
   maximum displ.:     0.1153918 α      in ANC's #3, #2, #1, ...

........................................................................
.............................. CYCLE   32 ..............................
........................................................................

 iter      E             dE          RMSdq      gap      omega  full diag
   1    -33.1138215 -0.331138E+02  0.831E-02    9.68       0.0  T
   2    -33.1138228 -0.132077E-05  0.498E-02    9.68       1.0  T
   3    -33.1138229 -0.129456E-06  0.685E-03    9.68       3.3  T
   4    -33.1138230 -0.105722E-06  0.314E-03    9.68       7.3  T
   5    -33.1138230 -0.283061E-08  0.584E-04    9.68      39.3  T
   6    -33.1138230 -0.663753E-09  0.234E-04    9.68      98.1  T
     SCC iter.                  ...        0 min,  0.003 sec
     gradient                   ...        0 min,  0.001 sec
 * total energy  :   -32.8432093 Eh     change       -0.4863281E-04 Eh
   gradient norm :     0.0034530 Eh/α   predicted    -0.5602210E-04 (  15.19%)
   displ. norm   :     0.2405210 α      lambda       -0.3307035E-04
   maximum displ.:     0.1629445 α      in ANC's #3, #2, #4, ...

........................................................................
.............................. CYCLE   33 ..............................
........................................................................

 iter      E             dE          RMSdq      gap      omega  full diag
   1    -33.1122512 -0.331123E+02  0.118E-01    9.68       0.0  T
   2    -33.1122544 -0.323758E-05  0.744E-02    9.68       1.0  T
   3    -33.1122543  0.802005E-07  0.994E-03    9.68       2.3  T
   4    -33.1122548 -0.451194E-06  0.302E-03    9.68       7.6  T
   5    -33.1122548 -0.333268E-08  0.869E-04    9.68      26.4  T
   6    -33.1122548 -0.679073E-09  0.256E-04    9.68      89.8  T
     SCC iter.                  ...        0 min,  0.003 sec
     gradient                   ...        0 min,  0.001 sec
 * total energy  :   -32.8432288 Eh     change       -0.1952856E-04 Eh
   gradient norm :     0.0033365 Eh/α   predicted    -0.1750210E-04 ( -10.38%)
   displ. norm   :     0.0633388 α      lambda       -0.2751136E-04
   maximum displ.:     0.0337802 α      in ANC's #2, #3, #1, ...

........................................................................
.............................. CYCLE   34 ..............................
........................................................................

 iter      E             dE          RMSdq      gap      omega  full diag
   1    -33.1128272 -0.331128E+02  0.253E-02    9.70       0.0  T
   2    -33.1128276 -0.465748E-06  0.166E-02    9.70       1.4  T
   3    -33.1128277 -0.237664E-07  0.326E-03    9.70       7.0  T
   4    -33.1128277 -0.172332E-07  0.998E-04    9.70      23.0  T
   5    -33.1128277 -0.739924E-09  0.396E-04    9.70      57.9  T
     SCC iter.                  ...        0 min,  0.002 sec
     gradient                   ...        0 min,  0.001 sec
 * total energy  :   -32.8432484 Eh     change       -0.1955057E-04 Eh
   gradient norm :     0.0019815 Eh/α   predicted    -0.1383321E-04 ( -29.24%)
   displ. norm   :     0.2227242 α      lambda       -0.2212995E-04
   maximum displ.:     0.1225499 α      in ANC's #2, #3, #1, ...

........................................................................
.............................. CYCLE   35 ..............................
........................................................................

 iter      E             dE          RMSdq      gap      omega  full diag
   1    -33.1129303 -0.331129E+02  0.941E-02    9.73       0.0  T
   2    -33.1129335 -0.329092E-05  0.607E-02    9.72       1.0  T
   3    -33.1129335  0.232664E-08  0.909E-03    9.72       2.5  T
   4    -33.1129339 -0.342143E-06  0.298E-03    9.72       7.7  T
   5    -33.1129339 -0.398263E-08  0.122E-03    9.72      18.8  T
   6    -33.1129339 -0.104318E-08  0.315E-04    9.72      72.8  T
   7    -33.1129339 -0.699316E-10  0.117E-04    9.72     196.5  T
     SCC iter.                  ...        0 min,  0.003 sec
     gradient                   ...        0 min,  0.001 sec
 * total energy  :   -32.8432644 Eh     change       -0.1606268E-04 Eh
   gradient norm :     0.0015719 Eh/α   predicted    -0.1134842E-04 ( -29.35%)
   displ. norm   :     0.0327917 α      lambda       -0.6963717E-05
   maximum displ.:     0.0285428 α      in ANC's #1, #7, #5, ...

........................................................................
.............................. CYCLE   36 ..............................
........................................................................

 iter      E             dE          RMSdq      gap      omega  full diag
   1    -33.1137171 -0.331137E+02  0.130E-02    9.73       0.0  T
   2    -33.1137172 -0.118860E-06  0.664E-03    9.73       3.5  T
   3    -33.1137172 -0.816527E-08  0.244E-03    9.73       9.4  T
   4    -33.1137172 -0.307547E-08  0.529E-04    9.73      43.3  T
   5    -33.1137172 -0.107974E-09  0.176E-04    9.73     130.0  T
     SCC iter.                  ...        0 min,  0.002 sec
     gradient                   ...        0 min,  0.001 sec
 * total energy  :   -32.8432698 Eh     change       -0.5356109E-05 Eh
   gradient norm :     0.0015552 Eh/α   predicted    -0.3484412E-05 ( -34.95%)
   displ. norm   :     0.0719428 α      lambda       -0.7159810E-05
   maximum displ.:     0.0434747 α      in ANC's #3, #2, #1, ...

........................................................................
.............................. CYCLE   37 ..............................
........................................................................

 iter      E             dE          RMSdq      gap      omega  full diag
   1    -33.1133439 -0.331133E+02  0.315E-02    9.72       0.0  T
   2    -33.1133445 -0.539482E-06  0.205E-02    9.72       1.1  T
   3    -33.1133445 -0.111965E-07  0.431E-03    9.72       5.3  T
   4    -33.1133445 -0.305757E-07  0.984E-04    9.72      23.3  T
   5    -33.1133445 -0.348173E-09  0.402E-04    9.72      57.0  T
     SCC iter.                  ...        0 min,  0.002 sec
     gradient                   ...        0 min,  0.001 sec
 * total energy  :   -32.8432771 Eh     change       -0.7321755E-05 Eh
   gradient norm :     0.0012456 Eh/α   predicted    -0.3590490E-05 ( -50.96%)
   displ. norm   :     0.0774259 α      lambda       -0.9609725E-05
   maximum displ.:     0.0614813 α      in ANC's #1, #3, #2, ...

........................................................................
.............................. CYCLE   38 ..............................
........................................................................

 iter      E             dE          RMSdq      gap      omega  full diag
   1    -33.1136754 -0.331137E+02  0.239E-02    9.72       0.0  T
   2    -33.1136757 -0.334261E-06  0.137E-02    9.73       1.7  T
   3    -33.1136757 -0.218776E-07  0.452E-03    9.73       5.1  T
   4    -33.1136758 -0.105550E-07  0.922E-04    9.73      24.9  T
   5    -33.1136758 -0.333777E-09  0.366E-04    9.73      62.7  T
     SCC iter.                  ...        0 min,  0.002 sec
     gradient                   ...        0 min,  0.001 sec
 * total energy  :   -32.8432860 Eh     change       -0.8889127E-05 Eh
   gradient norm :     0.0017924 Eh/α   predicted    -0.4818020E-05 ( -45.80%)
   displ. norm   :     0.1279709 α      lambda       -0.1000736E-04
   maximum displ.:     0.0802656 α      in ANC's #1, #3, #2, ...

........................................................................
.............................. CYCLE   39 ..............................
........................................................................

 iter      E             dE          RMSdq      gap      omega  full diag
   1    -33.1127858 -0.331128E+02  0.478E-02    9.72       0.0  T
   2    -33.1127864 -0.617996E-06  0.287E-02    9.72       1.0  T
   3    -33.1127864 -0.237999E-07  0.453E-03    9.72       5.1  T
   4    -33.1127864 -0.514265E-07  0.164E-03    9.72      14.0  T
   5    -33.1127864 -0.678824E-09  0.417E-04    9.72      55.1  T
   6    -33.1127864 -0.147118E-09  0.123E-04    9.72     187.2  T
     SCC iter.                  ...        0 min,  0.003 sec
     gradient                   ...        0 min,  0.001 sec
 * total energy  :   -32.8432938 Eh     change       -0.7829341E-05 Eh
   gradient norm :     0.0019076 Eh/α   predicted    -0.5041183E-05 ( -35.61%)
   displ. norm   :     0.0806385 α      lambda       -0.8804497E-05
   maximum displ.:     0.0680918 α      in ANC's #1, #3, #7, ...

........................................................................
.............................. CYCLE   40 ..............................
........................................................................

 iter      E             dE          RMSdq      gap      omega  full diag
   1    -33.1131053 -0.331131E+02  0.234E-02    9.73       0.0  T
   2    -33.1131053 -0.862618E-07  0.136E-02    9.73       1.7  T
   3    -33.1131054 -0.157481E-07  0.159E-03    9.73      14.5  T
   4    -33.1131054 -0.372556E-08  0.782E-04    9.73      29.3  T
   5    -33.1131054 -0.340293E-09  0.145E-04    9.73     158.0  T
     SCC iter.                  ...        0 min,  0.002 sec
     gradient                   ...        0 min,  0.001 sec
 * total energy  :   -32.8433028 Eh     change       -0.9003660E-05 Eh
   gradient norm :     0.0011911 Eh/α   predicted    -0.4417668E-05 ( -50.93%)
   displ. norm   :     0.0517372 α      lambda       -0.5992476E-05
   maximum displ.:     0.0450605 α      in ANC's #1, #3, #6, ...

........................................................................
.............................. CYCLE   41 ..............................
........................................................................

 iter      E             dE          RMSdq      gap      omega  full diag
   1    -33.1135905 -0.331136E+02  0.139E-02    9.73       0.0  T
   2    -33.1135906 -0.110436E-06  0.854E-03    9.73       2.7  T
   3    -33.1135907 -0.817789E-08  0.233E-03    9.73       9.8  T
   4    -33.1135907 -0.425688E-08  0.531E-04    9.73      43.2  T
   5    -33.1135907 -0.249059E-09  0.186E-04    9.73     123.0  T
     SCC iter.                  ...        0 min,  0.002 sec
     gradient                   ...        0 min,  0.001 sec
 * total energy  :   -32.8433089 Eh     change       -0.6047309E-05 Eh
   gradient norm :     0.0010817 Eh/α   predicted    -0.3002209E-05 ( -50.35%)
   displ. norm   :     0.0611554 α      lambda       -0.4735622E-05
   maximum displ.:     0.0468694 α      in ANC's #1, #3, #7, ...

........................................................................
.............................. CYCLE   42 ..............................
........................................................................

 iter      E             dE          RMSdq      gap      omega  full diag
   1    -33.1136096 -0.331136E+02  0.205E-02    9.73       0.0  T
   2    -33.1136098 -0.126017E-06  0.128E-02    9.73       1.8  T
   3    -33.1136098 -0.750848E-08  0.181E-03    9.73      12.7  T
   4    -33.1136098 -0.783930E-08  0.665E-04    9.73      34.5  T
   5    -33.1136098 -0.335206E-09  0.269E-04    9.73      85.2  T
     SCC iter.                  ...        0 min,  0.002 sec
     gradient                   ...        0 min,  0.001 sec
 * total energy  :   -32.8433144 Eh     change       -0.5543225E-05 Eh
   gradient norm :     0.0010101 Eh/α   predicted    -0.2373939E-05 ( -57.17%)
   displ. norm   :     0.1298208 α      lambda       -0.7561003E-05
   maximum displ.:     0.0983693 α      in ANC's #1, #3, #7, ...
 * RMSD in coord.:     0.6291186 α      energy gain  -0.6416004E-03 Eh

generating ANC from exact Hessian ...
Using Lindh-Hessian (1995)
 Shifting diagonal of input Hessian by    8.4121659151338048E-003
 Lowest  eigenvalues of input Hessian
    0.000000    0.000000    0.000000    0.000000    0.000000    0.000000
    0.010000    0.011187    0.011551    0.013786    0.017085    0.018271
    0.026657    0.030405    0.033160    0.050623    0.052095    0.055558
 Highest eigenvalues
    1.224552    1.350757    1.503383    1.726856    2.400848    3.153895


........................................................................
.............................. CYCLE   43 ..............................
........................................................................

 iter      E             dE          RMSdq      gap      omega  full diag
   1    -33.1134784 -0.331135E+02  0.387E-02    9.73       0.0  T
   2    -33.1134788 -0.397239E-06  0.245E-02    9.73       1.0  T
   3    -33.1134788 -0.802228E-08  0.400E-03    9.73       5.7  T
   4    -33.1134789 -0.419025E-07  0.117E-03    9.73      19.5  T
   5    -33.1134789 -0.732847E-09  0.462E-04    9.73      49.7  T
   6    -33.1134789 -0.154415E-09  0.131E-04    9.73     175.0  T
     SCC iter.                  ...        0 min,  0.003 sec
     gradient                   ...        0 min,  0.001 sec
 * total energy  :   -32.8433231 Eh     change       -0.8698894E-05 Eh
   gradient norm :     0.0013065 Eh/α   predicted     0.0000000E+00 (-100.00%)
   displ. norm   :     0.0185548 α      lambda       -0.2348697E-05
   maximum displ.:     0.0103332 α      in ANC's #1, #6, #2, ...

........................................................................
.............................. CYCLE   44 ..............................
........................................................................

 iter      E             dE          RMSdq      gap      omega  full diag
   1    -33.1134822 -0.331135E+02  0.759E-03    9.73       0.0  T
   2    -33.1134822 -0.531097E-07  0.476E-03    9.73       4.8  T
   3    -33.1134822 -0.290585E-08  0.147E-03    9.73      15.6  T
   4    -33.1134822 -0.128644E-08  0.274E-04    9.73      83.6  T
   5    -33.1134822 -0.550529E-10  0.111E-04    9.73     205.9  T
     SCC iter.                  ...        0 min,  0.002 sec
     gradient                   ...        0 min,  0.001 sec
 * total energy  :   -32.8433272 Eh     change       -0.4124728E-05 Eh
   gradient norm :     0.0006252 Eh/α   predicted    -0.1894380E-05 ( -54.07%)
   displ. norm   :     0.0390007 α      lambda       -0.4028133E-05
   maximum displ.:     0.0237299 α      in ANC's #1, #2, #6, ...

   *** GEOMETRY OPTIMIZATION CONVERGED AFTER 44 ITERATIONS ***

------------------------------------------------------------------------
 total energy gain   :        -0.1834237 Eh     -115.1001 kcal/mol
 total RMSD          :         1.3951790 a0        0.7383 Å
 total power (kW/mol):       -10.9449765 (step)-1930.5575 (real)
------------------------------------------------------------------------

 ANCopt (total)                0 d,  0 h,  0 min,  0.249 sec
 optimizer setup                ...        0 min,  0.000 sec (  0.032%)
 model hessian                  ...        0 min,  0.012 sec (  4.886%)
 ANC generation                 ...        0 min,  0.001 sec (  0.307%)
 coordinate transformation      ...        0 min,  0.000 sec (  0.102%)
 single point calculation       ...        0 min,  0.228 sec ( 91.206%)
 optimization log               ...        0 min,  0.003 sec (  1.022%)
 hessian update                 ...        0 min,  0.001 sec (  0.313%)
 rational function              ...        0 min,  0.004 sec (  1.539%)

================
 final structure:
================
19
 xtb: 6.7.1 (edcfbbe)
C            0.81000232995554        0.05035609710384       -0.40851289269791
C            0.86123563055627       -0.95413988203449        0.73837012273129
O            0.02329703581580        1.15292186870641       -0.09559112256676
P            0.80864617556534        2.27696380056123        0.90433913209084
O            2.19403025179871        2.44785512440031        0.41204144438523
O           -0.06963000433845        3.59884891597788        0.44395601026366
C           -1.30026459678018        3.78735571589173        1.07333891536889
C           -2.42858802310899        3.06084187013469        0.34979770158468
O            0.49939143164771        1.95403653673144        2.32495282926065
H            0.37556520069942       -0.41187243495131       -1.30968464542838
H            1.83135285635293        0.38468621400271       -0.63657700550337
H            1.21786111690219       -0.42835120101240        1.61954774148644
H           -0.13511022606119       -1.34143436631050        0.94532289157088
H            1.53023737966045       -1.78031513073534        0.50019062608828
H           -1.23456969971100        3.41770178841529        2.10480105246255
H           -1.48989212113959        4.87161804286635        1.08953101942134
H           -2.18921070188601        2.00208048131016        0.32453492429960
H           -3.37555094885580        3.21634141731585        0.86622934786519
H           -2.51075308707330        3.42162514162559       -0.67395809268324

 Bond Distances (Angstroems)
 ---------------------------
C1-C2=1.5254         C1-O3=1.3901         C1-H10=1.1020        C1-H11=1.0986        C2-C1=1.5254         C2-H12=1.0863        
C2-H13=1.0888        C2-H14=1.0894        O3-C1=1.3901         O3-P4=1.6971         P4-O3=1.6971         P4-O5=1.4802         
P4-O6=1.6525         P4-O9=1.4893         O5-P4=1.4802         O6-P4=1.6525         O6-C7=1.3950         C7-O6=1.3950         
C7-C8=1.5246         C7-H15=1.0977        C7-H16=1.1008        C8-C7=1.5246         C8-H17=1.0858        C8-H18=1.0898        
C8-H19=1.0886        O9-P4=1.4893         H10-C1=1.1020        H11-C1=1.0986        H12-C2=1.0863        H13-C2=1.0888        
H14-C2=1.0894        H15-C7=1.0977        H16-C7=1.1008        H17-C8=1.0858        H18-C8=1.0898        H19-C8=1.0886        
 C  H  Rav=1.0928 sigma=0.0059  Rmin=1.0858  Rmax=1.1020    10
 C  C  Rav=1.5250 sigma=0.0004  Rmin=1.5246  Rmax=1.5254     2
 O  C  Rav=1.3926 sigma=0.0024  Rmin=1.3901  Rmax=1.3950     2
 P  O  Rav=1.5798 sigma=0.0964  Rmin=1.4802  Rmax=1.6971     4

 selected bond angles (degree)
 --------------------
O3-C1-C2=111.84                H10-C1-C2=110.60               H10-C1-O3=107.08               H11-C1-C2=108.98               
H11-C1-O3=109.36               H11-C1-H10=108.93              H12-C2-C1=107.59               H13-C2-C1=110.27               
H13-C2-H12=108.57              H14-C2-C1=110.83               H14-C2-H12=110.05              H14-C2-H13=109.50              
P4-O3-C1=113.33                O5-P4-O3=108.28                O6-P4-O3= 96.88                O6-P4-O5=108.21                
O9-P4-O3=108.80                O9-P4-O5=122.46                O9-P4-O6=109.20                C7-O6-P4=116.82                
C8-C7-O6=111.98                H15-C7-O6=109.00               H15-C7-C8=109.25               H16-C7-O6=106.96               
H16-C7-C8=110.42               H16-C7-H15=109.16              H17-C8-C7=108.21               H18-C8-C7=110.50               
H18-C8-H17=109.98              H19-C8-C7=110.14               H19-C8-H17=108.54              H19-C8-H18=109.44              

 selected dihedral angles (degree)
 ---------------------------------
H12-C2-C1-O3=303.87           H12-C2-C1-H10=184.62          H12-C2-C1-H11= 64.90          H13-C2-C1-O3= 62.10           
H13-C2-C1-H10=302.85          H13-C2-C1-H11=183.14          H14-C2-C1-O3=183.51           H14-C2-C1-H10= 64.26          
H14-C2-C1-H11=304.54          P4-O3-C1-C2= 78.51            P4-O3-C1-H10=199.82           P4-O3-C1-H11=317.70           
O5-P4-O3-C1= 43.04            O6-P4-O3-C1=154.84            O9-P4-O3-C1=267.85            C7-O6-P4-O3= 83.07            
C7-O6-P4-O5=194.92            C7-O6-P4-O9=330.38            C8-C7-O6-P4=271.70            H15-C7-O6-P4= 32.71           
H16-C7-O6-P4=150.61           H17-C8-C7-O6= 58.99           H17-C8-C7-H15=298.13          H17-C8-C7-H16=178.07          
H18-C8-C7-O6=179.46           H18-C8-C7-H15= 58.60          H18-C8-C7-H16=298.54          H19-C8-C7-O6=300.49           
H19-C8-C7-H15=179.63          H19-C8-C7-H16= 59.57          
           -------------------------------------------------
          |                Final Singlepoint                |
           -------------------------------------------------

          ...................................................
          :                      SETUP                      :
          :.................................................:
          :  # basis functions                  52          :
          :  # atomic orbitals                  51          :
          :  # shells                           29          :
          :  # electrons                        56          :
          :  max. iterations                   250          :
          :  Hamiltonian                  GFN2-xTB          :
          :  restarted?                      false          :
          :  GBSA solvation                  false          :
          :  PC potential                    false          :
          :  electronic temp.          300.0000000     K    :
          :  accuracy                    1.0000000          :
          :  -> integral cutoff          0.2500000E+02      :
          :  -> integral neglect         0.1000000E-07      :
          :  -> SCF convergence          0.1000000E-05 Eh   :
          :  -> wf. convergence          0.1000000E-03 e    :
          :  Broyden damping             0.4000000          :
          :  net charge                         -1          :
          :  unpaired electrons                  0          :
          ...................................................

 iter      E             dE          RMSdq      gap      omega  full diag
   1    -33.1134822 -0.331135E+02  0.308E-05    9.73       0.0  T
   2    -33.1134822 -0.689226E-12  0.180E-05    9.73    1272.2  T
   3    -33.1134822 -0.191847E-12  0.556E-06    9.73    4123.8  T

   *** convergence criteria satisfied after 3 iterations ***

         #    Occupation            Energy/Eh            Energy/eV
      -------------------------------------------------------------
         1        2.0000           -0.5385477             -14.6546
       ...           ...                  ...                  ...
        22        2.0000           -0.2922373              -7.9522
        23        2.0000           -0.2724703              -7.4143
        24        2.0000           -0.2554357              -6.9508
        25        2.0000           -0.2421250              -6.5886
        26        2.0000           -0.2397544              -6.5241
        27        2.0000           -0.2344487              -6.3797
        28        2.0000           -0.2216577              -6.0316 (HOMO)
        29                          0.1359250               3.6987 (LUMO)
        30                          0.1397047               3.8016
        31                          0.1971322               5.3642
        32                          0.2292745               6.2389
        33                          0.2545632               6.9270
       ...                                ...                  ...
        51                          1.4059091              38.2567
      -------------------------------------------------------------
                  HL-Gap            0.3575827 Eh            9.7303 eV
             Fermi-level           -0.0428664 Eh           -1.1665 eV

 SCC (total)                   0 d,  0 h,  0 min,  0.004 sec
 SCC setup                      ...        0 min,  0.000 sec (  1.597%)
 Dispersion                     ...        0 min,  0.000 sec (  1.424%)
 classical contributions        ...        0 min,  0.000 sec (  0.279%)
 integral evaluation            ...        0 min,  0.001 sec ( 16.100%)
 iterations                     ...        0 min,  0.001 sec ( 39.158%)
 molecular gradient             ...        0 min,  0.001 sec ( 39.245%)
 printout                       ...        0 min,  0.000 sec (  1.803%)

         :::::::::::::::::::::::::::::::::::::::::::::::::::::
         ::                     SUMMARY                     ::
         :::::::::::::::::::::::::::::::::::::::::::::::::::::
         :: total energy             -32.843327245934 Eh    ::
         :: gradient norm              0.000625823035 Eh/a0 ::
         :: HOMO-LUMO gap              9.730321179665 eV    ::
         ::.................................................::
         :: SCC energy               -33.113413062435 Eh    ::
         :: -> isotropic ES            0.229213965285 Eh    ::
         :: -> anisotropic ES         -0.008391077048 Eh    ::
         :: -> anisotropic XC          0.005847264345 Eh    ::
         :: -> dispersion             -0.015597944508 Eh    ::
         :: repulsion energy           0.270085816501 Eh    ::
         :: add. restraining           0.000000000000 Eh    ::
         :: total charge              -1.000000000000 e     ::
         :::::::::::::::::::::::::::::::::::::::::::::::::::::

           -------------------------------------------------
          |                Property Printout                |
           -------------------------------------------------

    * Orbital Energies and Occupations

         #    Occupation            Energy/Eh            Energy/eV
      -------------------------------------------------------------
         1        2.0000           -0.5385477             -14.6546
       ...           ...                  ...                  ...
        16        2.0000           -0.3466316              -9.4323
        17        2.0000           -0.3376700              -9.1885
        18        2.0000           -0.3356408              -9.1333
        19        2.0000           -0.3283042              -8.9336
        20        2.0000           -0.3041486              -8.2763
        21        2.0000           -0.3008137              -8.1856
        22        2.0000           -0.2922373              -7.9522
        23        2.0000           -0.2724703              -7.4143
        24        2.0000           -0.2554357              -6.9508
        25        2.0000           -0.2421250              -6.5886
        26        2.0000           -0.2397544              -6.5241
        27        2.0000           -0.2344487              -6.3797
        28        2.0000           -0.2216577              -6.0316 (HOMO)
        29                          0.1359250               3.6987 (LUMO)
        30                          0.1397047               3.8016
        31                          0.1971322               5.3642
        32                          0.2292745               6.2389
        33                          0.2545632               6.9270
        34                          0.2577902               7.0148
        35                          0.2625615               7.1447
        36                          0.2648184               7.2061
        37                          0.2877534               7.8302
        38                          0.2934570               7.9854
        39                          0.3032276               8.2512
       ...                                ...                  ...
        51                          1.4059091              38.2567
      -------------------------------------------------------------
                  HL-Gap            0.3575827 Eh            9.7303 eV
             Fermi-level           -0.0428664 Eh           -1.1665 eV

     #   Z          covCN         q      C6AA      α(0)
     1   6 C        3.957     0.112    18.690     6.143
     2   6 C        3.750    -0.107    22.607     6.781
     3   8 O        1.658    -0.342    19.761     6.001
     4  15 P        3.778     0.398   143.759    21.538
     5   8 O        0.808    -0.505    23.917     6.556
     6   8 O        1.659    -0.308    19.145     5.907
     7   6 C        3.937     0.103    18.823     6.165
     8   6 C        3.750    -0.107    22.605     6.781
     9   8 O        0.808    -0.521    24.290     6.607
    10   1 H        0.923    -0.005     3.142     2.772
    11   1 H        0.923     0.028     2.622     2.532
    12   1 H        0.925     0.066     2.125     2.279
    13   1 H        0.925     0.028     2.617     2.530
    14   1 H        0.925     0.011     2.879     2.653
    15   1 H        0.924     0.040     2.449     2.447
    16   1 H        0.923     0.001     3.035     2.724
    17   1 H        0.925     0.065     2.141     2.288
    18   1 H        0.925     0.013     2.835     2.633
    19   1 H        0.925     0.029     2.595     2.519

 Mol. C6AA /au·bohr⁶  :       4177.870424
 Mol. C8AA /au·bohr⁸  :     105528.280552
 Mol. α(0) /au        :         97.857230


Wiberg/Mayer (AO) data.
largest (>0.10) Wiberg bond orders for each atom

 ---------------------------------------------------------------------------
     #   Z sym  total        # sym  WBO       # sym  WBO       # sym  WBO
 ---------------------------------------------------------------------------
     1   6 C    3.962 --     2 C    1.007     3 O    0.994    10 H    0.970
                            11 H    0.963
     2   6 C    3.996 --     1 C    1.007    14 H    0.989    13 H    0.989
                            12 H    0.979
     3   8 O    2.217 --     4 P    0.998     1 C    0.994
     4  15 P    5.766 --     5 O    1.834     9 O    1.793     6 O    1.091
                             3 O    0.998
     5   8 O    2.069 --     4 P    1.834
     6   8 O    2.277 --     4 P    1.091     7 C    0.984
     7   6 C    3.956 --     8 C    1.008     6 O    0.984    16 H    0.971
                            15 H    0.963
     8   6 C    3.996 --     7 C    1.008    19 H    0.989    18 H    0.989
                            17 H    0.981
     9   8 O    2.048 --     4 P    1.793
    10   1 H    1.000 --     1 C    0.970
    11   1 H    0.999 --     1 C    0.963
    12   1 H    0.996 --     2 C    0.979
    13   1 H    0.999 --     2 C    0.989
    14   1 H    1.000 --     2 C    0.989
    15   1 H    0.998 --     7 C    0.963
    16   1 H    1.000 --     7 C    0.971
    17   1 H    0.996 --     8 C    0.981
    18   1 H    0.999 --     8 C    0.989
    19   1 H    0.999 --     8 C    0.989
 ---------------------------------------------------------------------------

Topologies differ in total number of bonds
Writing topology from bond orders to xtbtopo.mol

molecular dipole:
                 x           y           z       tot (Debye)
 q only:       -2.041      -4.410      -1.868
   full:       -2.242      -4.450      -2.015      13.661
molecular quadrupole (traceless):
                xx          xy          yy          xz          yz          zz
 q only:        7.435     -15.764     -13.104      -5.114     -10.326       5.670
  q+dip:        6.312     -16.631     -12.532      -5.488     -11.240       6.220
   full:        6.292     -17.716     -11.269      -5.283     -10.258       4.977

           -------------------------------------------------
          |                Geometry Summary                 |
           -------------------------------------------------

      molecular mass/u    :      153.0937328
   center of mass at/Å    :        0.2394457       1.9715647       0.6747353
  moments of inertia/u·Å² :        0.2364110E+03   0.4726651E+03   0.5578155E+03
rotational constants/cm⁻¹ :        0.7130647E-01   0.3566507E-01   0.3022080E-01

 * 17 selected distances

     #   Z          #   Z                                           value/Å
     1   6 C        2   6 C                                       1.5254436
     1   6 C        3   8 O                                       1.3901356
     4  15 P        5   8 O                                       1.4801521
     4  15 P        6   8 O                                       1.6524837 (max)
     6   8 O        7   6 C                                       1.3950339
     7   6 C        8   6 C                                       1.5246142
     4  15 P        9   8 O                                       1.4893167
     1   6 C       10   1 H                                       1.1020443
     1   6 C       11   1 H                                       1.0986114
     2   6 C       12   1 H                                       1.0863285
     2   6 C       13   1 H                                       1.0888213
     2   6 C       14   1 H                                       1.0894304
     7   6 C       15   1 H                                       1.0976676
     7   6 C       16   1 H                                       1.1008387
     8   6 C       17   1 H                                       1.0857788 (min)
     8   6 C       18   1 H                                       1.0897801
     8   6 C       19   1 H                                       1.0885733

 * 4 distinct bonds (by element types)

   Z      Z             #   av. dist./Å        max./Å        min./Å
   1 H    6 C          10     1.0927874     1.1020443     1.0857788
   6 C    6 C           2     1.5250289     1.5254436     1.5246142
   6 C    8 O           2     1.3925847     1.3950339     1.3901356
   8 O   15 P           3     1.5406508     1.6524837     1.4801521


optimized geometry written to: xtbopt.xyz


           -------------------------------------------------
          | TOTAL ENERGY              -32.843327245934 Eh   |
          | GRADIENT NORM               0.000625823035 Eh/α |
          | HOMO-LUMO GAP               9.730321179665 eV   |
           -------------------------------------------------

------------------------------------------------------------------------
 * finished run on 2024/12/20 at 01:52:48.822     
------------------------------------------------------------------------
 total:
 * wall-time:     0 d,  0 h,  0 min,  0.283 sec
 *  cpu-time:     0 d,  0 h,  0 min,  2.233 sec
 * ratio c/w:     7.888 speedup
 SCF:
 * wall-time:     0 d,  0 h,  0 min,  0.013 sec
 *  cpu-time:     0 d,  0 h,  0 min,  0.101 sec
 * ratio c/w:     7.580 speedup
 ANC optimizer:
 * wall-time:     0 d,  0 h,  0 min,  0.254 sec
 *  cpu-time:     0 d,  0 h,  0 min,  2.022 sec
 * ratio c/w:     7.969 speedup

