23
 energy: -35.171263939761 gnorm: 0.040921066443 xtb: 6.7.1 (edcfbbe)
C            1.09567000000000        0.04524000000000       -0.19024000000000
C            0.38061000000000        0.83236000000000        0.90806000000000
C            0.89589000000000        2.25593000000000        1.15153000000000
C            0.42395000000000        3.34651000000000        0.18845000000000
C           -1.09098000000000        3.47920000000000        0.01829000000000
C           -1.81117000000000        3.84800000000000        1.30647000000000
S            0.33147000000000        0.06266000000000       -1.79906000000000
O            0.99950000000000       -1.04598000000000       -2.48058000000000
O           -1.08526000000000       -0.16394000000000       -1.52187000000000
O            0.65702000000000        1.37935000000000       -2.33650000000000
H            1.09478000000000       -1.01256000000000        0.10356000000000
H            2.14059000000000        0.34986000000000       -0.30597000000000
H           -0.70571000000000        0.81760000000000        0.78593000000000
H            0.57264000000000        0.28859000000000        1.84389000000000
H            0.59879000000000        2.54959000000000        2.16647000000000
H            1.99307000000000        2.24769000000000        1.16073000000000
H            0.81850000000000        4.30677000000000        0.54571000000000
H            0.88426000000000        3.19565000000000       -0.79052000000000
H           -1.28742000000000        4.26241000000000       -0.72391000000000
H           -1.51759000000000        2.55765000000000       -0.39017000000000
H           -1.41147000000000        4.77686000000000        1.72590000000000
H           -2.87801000000000        3.99763000000000        1.11166000000000
H           -1.71840000000000        3.06019000000000        2.05964000000000
23
 energy: -35.175890844629 gnorm: 0.021190695192 xtb: 6.7.1 (edcfbbe)
C            1.10966943195558        0.04420962889891       -0.15832677119343
C            0.40221804537865        0.82862880693008        0.93614314353096
C            0.88764667041201        2.26354429724304        1.16522167828951
C            0.42637920220904        3.33418703495901        0.17474604577871
C           -1.08608143479576        3.46689553900675        0.01588462843490
C           -1.80971177847082        3.84397244517504        1.30388001045683
S            0.32318493117906        0.09342203621470       -1.78531443094611
O            0.97330614403226       -1.01122940679058       -2.49267598654106
O           -1.09746286887036       -0.12862422631117       -1.51948553671070
O            0.64034105423010        1.40908218287056       -2.33526601443721
H            1.10253465966865       -1.01937633288203        0.09167596865921
H            2.14316508060641        0.35958334405209       -0.29253340738444
H           -0.67172464333700        0.81692267870547        0.72921452137108
H            0.55555656923810        0.29097735674241        1.88429619106537
H            0.57949957511237        2.56588115529934        2.17440412800702
H            1.98317639110629        2.25271959012075        1.16292523884893
H            0.82540011570164        4.29904553799193        0.52014657899782
H            0.85393862976818        3.12439016787104       -0.81013832355493
H           -1.27653927815576        4.24346466977279       -0.73217053905478
H           -1.49063542077725        2.53610174639394       -0.38487386843121
H           -1.40715192307351        4.76888596225409        1.72139555368927
H           -2.87362052100809        3.99352356900797        1.11410654404830
H           -1.71235863210979        3.06105221647372        2.05421464707593
23
 energy: -35.178188963067 gnorm: 0.010135567097 xtb: 6.7.1 (edcfbbe)
C            1.13716753825830        0.05189498907411       -0.12094197309872
C            0.40946074564761        0.82583383998898        0.95708803469368
C            0.88935061339256        2.26301950448197        1.18046831627708
C            0.42706357666013        3.30283975141907        0.15614266809223
C           -1.08610503698970        3.44447615257027        0.00819029117280
C           -1.80440124919311        3.83412380892024        1.29806976657613
S            0.31395284856638        0.14579579317962       -1.75984638752824
O            0.93322057132071       -0.95702840803818       -2.50140475752500
O           -1.10972691907900       -0.06111890060286       -1.49108441510197
O            0.62716366701227        1.46093672783608       -2.31889036864355
H            1.12006891354411       -1.01729405688645        0.08109208726293
H            2.16095809478311        0.37535052936324       -0.28067629363686
H           -0.65209994461146        0.81082637585622        0.67979198100088
H            0.52049074810718        0.29668924887865        1.91573652201166
H            0.56457677912870        2.58000383656653        2.17871056244051
H            1.98429228729540        2.26020212821649        1.18208894363592
H            0.84697724667713        4.27250243917764        0.46260267284993
H            0.82039396601665        3.02620860025309       -0.82976768240764
H           -1.27549142587922        4.21358869235858       -0.74554400532815
H           -1.48308286851133        2.50805899331106       -0.37969792780357
H           -1.39206115678364        4.75660033244512        1.70726448359120
H           -2.86504791887982        3.98932318550071        1.11070457348171
H           -1.70639107648296        3.05442643612940        2.04737290798692
23
 energy: -35.179034801003 gnorm: 0.010306255433 xtb: 6.7.1 (edcfbbe)
C            1.15654599721515        0.06172628546388       -0.10299153878415
C            0.41183328654330        0.82193154170030        0.96901088938426
C            0.88613184600409        2.26022661244366        1.19126417506204
C            0.42771543099583        3.27395775916206        0.13822461502411
C           -1.08700443263732        3.42132300004374        0.00088114318677
C           -1.79750696799762        3.82442789158227        1.29159160502489
S            0.30783600358273        0.19052531873144       -1.74142287358030
O            0.89556237788050       -0.91574711539010       -2.50629279393097
O           -1.11703877471911        0.00778195458141       -1.45594907123492
O            0.63069902201048        1.50486885063717       -2.29935703734984
H            1.13584291033277       -1.01001908019852        0.07241238447673
H            2.17575357294144        0.39103710702600       -0.27084943314560
H           -0.63995994569113        0.80662755887563        0.66871198860699
H            0.49755166281275        0.29238850428144        1.92884249064820
H            0.55080172656253        2.59069724347106        2.18123793281330
H            1.98069962748143        2.26367517198123        1.20384642811269
H            0.86412521900890        4.24921597608049        0.40211938520956
H            0.80326993833714        2.95458773758608       -0.84174904647182
H           -1.27668706868005        4.18392986605100       -0.75856885521211
H           -1.49035440216746        2.48348549296611       -0.37644485270885
H           -1.37440135570095        4.74562326703572        1.69308610641579
H           -2.85716022848781        3.98804713246773        1.10608319308162
H           -1.70352544562759        3.04694192341952        2.04378316537146
23
 energy: -35.179548848042 gnorm: 0.010054737902 xtb: 6.7.1 (edcfbbe)
C            1.16782006132685        0.07506557952104       -0.09872545313460
C            0.41375722565036        0.81994873634980        0.97653026697455
C            0.88310157191110        2.25839069408418        1.20095386860235
C            0.42686849732120        3.24881948379688        0.12677312938700
C           -1.08831234899108        3.40089876256944       -0.00553058042704
C           -1.79046919749656        3.81576789700593        1.28540427691527
S            0.30370769824580        0.22398829753617       -1.73142635666873
O            0.85588095074616       -0.89565189630712       -2.50346375445190
O           -1.12256599602266        0.07785718986988       -1.42394894452774
O            0.64901531312349        1.53076796716093       -2.29552097120288
H            1.14923390385027       -0.99724621214789        0.06370388395216
H            2.18503082169258        0.41079756034052       -0.26333500567566
H           -0.63227737064433        0.80349898039864        0.67213311741078
H            0.49050457206293        0.28505373819111        1.93211481015050
H            0.53472046209475        2.59815788159154        2.18309683774398
H            1.97784315071944        2.26875716060186        1.22998611792270
H            0.87371891367683        4.22776787040270        0.35285707514038
H            0.79272816668231        2.90052251985006       -0.84373877851448
H           -1.27948498717314        4.15779418438979       -0.77045995633218
H           -1.50050537527747        2.46246322881592       -0.37464323032648
H           -1.35606466210275        4.73435536802906        1.68221910330129
H           -2.84953068223525        3.99014029329140        1.10152658762731
H           -1.70399068916081        3.03934471465731        2.04096395613322
23
 energy: -35.179998294410 gnorm: 0.010377149636 xtb: 6.7.1 (edcfbbe)
C            1.17427373500781        0.09250877222307       -0.10327563778403
C            0.41780794604953        0.81835977678844        0.98507401911805
C            0.87784441669874        2.25847440853439        1.21269300498751
C            0.42573758012873        3.22546457868148        0.11879655277767
C           -1.08973528742721        3.37959335888476       -0.00988614434738
C           -1.78464650132844        3.80833054761404        1.27924654142505
S            0.30076179039661        0.25300521754997       -1.72711402865563
O            0.80517920039028       -0.89303052772504       -2.49220039206894
O           -1.12826461863902        0.16377406779707       -1.39581688049079
O            0.68606576939448        1.54202492721429       -2.31005227346526
H            1.16341088424636       -0.98087995109262        0.05048212917375
H            2.19075228005011        0.43673977549929       -0.25884399536567
H           -0.62683640382060        0.79914016473986        0.68572672000606
H            0.50000607355398        0.27428079373058        1.93305783989863
H            0.51365111317606        2.60443226045962        2.18676477190135
H            1.97266708731918        2.27715563051416        1.26114367205482
H            0.87957243286791        4.20707227072104        0.30755601566091
H            0.78405773176496        2.84955477154868       -0.84110474605734
H           -1.28286335900283        4.12917102058322       -0.78200957053551
H           -1.51000909103329        2.43967364107771       -0.37026414662312
H           -1.33718264915806        4.72288341025608        1.67221647826153
H           -2.84253680243585        3.99626481235905        1.09638540108093
H           -1.70898332819944        3.03326627203983        2.03889466904719
23
 energy: -35.180367405398 gnorm: 0.012657687295 xtb: 6.7.1 (edcfbbe)
C            1.17535145697896        0.10902044521729       -0.11259790253299
C            0.42437590202515        0.81469126605808        0.99587877313038
C            0.87167645293546        2.25858863827805        1.22380325819564
C            0.42362240141730        3.20652641057115        0.11449115801527
C           -1.09182561523530        3.36299534043184       -0.01300672804913
C           -1.78205048086805        3.80528340157957        1.27318364755227
S            0.29811368637903        0.27409280314644       -1.72696187118147
O            0.75401644930464       -0.90192590995790       -2.47593691559951
O           -1.13317946015553        0.24642393069575       -1.38082640117454
O            0.72990834944175        1.53965128686094       -2.33485092006832
H            1.17969555871428       -0.96649829025079        0.03427299431470
H            2.19039920698526        0.46557236477605       -0.26007305018727
H           -0.62427892160228        0.78906220786830        0.71183390221429
H            0.52899900116371        0.26159596005827        1.93566883657117
H            0.49180723129771        2.60713923020298        2.19076992363374
H            1.96611682361782        2.28590497171333        1.28896521856032
H            0.88053703643722        4.18856297113798        0.27699378219166
H            0.77819634031123        2.81028838192591       -0.83671015988237
H           -1.28555255445599        4.10558476706608       -0.79215264881396
H           -1.51601664236465        2.42088510809282       -0.36547875262504
H           -1.32243331857848        4.71472181539619        1.66441917459750
H           -2.83759662746085        4.00736498006632        1.08939895646670
H           -1.71915227628842        3.03172791906419        2.03638572467068
23
 energy: -35.180696590141 gnorm: 0.012486714423 xtb: 6.7.1 (edcfbbe)
C            1.17333533891521        0.12036485354880       -0.12175171088366
C            0.43228867867901        0.80712013484758        1.00781433116372
C            0.86489217836374        2.25652068458709        1.23217062055231
C            0.42115847844490        3.19355169972667        0.11333839299902
C           -1.09393680515087        3.35335779964498       -0.01555825890167
C           -1.78305211815664        3.80821427491755        1.26671128544164
S            0.29433646696634        0.28675880237173       -1.72777759608655
O            0.71521205738318       -0.90887910723962       -2.46189985390247
O           -1.13566857345692        0.30337275862186       -1.38029730893147
O            0.76128745197147        1.53154550823788       -2.35462915771397
H            1.19952371224390       -0.95761357350836        0.01809347111191
H            2.18415630793019        0.49397527999556       -0.26779961700764
H           -0.62446336277111        0.77040614264793        0.74711976260544
H            0.57153616265324        0.24904319693893        1.94150024433041
H            0.47246752204952        2.60515941051904        2.19382012814646
H            1.95838559652691        2.29142004987492        1.30770803892632
H            0.87944628922600        4.17454484413266        0.26485192758215
H            0.77534397619765        2.78627691233278       -0.83346113846761
H           -1.28509700800971        4.09067654117555       -0.80035911990199
H           -1.51839564681932        2.40914744636500       -0.36171350568303
H           -1.31350002538397        4.71244050714697        1.65777084022853
H           -2.83512388343138        4.02337587094648        1.07915432697635
H           -1.73340279437141        3.03647996216679        2.03266389741550
23
 energy: -35.180991365147 gnorm: 0.009899764446 xtb: 6.7.1 (edcfbbe)
C            1.17569389934974        0.12641221981750       -0.12791046351897
C            0.44560637437055        0.79583403478286        1.01917844988293
C            0.85859087446931        2.25204492449225        1.23990271357635
C            0.41797014078659        3.18295019390909        0.11441345161260
C           -1.09647966825619        3.34617158821190       -0.01894870060356
C           -1.78810572255143        3.81447376834128        1.25786124735987
S            0.28780863988495        0.29871624645957       -1.72591065722473
O            0.67309655359653       -0.91163114335587       -2.45270610787322
O           -1.13814739649342        0.35445472929268       -1.38121252434894
O            0.78575244432822        1.52351623533175       -2.36612064013165
H            1.22324739246915       -0.95284293029804        0.00222564123179
H            2.17899252351431        0.51779973283281       -0.28238819181649
H           -0.62019872991203        0.74226687793211        0.78480428775545
H            0.62234877197662        0.23804664518702        1.94958856643912
H            0.45248632787154        2.59883267887259        2.19653616491582
H            1.95073891272347        2.29614818965791        1.32363707507818
H            0.87728913540342        4.16332381843438        0.26573297758786
H            0.77297281478250        2.77085188015984       -0.83142842800015
H           -1.28212321134815        4.07851718646817       -0.80938914138880
H           -1.51860435677400        2.39944319987771       -0.35860299675164
H           -1.30955761279220        4.71359831633771        1.64881823060459
H           -2.83536428567980        4.04280744542570        1.06272066587977
H           -1.75328382171973        3.04552416182770        2.02666837973348
23
 energy: -35.181181604947 gnorm: 0.007914006445 xtb: 6.7.1 (edcfbbe)
C            1.18379041807716        0.12827214361212       -0.13054437257856
C            0.46190853957739        0.78478441019648        1.02653349040820
C            0.85516648630529        2.24666241156315        1.24548676644186
C            0.41530944717206        3.17586799524874        0.11730952548178
C           -1.09865769729309        3.33900336629684       -0.02218835041182
C           -1.79540298923376        3.81947446982930        1.24825877545031
S            0.27998344370476        0.31087112701303       -1.72187147669733
O            0.62637634942052       -0.91430013533061       -2.44689231363104
O           -1.14153605600595        0.40526667339780       -1.37472960095882
O            0.80764344687349        1.51708009972921       -2.37193915924483
H            1.24267522896591       -0.95036442947080       -0.01016247493892
H            2.17927125958213        0.53097994457634       -0.29912880030074
H           -0.60878421823079        0.71493787067375        0.81192670510129
H            0.66344247275126        0.23067318266963        1.95561876531991
H            0.43630041365495        2.58956039325633        2.19795252720637
H            1.94598918082025        2.30201589041337        1.33693971412571
H            0.87366436607266        4.15693485700789        0.27534411727314
H            0.77340576198604        2.76679924832913       -0.82880748800444
H           -1.27925884033055        4.06601447846139       -0.81838947281431
H           -1.51786094894067        2.38937824309883       -0.35552815178053
H           -1.31055138806886        4.71529755413841        1.63838740670163
H           -2.83805021546197        4.05805380450023        1.04349530145792
H           -1.77409446139832        3.05399640078797        2.02039856639283
23
 energy: -35.181262702612 gnorm: 0.004804666415 xtb: 6.7.1 (edcfbbe)
C            1.19028583912768        0.12634263209320       -0.13169850627931
C            0.47188941954397        0.77766797975294        1.02716566690784
C            0.85490406859667        2.24148530355875        1.24679168289147
C            0.41501193304131        3.17755112411315        0.12317365478107
C           -1.09850707489717        3.33734499385439       -0.02307558117520
C           -1.80168732166200        3.82421417332554        1.24175738867323
S            0.27339783512794        0.31252229072659       -1.71979210316886
O            0.60527229215779       -0.91411692638685       -2.44508327997260
O           -1.14159715459433        0.41576015010728       -1.36930449399669
O            0.80710514646188        1.51070281989030       -2.37061605626764
H            1.25342481612180       -0.95116510360011       -0.01623833101146
H            2.17965473201651        0.53527399339580       -0.31348061227076
H           -0.59894323589931        0.69868111060162        0.82117245123615
H            0.68163374879129        0.22803314084212        1.95620056200326
H            0.43150702863530        2.57901713250934        2.19857703547705
H            1.94476168958974        2.30403059285007        1.34064063391747
H            0.86901564143130        4.16005384858604        0.29669493254819
H            0.78086315066490        2.78127505902782       -0.82543644891513
H           -1.27635875389583        4.06004709959961       -0.82367076141480
H           -1.51463878896458        2.38525322580458       -0.35275264846914
H           -1.31706418461696        4.72030516819951        1.63110683672154
H           -2.84175925994438        4.06484602394797        1.02839796937239
H           -1.78744156683362        3.06213416719882        2.01694000841149
23
 energy: -35.181287458206 gnorm: 0.006395184339 xtb: 6.7.1 (edcfbbe)
C            1.19956208197454        0.13026269173380       -0.13340872315790
C            0.48235499493885        0.77255444300923        1.03030960359748
C            0.85429538132235        2.23827547061777        1.25264782360982
C            0.41453960663906        3.17154384613187        0.12517858791074
C           -1.09892080044217        3.32720920531744       -0.02510613799235
C           -1.80558914608999        3.82375815256604        1.23423441482136
S            0.26701042527070        0.32610775150677       -1.71610670094475
O            0.56216243709172       -0.91670192017931       -2.43810292071550
O           -1.14523773629059        0.46579349246892       -1.35124301897065
O            0.82717364306743        1.50910116221823       -2.37680661507994
H            1.26484191344081       -0.94738548914976       -0.02601659021880
H            2.18460482120971        0.54376870296897       -0.32328646418586
H           -0.58711615182799        0.68683430648001        0.82757543762579
H            0.69670020473708        0.22252381415373        1.95709942577534
H            0.42192188696215        2.57377481491903        2.20144149526635
H            1.94342283426117        2.30927229055743        1.35422910444879
H            0.86570598847668        4.15726795242233        0.29893142709912
H            0.78467843678461        2.77510001420994       -0.82282043537622
H           -1.27643864627003        4.04284750941190       -0.83235437195585
H           -1.51353669204709        2.37163035615552       -0.34817098227863
H           -1.31870204031094        4.72000398514117        1.62117786771419
H           -2.84368272504326        4.06813727938225        1.01432947486732
H           -1.79902071785489        3.06558016795515        2.01373829813970
23
 energy: -35.181325905821 gnorm: 0.002834751391 xtb: 6.7.1 (edcfbbe)
C            1.19654983634020        0.12975176789238       -0.13384797238036
C            0.47674734301631        0.77597878005538        1.02711322202769
C            0.85577439659940        2.23957477990542        1.25082911175500
C            0.41584874703110        3.17563739645924        0.12629522892847
C           -1.09751419867059        3.33023017762889       -0.02379707178146
C           -1.80391691811115        3.82279238868269        1.23657050050433
S            0.26860457958495        0.31982188198848       -1.71815540210437
O            0.57818115116632       -0.91641041739941       -2.43950665631640
O           -1.14363092556675        0.44346826763778       -1.35345587841196
O            0.81598134639635        1.50881063015059       -2.37590139791501
H            1.26017239696948       -0.94794069805220       -0.02220785857369
H            2.18358099474399        0.54098594242166       -0.31931970500508
H           -0.59143828777610        0.69549584947064        0.81816399623741
H            0.68424824452530        0.22410624194339        1.95408066505023
H            0.42812020185915        2.57535433434680        2.20154656757693
H            1.94524211575612        2.30628699796934        1.34938117270334
H            0.86547691858984        4.16075379176561        0.30221592797486
H            0.78770879667721        2.78278680597507       -0.82195462570177
H           -1.27649878529674        4.04701096342734       -0.82958270284507
H           -1.51187377228925        2.37529902303407       -0.34902621263495
H           -1.32078413319984        4.72116108741932        1.62342328322126
H           -2.84370591464859        4.06198717726435        1.01896002029039
H           -1.79214413369683        3.06431683001161        2.01564578739973
23
 energy: -35.181339299306 gnorm: 0.001704449946 xtb: 6.7.1 (edcfbbe)
C            1.19700540933629        0.13104172956345       -0.13515181689075
C            0.47568649832462        0.77671996803142        1.02598347892180
C            0.85672890869148        2.23948405055858        1.25166902171127
C            0.41710829817534        3.17706600602100        0.12840724783263
C           -1.09614352516767        3.32881827312603       -0.02363037245110
C           -1.80419536559382        3.82165526071290        1.23530319884069
S            0.26723967097439        0.31969633687266       -1.71838326673219
O            0.57447527846659       -0.91669101008038       -2.43829705322036
O           -1.14375438506460        0.44336872296095       -1.34915044826201
O            0.81331704018763        1.50790926492322       -2.37767144012254
H            1.26186745592851       -0.94678461683109       -0.02266001758314
H            2.18403547305412        0.54341418495799       -0.31933476441042
H           -0.59168337348870        0.69820253386664        0.81342890064560
H            0.68047986503945        0.22265024515690        1.95217793368065
H            0.42987507147422        2.57474386145402        2.20297611644026
H            1.94623054461274        2.30517750675781        1.35016195774206
H            0.86425318695870        4.16271544970323        0.30665090025666
H            0.79215607479850        2.78710687321074       -0.81991895627405
H           -1.27588280563238        4.04387335829361       -0.83076592399542
H           -1.50883848585554        2.37289873285255       -0.34827654520138
H           -1.32430289482499        4.72250849663012        1.62066228745418
H           -2.84490272246641        4.05681316375077        1.01720774089487
H           -1.79002521792855        3.06487160750530        2.01608182072224
23
 energy: -35.181350203796 gnorm: 0.001408455497 xtb: 6.7.1 (edcfbbe)
C            1.19849370796482        0.13345175448628       -0.13742863838044
C            0.47536971258778        0.77752678419855        1.02446681339729
C            0.85902706069707        2.23911597394251        1.25421981235054
C            0.41997418305982        3.17933633926015        0.13291405960144
C           -1.09316661719698        3.32523768412530       -0.02396619736678
C           -1.80597821910448        3.81857865024163        1.23154119818343
S            0.26359844311599        0.32147527530612       -1.71775621903593
O            0.55980032627079       -0.91723834620826       -2.43608626270043
O           -1.14517856214188        0.45056376810695       -1.34042410140054
O            0.81082319634204        1.50643716481307       -2.38120755969235
H            1.26715853291777       -0.94433480697190       -0.02401849605698
H            2.18486766398955        0.54902578204319       -0.31986547575436
H           -0.59094579782145        0.70235303955150        0.80634866602191
H            0.67575653543678        0.21970708119102        1.94928216967186
H            0.43300202409134        2.57310189112851        2.20650259376120
H            1.94863185822438        2.30295818096026        1.35261916408376
H            0.86221257307690        4.16626199150315        0.31635133599136
H            0.80085465410506        2.79462736745611       -0.81588104033719
H           -1.27361754206586        4.03687609367230       -0.83380624945827
H           -1.50127696271642        2.36705546242984       -0.34748658539240
H           -1.33419948957888        4.72556665438717        1.61292895626206
H           -2.84874155922387        4.04357211084336        1.01188261076470
H           -1.78573572203035        3.06600410353160        2.01633944548563
23
 energy: -35.181354639999 gnorm: 0.000614767253 xtb: 6.7.1 (edcfbbe)
C            1.19816252540887        0.13335158572644       -0.13714902888493
C            0.47587964946751        0.77712689755418        1.02516353695953
C            0.85950039676135        2.23892024380099        1.25434601917285
C            0.42059913572893        3.17943429373293        0.13319395508870
C           -1.09259478418812        3.32529317044023       -0.02457854118949
C           -1.80680182388649        3.81748677635164        1.23074933815235
S            0.26300413301123        0.32241467637434       -1.71699295682619
O            0.55625343877872       -0.91701237519344       -2.43604695366110
O           -1.14608217111478        0.45371682461650       -1.34107357717808
O            0.81177835935434        1.50692807506778       -2.38063901271590
H            1.26786939203684       -0.94436305780667       -0.02417364689597
H            2.18413982922057        0.54961709626123       -0.32042791998070
H           -0.59094827704627        0.70195363514421        0.80874889594661
H            0.67714422443565        0.21979261967266        1.95012744515003
H            0.43366166626471        2.57287072342673        2.20671103924243
H            1.94924351883487        2.30259657163994        1.35241006332578
H            0.86285453479062        4.16627197110158        0.31745754832254
H            0.80132536175746        2.79503772244884       -0.81561584754346
H           -1.27224911226737        4.03769177176436       -0.83382828410615
H           -1.49992825322012        2.36723926485437       -0.34906575622665
H           -1.33756982345114        4.72606002413730        1.61130111541031
H           -2.85012859022892        4.03933094610946        1.01086191524581
H           -1.78438333044858        3.06550054277282        2.01599065319120
