      -----------------------------------------------------------      
     |                   =====================                   |     
     |                           x T B                           |     
     |                   =====================                   |     
     |                         S. Grimme                         |     
     |          Mulliken Center for Theoretical Chemistry        |     
     |                    University of Bonn                     |     
      -----------------------------------------------------------      

   * xtb version 6.7.1 (edcfbbe) compiled by 'conda@3ef47c1a292c' on 2024-11-25

   xtb is free software: you can redistribute it and/or modify it under
   the terms of the GNU Lesser General Public License as published by
   the Free Software Foundation, either version 3 of the License, or
   (at your option) any later version.
   
   xtb is distributed in the hope that it will be useful,
   but WITHOUT ANY WARRANTY; without even the implied warranty of
   MERCHANTABILITY or FITNESS FOR A PARTICULAR PURPOSE.  See the
   GNU Lesser General Public License for more details.
   
   Cite this work as:
   * C. Bannwarth, E. Caldeweyher, S. Ehlert, A. Hansen, P. Pracht,
     J. Seibert, S. Spicher, S. Grimme, WIREs Comput. Mol. Sci., 2020, 11,
     e01493. DOI: 10.1002/wcms.1493
   
   for GFN2-xTB:
   * C. Bannwarth, S. Ehlert and S. Grimme., J. Chem. Theory Comput., 2019,
     15, 1652-1671. DOI: 10.1021/acs.jctc.8b01176
   for GFN1-xTB:
   * S. Grimme, C. Bannwarth, P. Shushkov, J. Chem. Theory Comput., 2017,
     13, 1989-2009. DOI: 10.1021/acs.jctc.7b00118
   for GFN0-xTB:
   * P. Pracht, E. Caldeweyher, S. Ehlert, S. Grimme, ChemRxiv, 2019, preprint.
     DOI: 10.26434/chemrxiv.8326202.v1
   for GFN-FF:
   * S. Spicher and S. Grimme, Angew. Chem. Int. Ed., 2020, 59, 15665-15673.
     DOI: 10.1002/anie.202004239
   
   for ALPB and GBSA implicit solvation:
   * S. Ehlert, M. Stahn, S. Spicher, S. Grimme, J. Chem. Theory Comput.,
     2021, 17, 4250-4261. DOI: 10.1021/acs.jctc.1c00471
   
   for ddCOSMO and CPCM-X implicit solvation:
   * M. Stahn, S. Ehlert, S. Grimme, J. Phys. Chem. A,
     2023, XX, XXXX-XXXX. DOI: 10.1021/acs.jpca.3c04382
   
   for DFT-D4:
   * E. Caldeweyher, C. Bannwarth and S. Grimme, J. Chem. Phys., 2017,
     147, 034112. DOI: 10.1063/1.4993215
   * E. Caldeweyher, S. Ehlert, A. Hansen, H. Neugebauer, S. Spicher,
     C. Bannwarth and S. Grimme, J. Chem. Phys., 2019, 150, 154122.
     DOI: 10.1063/1.5090222
   * E. Caldeweyher, J.-M. Mewes, S. Ehlert and S. Grimme, Phys. Chem. Chem. Phys.
     2020, 22, 8499-8512. DOI: 10.1039/D0CP00502A
   
   for sTDA-xTB:
   * S. Grimme and C. Bannwarth, J. Chem. Phys., 2016, 145, 054103.
     DOI: 10.1063/1.4959605
   
   in the mass-spec context:
   * V. Asgeirsson, C. Bauer and S. Grimme, Chem. Sci., 2017, 8, 4879.
     DOI: 10.1039/c7sc00601b
   * J. Koopman and S. Grimme, ACS Omega 2019, 4, 12, 15120-15133.
     DOI: 10.1021/acsomega.9b02011
   
   for metadynamics refer to:
   * S. Grimme, J. Chem. Theory Comput., 2019, 155, 2847-2862
     DOI: 10.1021/acs.jctc.9b00143
   
   for SPH calculations refer to:
   * S. Spicher and S. Grimme, J. Chem. Theory Comput., 2021, 17, 1701-1714
     DOI: 10.1021/acs.jctc.0c01306
   
   for ONIOM refer to:
   * C. Plett, A. Katbashev, S. Ehlert, S. Grimme, M. Bursch,
     Phys. Chem. Chem. Phys., 2023, 25, 17860-17868. DOI: 10.1039/D3CP02178E
   
   for DIPRO refer to:
   * J. Kohn, N. Gildemeister, S. Grimme, D. Fazzi, A. Hansen,
     J. Chem. Phys., 2023, just accepted.
   
   for PTB refer to:
   * S. Grimme, M. Mueller, A. Hansen, J. Chem. Phys., 2023, 158, 124111.
     DOI: 10.1063/5.0137838
   
   with help from (in alphabetical order)
   P. Atkinson, C. Bannwarth, F. Bohle, G. Brandenburg, E. Caldeweyher
   M. Checinski, S. Dohm, S. Ehlert, S. Ehrlich, I. Gerasimov, C. Hölzer
   A. Katbashev, J. Kohn, J. Koopman, C. Lavigne, S. Lehtola, F. März, M. Müller,
   F. Musil, H. Neugebauer, J. Pisarek, C. Plett, P. Pracht, F. Pultar,
   J. Seibert, P. Shushkov, S. Spicher, M. Stahn, M. Steiner, T. Strunk,
   J. Stückrath, T. Rose, and J. Unsleber
   
 * started run on 2024/12/20 at 01:52:49.145     
   ID    Z sym.   atoms
    1    6 C      1-6
    2   16 S      7
    3    8 O      8-10
    4    1 H      11-23

           -------------------------------------------------
          |                Calculation Setup                |
           -------------------------------------------------

          program call               : xtb A053.xyz --opt --namespace A053 --charge -1
          calculation namespace      : A053
          coordinate file            : A053.xyz
          omp threads                :                     8


           -------------------------------------------------
          |                 G F N 2 - x T B                 |
           -------------------------------------------------

        Reference                      10.1021/acs.jctc.8b01176
      * Hamiltonian:
        H0-scaling (s, p, d)           1.850000    2.230000    2.230000
        zeta-weighting                 0.500000
      * Dispersion:
        s8                             2.700000
        a1                             0.520000
        a2                             5.000000
        s9                             5.000000
      * Repulsion:
        kExp                           1.500000    1.000000
        rExp                           1.000000
      * Coulomb:
        alpha                          2.000000
        third order                    shell-resolved
        anisotropic                    true
        a3                             3.000000
        a5                             4.000000
        cn-shift                       1.200000
        cn-exp                         4.000000
        max-rad                        5.000000


          ...................................................
          :                      SETUP                      :
          :.................................................:
          :  # basis functions                  59          :
          :  # atomic orbitals                  58          :
          :  # shells                           34          :
          :  # electrons                        62          :
          :  max. iterations                   250          :
          :  Hamiltonian                  GFN2-xTB          :
          :  restarted?                      false          :
          :  GBSA solvation                  false          :
          :  PC potential                    false          :
          :  electronic temp.          300.0000000     K    :
          :  accuracy                    1.0000000          :
          :  -> integral cutoff          0.2500000E+02      :
          :  -> integral neglect         0.1000000E-07      :
          :  -> SCF convergence          0.1000000E-05 Eh   :
          :  -> wf. convergence          0.1000000E-03 e    :
          :  Broyden damping             0.4000000          :
          :  net charge                         -1          :
          :  unpaired electrons                  0          :
          ...................................................

 iter      E             dE          RMSdq      gap      omega  full diag
   1    -35.4230180 -0.354230E+02  0.517E+00    8.72       0.0  T
   2    -35.5085433 -0.855252E-01  0.305E+00    8.82       1.0  T
   3    -35.5116213 -0.307803E-02  0.121E+00    8.54       1.0  T
   4    -35.5133059 -0.168455E-02  0.337E-01    8.54       1.0  T
   5    -35.5136189 -0.313090E-03  0.188E-01    8.51       1.0  T
   6    -35.5137200 -0.101043E-03  0.731E-02    8.52       1.0  T
   7    -35.5137363 -0.163559E-04  0.300E-02    8.52       1.0  T
   8    -35.5137394 -0.310432E-05  0.891E-03    8.51       2.3  T
   9    -35.5137397 -0.240100E-06  0.417E-03    8.51       5.0  T
  10    -35.5137397 -0.264038E-07  0.126E-03    8.51      16.5  T
  11    -35.5137397 -0.309186E-08  0.349E-04    8.52      59.8  T
  12    -35.5137397 -0.160561E-09  0.105E-04    8.52     198.4  T

   *** convergence criteria satisfied after 12 iterations ***

         #    Occupation            Energy/Eh            Energy/eV
      -------------------------------------------------------------
         1        2.0000           -0.5548898             -15.0993
       ...           ...                  ...                  ...
        25        2.0000           -0.2966975              -8.0736
        26        2.0000           -0.2449023              -6.6641
        27        2.0000           -0.2440090              -6.6398
        28        2.0000           -0.2271323              -6.1806
        29        2.0000           -0.2258839              -6.1466
        30        2.0000           -0.2138060              -5.8180
        31        2.0000           -0.2101262              -5.7178 (HOMO)
        32                          0.1028003               2.7973 (LUMO)
        33                          0.1615671               4.3965
        34                          0.1814319               4.9370
        35                          0.1946093               5.2956
        36                          0.2051364               5.5820
       ...                                ...                  ...
        58                          1.3628539              37.0851
      -------------------------------------------------------------
                  HL-Gap            0.3129264 Eh            8.5152 eV
             Fermi-level           -0.0536630 Eh           -1.4602 eV

 SCC (total)                   0 d,  0 h,  0 min,  0.012 sec
 SCC setup                      ...        0 min,  0.000 sec (  0.875%)
 Dispersion                     ...        0 min,  0.000 sec (  1.492%)
 classical contributions        ...        0 min,  0.000 sec (  0.298%)
 integral evaluation            ...        0 min,  0.002 sec ( 15.071%)
 iterations                     ...        0 min,  0.008 sec ( 65.980%)
 molecular gradient             ...        0 min,  0.002 sec ( 15.416%)
 printout                       ...        0 min,  0.000 sec (  0.741%)

         :::::::::::::::::::::::::::::::::::::::::::::::::::::
         ::                     SUMMARY                     ::
         :::::::::::::::::::::::::::::::::::::::::::::::::::::
         :: total energy             -35.171263939748 Eh    ::
         :: gradient norm              0.040920726168 Eh/a0 ::
         :: HOMO-LUMO gap              8.515161832602 eV    ::
         ::.................................................::
         :: SCC energy               -35.513594152906 Eh    ::
         :: -> isotropic ES            0.216747300080 Eh    ::
         :: -> anisotropic ES         -0.006878755611 Eh    ::
         :: -> anisotropic XC          0.004990597479 Eh    ::
         :: -> dispersion             -0.020429917779 Eh    ::
         :: repulsion energy           0.342330213158 Eh    ::
         :: add. restraining           0.000000000000 Eh    ::
         :: total charge              -1.000000000000 e     ::
         :::::::::::::::::::::::::::::::::::::::::::::::::::::

      ----------------------------------------------------------- 
     |                   =====================                   |
     |                        A N C O P T                        |
     |                   =====================                   |
     |               Approximate Normal Coordinate               |
     |                Rational Function Optimizer                |
      ----------------------------------------------------------- 
      ----------------------------------------------------------- 
     |                   =====================                   |
     |                        A N C O P T                        |
     |                   =====================                   |
     |               Approximate Normal Coordinate               |
     |                Rational Function Optimizer                |
      ----------------------------------------------------------- 

          ...................................................
          :                      SETUP                      :
          :.................................................:
          :   optimization level            normal          :
          :   max. optcycles                   200          :
          :   ANC micro-cycles                  20          :
          :   degrees of freedom                63          :
          :.................................................:
          :   RF solver                   davidson          :
          :   write xtbopt.log                true          :
          :   linear?                        false          :
          :   energy convergence         0.5000000E-05 Eh   :
          :   grad. convergence          0.1000000E-02 Eh/α :
          :   maxmium RF displ.          1.0000000          :
          :   Hlow (freq-cutoff)         0.1000000E-01      :
          :   Hmax (freq-cutoff)         5.0000000          :
          :   S6 in model hess.         20.0000000          :
          ...................................................

generating ANC from exact Hessian ...
Using Lindh-Hessian (1995)
 Shifting diagonal of input Hessian by    9.1319650343625134E-003
 Lowest  eigenvalues of input Hessian
    0.000000    0.000000    0.000000    0.000000    0.000000    0.000000
    0.010000    0.010836    0.011129    0.013651    0.014404    0.018653
    0.019606    0.023326    0.023952    0.030858    0.036362    0.049550
 Highest eigenvalues
    1.246285    1.268484    1.300814    1.753899    3.394815    3.430558


........................................................................
.............................. CYCLE    1 ..............................
........................................................................

 iter      E             dE          RMSdq      gap      omega  full diag
   1    -35.5137397 -0.355137E+02  0.445E-05    8.52       0.0  T
   2    -35.5137397 -0.349587E-11  0.260E-05    8.52     802.9  T
   3    -35.5137397 -0.131450E-11  0.103E-05    8.52    2026.1  T
     SCC iter.                  ...        0 min,  0.002 sec
     gradient                   ...        0 min,  0.002 sec
 * total energy  :   -35.1712639 Eh     change       -0.1311662E-10 Eh
   gradient norm :     0.0409207 Eh/α   predicted     0.0000000E+00 (-100.00%)
   displ. norm   :     0.3043499 α      lambda       -0.6485470E-02
   maximum displ.:     0.1467948 α      in ANC's #3, #27, #4, ...

........................................................................
.............................. CYCLE    2 ..............................
........................................................................

 iter      E             dE          RMSdq      gap      omega  full diag
   1    -35.5199009 -0.355199E+02  0.213E-01    8.59       0.0  T
   2    -35.5199274 -0.265382E-04  0.124E-01    8.59       1.0  T
   3    -35.5199267  0.669991E-06  0.317E-02    8.59       1.0  T
   4    -35.5199312 -0.447030E-05  0.119E-02    8.59       1.8  T
   5    -35.5199313 -0.380260E-07  0.274E-03    8.59       7.6  T
   6    -35.5199313 -0.233489E-07  0.547E-04    8.59      38.1  T
   7    -35.5199313 -0.472610E-09  0.286E-04    8.59      72.9  T
     SCC iter.                  ...        0 min,  0.004 sec
     gradient                   ...        0 min,  0.002 sec
 * total energy  :   -35.1758908 Eh     change       -0.4626905E-02 Eh
   gradient norm :     0.0211899 Eh/α   predicted    -0.3543345E-02 ( -23.42%)
   displ. norm   :     0.4106922 α      lambda       -0.3481134E-02
   maximum displ.:     0.2490523 α      in ANC's #3, #4, #8, ...

........................................................................
.............................. CYCLE    3 ..............................
........................................................................

 iter      E             dE          RMSdq      gap      omega  full diag
   1    -35.5221522 -0.355222E+02  0.153E-01    8.35       0.0  T
   2    -35.5221841 -0.318979E-04  0.886E-02    8.35       1.0  T
   3    -35.5221850 -0.860089E-06  0.257E-02    8.35       1.0  T
   4    -35.5221878 -0.282963E-05  0.938E-03    8.35       2.2  T
   5    -35.5221878 -0.112404E-07  0.363E-03    8.35       5.7  T
   6    -35.5221878 -0.327238E-07  0.501E-04    8.35      41.6  T
   7    -35.5221878 -0.300027E-09  0.271E-04    8.35      76.8  T
     SCC iter.                  ...        0 min,  0.004 sec
     gradient                   ...        0 min,  0.002 sec
 * total energy  :   -35.1781890 Eh     change       -0.2298118E-02 Eh
   gradient norm :     0.0101347 Eh/α   predicted    -0.2034146E-02 ( -11.49%)
   displ. norm   :     0.3392625 α      lambda       -0.1194801E-02
   maximum displ.:     0.2314182 α      in ANC's #3, #4, #9, ...

........................................................................
.............................. CYCLE    4 ..............................
........................................................................

 iter      E             dE          RMSdq      gap      omega  full diag
   1    -35.5231341 -0.355231E+02  0.835E-02    8.17       0.0  T
   2    -35.5231507 -0.166143E-04  0.513E-02    8.17       1.0  T
   3    -35.5231516 -0.877811E-06  0.165E-02    8.17       1.3  T
   4    -35.5231522 -0.670044E-06  0.557E-03    8.17       3.7  T
   5    -35.5231523 -0.352132E-07  0.245E-03    8.17       8.5  T
   6    -35.5231523 -0.135231E-07  0.478E-04    8.17      43.6  T
   7    -35.5231523 -0.411241E-09  0.284E-04    8.17      73.4  T
     SCC iter.                  ...        0 min,  0.004 sec
     gradient                   ...        0 min,  0.002 sec
 * total energy  :   -35.1790348 Eh     change       -0.8458379E-03 Eh
   gradient norm :     0.0103051 Eh/α   predicted    -0.6661689E-03 ( -21.24%)
   displ. norm   :     0.2828200 α      lambda       -0.6978721E-03
   maximum displ.:     0.1869310 α      in ANC's #3, #9, #6, ...

........................................................................
.............................. CYCLE    5 ..............................
........................................................................

 iter      E             dE          RMSdq      gap      omega  full diag
   1    -35.5244290 -0.355244E+02  0.713E-02    8.11       0.0  T
   2    -35.5244388 -0.976529E-05  0.433E-02    8.11       1.0  T
   3    -35.5244394 -0.565796E-06  0.134E-02    8.11       1.6  T
   4    -35.5244397 -0.356949E-06  0.403E-03    8.11       5.2  T
   5    -35.5244397 -0.232432E-07  0.170E-03    8.11      12.2  T
   6    -35.5244397 -0.784842E-08  0.427E-04    8.11      48.8  T
   7    -35.5244397 -0.332349E-09  0.242E-04    8.11      86.1  T
     SCC iter.                  ...        0 min,  0.004 sec
     gradient                   ...        0 min,  0.011 sec
 * total energy  :   -35.1795488 Eh     change       -0.5140470E-03 Eh
   gradient norm :     0.0100530 Eh/α   predicted    -0.3768503E-03 ( -26.69%)
   displ. norm   :     0.3062059 α      lambda       -0.6143517E-03
   maximum displ.:     0.1830166 α      in ANC's #3, #6, #9, ...

........................................................................
.............................. CYCLE    6 ..............................
........................................................................

 iter      E             dE          RMSdq      gap      omega  full diag
   1    -35.5249767 -0.355250E+02  0.813E-02    8.12       0.0  T
   2    -35.5249843 -0.764956E-05  0.487E-02    8.12       1.0  T
   3    -35.5249850 -0.670191E-06  0.134E-02    8.12       1.6  T
   4    -35.5249852 -0.219201E-06  0.366E-03    8.12       5.7  T
   5    -35.5249852 -0.145330E-07  0.112E-03    8.12      18.6  T
   6    -35.5249852 -0.446696E-08  0.366E-04    8.12      56.9  T
   7    -35.5249852 -0.121666E-09  0.128E-04    8.12     162.5  T
     SCC iter.                  ...        0 min,  0.004 sec
     gradient                   ...        0 min,  0.002 sec
 * total energy  :   -35.1799983 Eh     change       -0.4494464E-03 Eh
   gradient norm :     0.0103748 Eh/α   predicted    -0.3359836E-03 ( -25.25%)
   displ. norm   :     0.2916547 α      lambda       -0.5182866E-03
   maximum displ.:     0.1486949 α      in ANC's #3, #6, #9, ...

........................................................................
.............................. CYCLE    7 ..............................
........................................................................

 iter      E             dE          RMSdq      gap      omega  full diag
   1    -35.5247746 -0.355248E+02  0.807E-02    8.17       0.0  T
   2    -35.5247793 -0.475795E-05  0.478E-02    8.17       1.0  T
   3    -35.5247798 -0.461166E-06  0.130E-02    8.17       1.6  T
   4    -35.5247801 -0.316621E-06  0.354E-03    8.16       5.9  T
   5    -35.5247801 -0.264797E-07  0.142E-03    8.17      14.6  T
   6    -35.5247801 -0.480566E-08  0.311E-04    8.17      67.0  T
   7    -35.5247801 -0.923279E-10  0.137E-04    8.17     152.2  T
     SCC iter.                  ...        0 min,  0.005 sec
     gradient                   ...        0 min,  0.002 sec
 * total energy  :   -35.1803674 Eh     change       -0.3691110E-03 Eh
   gradient norm :     0.0126552 Eh/α   predicted    -0.2811870E-03 ( -23.82%)
   displ. norm   :     0.2370391 α      lambda       -0.4471697E-03
   maximum displ.:     0.0957821 α      in ANC's #3, #6, #8, ...

........................................................................
.............................. CYCLE    8 ..............................
........................................................................

 iter      E             dE          RMSdq      gap      omega  full diag
   1    -35.5249940 -0.355250E+02  0.666E-02    8.26       0.0  T
   2    -35.5249972 -0.326028E-05  0.386E-02    8.26       1.0  T
   3    -35.5249976 -0.309061E-06  0.110E-02    8.26       1.9  T
   4    -35.5249977 -0.163755E-06  0.331E-03    8.26       6.3  T
   5    -35.5249977 -0.177200E-07  0.111E-03    8.26      18.9  T
   6    -35.5249977 -0.338399E-08  0.269E-04    8.26      77.5  T
   7    -35.5249977 -0.730864E-10  0.120E-04    8.26     174.1  T
     SCC iter.                  ...        0 min,  0.004 sec
     gradient                   ...        0 min,  0.002 sec
 * total energy  :   -35.1806966 Eh     change       -0.3291847E-03 Eh
   gradient norm :     0.0124851 Eh/α   predicted    -0.2361619E-03 ( -28.26%)
   displ. norm   :     0.2378285 α      lambda       -0.4145652E-03
   maximum displ.:     0.0892434 α      in ANC's #6, #8, #3, ...

........................................................................
.............................. CYCLE    9 ..............................
........................................................................

 iter      E             dE          RMSdq      gap      omega  full diag
   1    -35.5253907 -0.355254E+02  0.641E-02    8.33       0.0  T
   2    -35.5253947 -0.392651E-05  0.375E-02    8.33       1.0  T
   3    -35.5253950 -0.369895E-06  0.117E-02    8.33       1.8  T
   4    -35.5253951 -0.868817E-07  0.339E-03    8.33       6.2  T
   5    -35.5253951 -0.485716E-08  0.696E-04    8.33      30.0  T
   6    -35.5253951 -0.255888E-08  0.274E-04    8.33      76.0  T
     SCC iter.                  ...        0 min,  0.004 sec
     gradient                   ...        0 min,  0.002 sec
 * total energy  :   -35.1809914 Eh     change       -0.2947750E-03 Eh
   gradient norm :     0.0098988 Eh/α   predicted    -0.2190071E-03 ( -25.70%)
   displ. norm   :     0.2178629 α      lambda       -0.2765298E-03
   maximum displ.:     0.0931541 α      in ANC's #6, #5, #3, ...

........................................................................
.............................. CYCLE   10 ..............................
........................................................................

 iter      E             dE          RMSdq      gap      omega  full diag
   1    -35.5256259 -0.355256E+02  0.554E-02    8.30       0.0  T
   2    -35.5256295 -0.356798E-05  0.343E-02    8.30       1.0  T
   3    -35.5256298 -0.313746E-06  0.110E-02    8.30       1.9  T
   4    -35.5256299 -0.951282E-07  0.338E-03    8.30       6.2  T
   5    -35.5256299 -0.239118E-08  0.133E-03    8.30      15.7  T
   6    -35.5256299 -0.715966E-08  0.225E-04    8.30      92.9  T
   7    -35.5256299 -0.501501E-10  0.121E-04    8.30     172.3  T
     SCC iter.                  ...        0 min,  0.004 sec
     gradient                   ...        0 min,  0.002 sec
 * total energy  :   -35.1811816 Eh     change       -0.1902398E-03 Eh
   gradient norm :     0.0079130 Eh/α   predicted    -0.1448323E-03 ( -23.87%)
   displ. norm   :     0.1180834 α      lambda       -0.1670556E-03
   maximum displ.:     0.0649055 α      in ANC's #4, #1, #2, ...

........................................................................
.............................. CYCLE   11 ..............................
........................................................................

 iter      E             dE          RMSdq      gap      omega  full diag
   1    -35.5279496 -0.355279E+02  0.377E-02    8.33       0.0  T
   2    -35.5279530 -0.334810E-05  0.253E-02    8.33       1.0  T
   3    -35.5279532 -0.202377E-06  0.987E-03    8.33       2.1  T
   4    -35.5279534 -0.203636E-06  0.296E-03    8.33       7.1  T
   5    -35.5279534 -0.217989E-08  0.150E-03    8.33      13.9  T
   6    -35.5279534 -0.306165E-08  0.188E-04    8.33     111.0  T
   7    -35.5279534 -0.415668E-10  0.111E-04    8.33     187.3  T
     SCC iter.                  ...        0 min,  0.004 sec
     gradient                   ...        0 min,  0.003 sec
 * total energy  :   -35.1812627 Eh     change       -0.8109766E-04 Eh
   gradient norm :     0.0048035 Eh/α   predicted    -0.8470132E-04 (   4.44%)
   displ. norm   :     0.1736053 α      lambda       -0.1176922E-03
   maximum displ.:     0.0901068 α      in ANC's #6, #3, #1, ...

........................................................................
.............................. CYCLE   12 ..............................
........................................................................

 iter      E             dE          RMSdq      gap      omega  full diag
   1    -35.5261507 -0.355262E+02  0.508E-02    8.21       0.0  T
   2    -35.5261521 -0.136181E-05  0.301E-02    8.21       1.0  T
   3    -35.5261524 -0.317505E-06  0.593E-03    8.21       3.5  T
   4    -35.5261524 -0.605721E-07  0.266E-03    8.21       7.8  T
   5    -35.5261524 -0.115356E-07  0.607E-04    8.21      34.4  T
   6    -35.5261524 -0.146714E-08  0.318E-04    8.21      65.7  T
     SCC iter.                  ...        0 min,  0.003 sec
     gradient                   ...        0 min,  0.002 sec
 * total energy  :   -35.1812875 Eh     change       -0.2475559E-04 Eh
   gradient norm :     0.0063919 Eh/α   predicted    -0.6062191E-04 ( 144.88%)
   displ. norm   :     0.0799965 α      lambda       -0.6509350E-04
   maximum displ.:     0.0411648 α      in ANC's #3, #5, #6, ...

........................................................................
.............................. CYCLE   13 ..............................
........................................................................

 iter      E             dE          RMSdq      gap      omega  full diag
   1    -35.5273757 -0.355274E+02  0.235E-02    8.27       0.0  T
   2    -35.5273764 -0.730085E-06  0.144E-02    8.27       1.4  T
   3    -35.5273765 -0.548084E-07  0.506E-03    8.27       4.1  T
   4    -35.5273765 -0.239032E-07  0.123E-03    8.27      16.9  T
   5    -35.5273765 -0.259635E-08  0.563E-04    8.27      37.1  T
   6    -35.5273765 -0.746553E-09  0.121E-04    8.27     171.7  T
     SCC iter.                  ...        0 min,  0.003 sec
     gradient                   ...        0 min,  0.002 sec
 * total energy  :   -35.1813259 Eh     change       -0.3844762E-04 Eh
   gradient norm :     0.0028344 Eh/α   predicted    -0.3276288E-04 ( -14.79%)
   displ. norm   :     0.0322554 α      lambda       -0.1794005E-04
   maximum displ.:     0.0199789 α      in ANC's #5, #1, #8, ...

........................................................................
.............................. CYCLE   14 ..............................
........................................................................

 iter      E             dE          RMSdq      gap      omega  full diag
   1    -35.5275588 -0.355276E+02  0.113E-02    8.28       0.0  T
   2    -35.5275591 -0.259264E-06  0.619E-03    8.28       3.4  T
   3    -35.5275591 -0.161891E-07  0.284E-03    8.28       7.3  T
   4    -35.5275591 -0.398622E-08  0.786E-04    8.28      26.5  T
   5    -35.5275591 -0.155702E-08  0.271E-04    8.28      77.1  T
     SCC iter.                  ...        0 min,  0.003 sec
     gradient                   ...        0 min,  0.002 sec
 * total energy  :   -35.1813393 Eh     change       -0.1339348E-04 Eh
   gradient norm :     0.0017043 Eh/α   predicted    -0.8980262E-05 ( -32.95%)
   displ. norm   :     0.0740563 α      lambda       -0.1549677E-04
   maximum displ.:     0.0431557 α      in ANC's #1, #5, #4, ...

........................................................................
.............................. CYCLE   15 ..............................
........................................................................

 iter      E             dE          RMSdq      gap      omega  full diag
   1    -35.5275289 -0.355275E+02  0.230E-02    8.29       0.0  T
   2    -35.5275296 -0.639846E-06  0.120E-02    8.29       1.7  T
   3    -35.5275296 -0.509657E-07  0.467E-03    8.29       4.5  T
   4    -35.5275296 -0.142693E-07  0.129E-03    8.29      16.2  T
   5    -35.5275296 -0.300081E-08  0.447E-04    8.29      46.6  T
   6    -35.5275296 -0.379316E-09  0.901E-05    8.29     231.5  T
     SCC iter.                  ...        0 min,  0.003 sec
     gradient                   ...        0 min,  0.002 sec
 * total energy  :   -35.1813502 Eh     change       -0.1090449E-04 Eh
   gradient norm :     0.0014081 Eh/α   predicted    -0.7768619E-05 ( -28.76%)
   displ. norm   :     0.0179212 α      lambda       -0.3879413E-05
   maximum displ.:     0.0107979 α      in ANC's #1, #7, #4, ...

........................................................................
.............................. CYCLE   16 ..............................
........................................................................

 iter      E             dE          RMSdq      gap      omega  full diag
   1    -35.5274273 -0.355274E+02  0.595E-03    8.29       0.0  T
   2    -35.5274274 -0.592303E-07  0.388E-03    8.29       5.4  T
   3    -35.5274274 -0.385531E-08  0.144E-03    8.29      14.5  T
   4    -35.5274274 -0.449830E-08  0.484E-04    8.29      43.0  T
   5    -35.5274274 -0.281169E-09  0.142E-04    8.29     146.5  T
     SCC iter.                  ...        0 min,  0.003 sec
     gradient                   ...        0 min,  0.002 sec
 * total energy  :   -35.1813546 Eh     change       -0.4436203E-05 Eh
   gradient norm :     0.0006145 Eh/α   predicted    -0.1942949E-05 ( -56.20%)
   displ. norm   :     0.0360874 α      lambda       -0.4081282E-05
   maximum displ.:     0.0195970 α      in ANC's #1, #7, #2, ...

   *** GEOMETRY OPTIMIZATION CONVERGED AFTER 16 ITERATIONS ***

------------------------------------------------------------------------
 total energy gain   :        -0.0100907 Eh       -6.3320 kcal/mol
 total RMSD          :         0.4786493 a0        0.2533 Å
 total power (kW/mol):        -1.6558206 (step) -199.3792 (real)
------------------------------------------------------------------------

 ANCopt (total)                0 d,  0 h,  0 min,  0.133 sec
 optimizer setup                ...        0 min,  0.000 sec (  0.057%)
 model hessian                  ...        0 min,  0.015 sec ( 11.109%)
 ANC generation                 ...        0 min,  0.000 sec (  0.270%)
 coordinate transformation      ...        0 min,  0.000 sec (  0.087%)
 single point calculation       ...        0 min,  0.114 sec ( 85.964%)
 optimization log               ...        0 min,  0.001 sec (  0.830%)
 hessian update                 ...        0 min,  0.000 sec (  0.293%)
 rational function              ...        0 min,  0.001 sec (  0.951%)

================
 final structure:
================
23
 xtb: 6.7.1 (edcfbbe)
C            1.19816252540887        0.13335158572644       -0.13714902888493
C            0.47587964946751        0.77712689755418        1.02516353695953
C            0.85950039676135        2.23892024380099        1.25434601917285
C            0.42059913572893        3.17943429373293        0.13319395508870
C           -1.09259478418812        3.32529317044023       -0.02457854118949
C           -1.80680182388649        3.81748677635164        1.23074933815235
S            0.26300413301123        0.32241467637434       -1.71699295682619
O            0.55625343877872       -0.91701237519344       -2.43604695366110
O           -1.14608217111478        0.45371682461650       -1.34107357717808
O            0.81177835935434        1.50692807506778       -2.38063901271590
H            1.26786939203684       -0.94436305780667       -0.02417364689597
H            2.18413982922057        0.54961709626123       -0.32042791998070
H           -0.59094827704627        0.70195363514421        0.80874889594661
H            0.67714422443565        0.21979261967266        1.95012744515003
H            0.43366166626471        2.57287072342673        2.20671103924243
H            1.94924351883487        2.30259657163994        1.35241006332578
H            0.86285453479062        4.16627197110158        0.31745754832254
H            0.80132536175746        2.79503772244884       -0.81561584754346
H           -1.27224911226737        4.03769177176436       -0.83382828410615
H           -1.49992825322012        2.36723926485437       -0.34906575622665
H           -1.33756982345114        4.72606002413730        1.61130111541031
H           -2.85012859022892        4.03933094610946        1.01086191524581
H           -1.78438333044858        3.06550054277282        2.01599065319120

 Bond Distances (Angstroems)
 ---------------------------
C1-C2=1.5123         C1-S7=1.8456         C1-H11=1.0859        C1-H12=1.0858        C2-C1=1.5123         C2-C3=1.5286         
C2-H13=1.0912        C2-H14=1.0985        C3-C2=1.5286         C3-C4=1.5278         C3-H15=1.0954        C3-H16=1.0960        
C4-C3=1.5278         C4-C5=1.5284         C4-H17=1.0970        C4-H18=1.0922        C5-C4=1.5284         C5-C6=1.5258         
C5-H19=1.0930        C5-H20=1.0904        C6-C5=1.5258         C6-H21=1.0911        C6-H22=1.0891        C6-H23=1.0875        
S7-C1=1.8456         S7-O8=1.4626         S7-O9=1.4643         S7-O10=1.4645        O8-S7=1.4626         O9-S7=1.4643         
O10-S7=1.4645        H11-C1=1.0859        H12-C1=1.0858        H13-C2=1.0912        H14-C2=1.0985        H15-C3=1.0954        
H16-C3=1.0960        H17-C4=1.0970        H18-C4=1.0922        H19-C5=1.0930        H20-C5=1.0904        H21-C6=1.0911        
H22-C6=1.0891        H23-C6=1.0875        
 C  H  Rav=1.0918 sigma=0.0040  Rmin=1.0858  Rmax=1.0985    13
 C  C  Rav=1.5246 sigma=0.0062  Rmin=1.5123  Rmax=1.5286     5
 S  C  Rav=1.8456 sigma=0.0000  Rmin=1.8456  Rmax=1.8456     1
 S  O  Rav=1.4638 sigma=0.0008  Rmin=1.4626  Rmax=1.4645     3

 selected bond angles (degree)
 --------------------
S7-C1-C2=111.86                H11-C1-C2=111.91               H11-C1-S7=102.90               H12-C1-C2=113.59               
H12-C1-S7=106.04               H12-C1-H11=109.86              C3-C2-C1=113.73                H13-C2-C1=106.57               
H13-C2-C3=109.94               H14-C2-C1=110.10               H14-C2-C3=108.24               H14-C2-H13=108.13              
C4-C3-C2=113.99                H15-C3-C2=108.93               H15-C3-C4=109.80               H16-C3-C2=108.57               
H16-C3-C4=108.39               H16-C3-H15=106.92              C5-C4-C3=114.77                H17-C4-C3=108.34               
H17-C4-C5=109.31               H18-C4-C3=108.70               H18-C4-C5=106.80               H18-C4-H17=108.78              
C6-C5-C4=114.16                H19-C5-C4=107.54               H19-C5-C6=108.78               H20-C5-C4=108.46               
H20-C5-C6=110.69               H20-C5-H19=106.91              H21-C6-C5=110.75               H22-C6-C5=110.37               
H22-C6-H21=108.23              H23-C6-C5=111.18               H23-C6-H21=108.37              H23-C6-H22=107.84              
O8-S7-C1=103.44                O9-S7-C1=106.08                O9-S7-O8=113.27                O10-S7-C1=106.31               
O10-S7-O8=112.80               O10-S7-O9=113.85               

 selected dihedral angles (degree)
 ---------------------------------
C3-C2-C1-S7=269.48            C3-C2-C1-H11=154.61           C3-C2-C1-H12= 29.49           H13-C2-C1-S7= 30.78           
H13-C2-C1-H11=275.90          H13-C2-C1-H12=150.78          H14-C2-C1-S7=147.82           H14-C2-C1-H11= 32.94          
H14-C2-C1-H12=267.82          C4-C3-C2-C1= 66.88            C4-C3-C2-H13=307.48           C4-C3-C2-H14=189.58           
H15-C3-C2-C1=189.87           H15-C3-C2-H13= 70.47          H15-C3-C2-H14=312.56          H16-C3-C2-C1=305.96           
H16-C3-C2-H13=186.56          H16-C3-C2-H14= 68.65          C5-C4-C3-C2= 65.58            C5-C4-C3-H15=303.06           
C5-C4-C3-H16=186.60           H17-C4-C3-C2=188.03           H17-C4-C3-H15= 65.52          H17-C4-C3-H16=309.05          
H18-C4-C3-C2=306.09           H18-C4-C3-H15=183.57          H18-C4-C3-H16= 67.11          C6-C5-C4-C3= 57.75            
C6-C5-C4-H17=295.82           C6-C5-C4-H18=178.29           H19-C5-C4-C3=178.53           H19-C5-C4-H17= 56.60          
H19-C5-C4-H18=299.08          H20-C5-C4-C3=293.82           H20-C5-C4-H17=171.89          H20-C5-C4-H18= 54.37          
H21-C6-C5-C4= 51.83           H21-C6-C5-H19=291.74          H21-C6-C5-H20=174.55          H22-C6-C5-C4=171.66           
H22-C6-C5-H19= 51.56          H22-C6-C5-H20=294.37          H23-C6-C5-C4=291.29           H23-C6-C5-H19=171.19          
H23-C6-C5-H20= 54.00          O8-S7-C1-C2=214.06            O8-S7-C1-H11=334.35           O8-S7-C1-H12= 89.73           
O9-S7-C1-C2=333.52            O9-S7-C1-H11= 93.81           O9-S7-C1-H12=209.18           O10-S7-C1-C2= 95.05           
O10-S7-C1-H11=215.34          O10-S7-C1-H12=330.71          
           -------------------------------------------------
          |                Final Singlepoint                |
           -------------------------------------------------

          ...................................................
          :                      SETUP                      :
          :.................................................:
          :  # basis functions                  59          :
          :  # atomic orbitals                  58          :
          :  # shells                           34          :
          :  # electrons                        62          :
          :  max. iterations                   250          :
          :  Hamiltonian                  GFN2-xTB          :
          :  restarted?                      false          :
          :  GBSA solvation                  false          :
          :  PC potential                    false          :
          :  electronic temp.          300.0000000     K    :
          :  accuracy                    1.0000000          :
          :  -> integral cutoff          0.2500000E+02      :
          :  -> integral neglect         0.1000000E-07      :
          :  -> SCF convergence          0.1000000E-05 Eh   :
          :  -> wf. convergence          0.1000000E-03 e    :
          :  Broyden damping             0.4000000          :
          :  net charge                         -1          :
          :  unpaired electrons                  0          :
          ...................................................

 iter      E             dE          RMSdq      gap      omega  full diag
   1    -35.5274274 -0.355274E+02  0.338E-05    8.29       0.0  T
   2    -35.5274274 -0.127898E-11  0.198E-05    8.29    1055.1  T
   3    -35.5274274 -0.234479E-12  0.708E-06    8.29    2945.1  T

   *** convergence criteria satisfied after 3 iterations ***

         #    Occupation            Energy/Eh            Energy/eV
      -------------------------------------------------------------
         1        2.0000           -0.5604191             -15.2498
       ...           ...                  ...                  ...
        25        2.0000           -0.2884489              -7.8491
        26        2.0000           -0.2509149              -6.8277
        27        2.0000           -0.2498677              -6.7992
        28        2.0000           -0.2326474              -6.3307
        29        2.0000           -0.2291481              -6.2354
        30        2.0000           -0.2187107              -5.9514
        31        2.0000           -0.2176982              -5.9239 (HOMO)
        32                          0.0869614               2.3663 (LUMO)
        33                          0.1459800               3.9723
        34                          0.1676311               4.5615
        35                          0.1807666               4.9189
        36                          0.2170557               5.9064
       ...                                ...                  ...
        58                          1.3463382              36.6357
      -------------------------------------------------------------
                  HL-Gap            0.3046596 Eh            8.2902 eV
             Fermi-level           -0.0653684 Eh           -1.7788 eV

 SCC (total)                   0 d,  0 h,  0 min,  0.005 sec
 SCC setup                      ...        0 min,  0.000 sec (  1.186%)
 Dispersion                     ...        0 min,  0.000 sec (  1.664%)
 classical contributions        ...        0 min,  0.000 sec (  0.303%)
 integral evaluation            ...        0 min,  0.001 sec ( 15.268%)
 iterations                     ...        0 min,  0.002 sec ( 37.928%)
 molecular gradient             ...        0 min,  0.002 sec ( 41.894%)
 printout                       ...        0 min,  0.000 sec (  1.454%)

         :::::::::::::::::::::::::::::::::::::::::::::::::::::
         ::                     SUMMARY                     ::
         :::::::::::::::::::::::::::::::::::::::::::::::::::::
         :: total energy             -35.181354640033 Eh    ::
         :: gradient norm              0.000614708626 Eh/a0 ::
         :: HOMO-LUMO gap              8.290210184150 eV    ::
         ::.................................................::
         :: SCC energy               -35.527288667869 Eh    ::
         :: -> isotropic ES            0.212330931876 Eh    ::
         :: -> anisotropic ES         -0.011021008632 Eh    ::
         :: -> anisotropic XC          0.004763322219 Eh    ::
         :: -> dispersion             -0.021373759962 Eh    ::
         :: repulsion energy           0.345934027835 Eh    ::
         :: add. restraining           0.000000000000 Eh    ::
         :: total charge              -1.000000000000 e     ::
         :::::::::::::::::::::::::::::::::::::::::::::::::::::

           -------------------------------------------------
          |                Property Printout                |
           -------------------------------------------------

    * Orbital Energies and Occupations

         #    Occupation            Energy/Eh            Energy/eV
      -------------------------------------------------------------
         1        2.0000           -0.5604191             -15.2498
       ...           ...                  ...                  ...
        19        2.0000           -0.3258658              -8.8673
        20        2.0000           -0.3196621              -8.6984
        21        2.0000           -0.3094206              -8.4198
        22        2.0000           -0.3054021              -8.3104
        23        2.0000           -0.2959992              -8.0545
        24        2.0000           -0.2908397              -7.9142
        25        2.0000           -0.2884489              -7.8491
        26        2.0000           -0.2509149              -6.8277
        27        2.0000           -0.2498677              -6.7992
        28        2.0000           -0.2326474              -6.3307
        29        2.0000           -0.2291481              -6.2354
        30        2.0000           -0.2187107              -5.9514
        31        2.0000           -0.2176982              -5.9239 (HOMO)
        32                          0.0869614               2.3663 (LUMO)
        33                          0.1459800               3.9723
        34                          0.1676311               4.5615
        35                          0.1807666               4.9189
        36                          0.2170557               5.9064
        37                          0.2222552               6.0479
        38                          0.2359521               6.4206
        39                          0.2395284               6.5179
        40                          0.2615394               7.1168
        41                          0.2663279               7.2472
        42                          0.2861191               7.7857
       ...                                ...                  ...
        58                          1.3463382              36.6357
      -------------------------------------------------------------
                  HL-Gap            0.3046596 Eh            8.2902 eV
             Fermi-level           -0.0653684 Eh           -1.7788 eV

     #   Z          covCN         q      C6AA      α(0)
     1   6 C        3.794    -0.143    23.265     6.869
     2   6 C        3.827    -0.058    21.590     6.612
     3   6 C        3.800    -0.048    21.443     6.593
     4   6 C        3.800    -0.070    21.846     6.655
     5   6 C        3.800    -0.062    21.690     6.631
     6   6 C        3.750    -0.092    22.318     6.737
     7  16 S        3.572     1.125   103.132    17.092
     8   8 O        0.860    -0.673    27.973     7.091
     9   8 O        0.860    -0.672    27.949     7.088
    10   8 O        0.860    -0.673    27.968     7.091
    11   1 H        0.925     0.027     2.624     2.533
    12   1 H        0.925     0.027     2.623     2.533
    13   1 H        0.924     0.060     2.196     2.317
    14   1 H        0.923     0.004     2.984     2.701
    15   1 H        0.924     0.012     2.859     2.644
    16   1 H        0.924     0.011     2.882     2.655
    17   1 H        0.924     0.002     3.024     2.719
    18   1 H        0.924     0.078     2.000     2.211
    19   1 H        0.924     0.019     2.749     2.593
    20   1 H        0.924     0.073     2.058     2.243
    21   1 H        0.924     0.013     2.835     2.633
    22   1 H        0.925     0.015     2.816     2.624
    23   1 H        0.925     0.024     2.678     2.559

 Mol. C6AA /au·bohr⁶  :       5623.083654
 Mol. C8AA /au·bohr⁸  :     133739.785197
 Mol. α(0) /au        :        111.425459


Wiberg/Mayer (AO) data.
largest (>0.10) Wiberg bond orders for each atom

 ---------------------------------------------------------------------------
     #   Z sym  total        # sym  WBO       # sym  WBO       # sym  WBO
 ---------------------------------------------------------------------------
     1   6 C    3.986 --     2 C    1.022    11 H    0.983    12 H    0.980
                             7 S    0.728
     2   6 C    3.995 --     1 C    1.022     3 C    1.008    14 H    0.976
                            13 H    0.963
     3   6 C    3.999 --     4 C    1.008     2 C    1.008    16 H    0.978
                            15 H    0.976
     4   6 C    3.991 --     5 C    1.008     3 C    1.008    17 H    0.978
                            18 H    0.954
     5   6 C    3.991 --     6 C    1.017     4 C    1.008    19 H    0.978
                            20 H    0.962
     6   6 C    3.999 --     5 C    1.017    22 H    0.989    21 H    0.988
                            23 H    0.987
     7  16 S    5.135 --     8 O    1.478     9 O    1.457    10 O    1.453
                             1 C    0.728
     8   8 O    1.781 --     7 S    1.478    10 O    0.104     9 O    0.103
     9   8 O    1.789 --     7 S    1.457    10 O    0.105     8 O    0.103
    10   8 O    1.788 --     7 S    1.453     9 O    0.105     8 O    0.104
    11   1 H    0.999 --     1 C    0.983
    12   1 H    0.999 --     1 C    0.980
    13   1 H    0.996 --     2 C    0.963
    14   1 H    1.000 --     2 C    0.976
    15   1 H    1.000 --     3 C    0.976
    16   1 H    1.000 --     3 C    0.978
    17   1 H    1.000 --     4 C    0.978
    18   1 H    0.994 --     4 C    0.954
    19   1 H    1.000 --     5 C    0.978
    20   1 H    0.995 --     5 C    0.962
    21   1 H    1.000 --     6 C    0.988
    22   1 H    1.000 --     6 C    0.989
    23   1 H    0.999 --     6 C    0.987
 ---------------------------------------------------------------------------

Topologies differ in total number of bonds
Writing topology from bond orders to xtbtopo.mol

molecular dipole:
                 x           y           z       tot (Debye)
 q only:        0.049      -1.008       3.885
   full:        0.185      -1.033       4.112      10.787
molecular quadrupole (traceless):
                xx          xy          yy          xz          yz          zz
 q only:       10.074       0.388       2.486       3.534       1.081     -12.560
  q+dip:       10.968       0.711       2.713       4.190       1.163     -13.681
   full:       10.818       0.449       2.529       4.256       1.221     -13.347

           -------------------------------------------------
          |                Geometry Summary                 |
           -------------------------------------------------

      molecular mass/u    :      165.2306473
   center of mass at/Å    :        0.0694399       1.3295490      -0.6218944
  moments of inertia/u·Å² :        0.2495597E+03   0.6778091E+03   0.7505906E+03
rotational constants/cm⁻¹ :        0.6754949E-01   0.2487077E-01   0.2245916E-01

 * 22 selected distances

     #   Z          #   Z                                           value/Å
     1   6 C        2   6 C                                       1.5123195
     2   6 C        3   6 C                                       1.5285711
     3   6 C        4   6 C                                       1.5278034
     4   6 C        5   6 C                                       1.5283727
     5   6 C        6   6 C                                       1.5258423
     1   6 C        7  16 S                                       1.8455822 (max)
     7  16 S        8   8 O                                       1.4626051
     7  16 S        9   8 O                                       1.4642678
     7  16 S       10   8 O                                       1.4644629
     1   6 C       11   1 H                                       1.0858598
     1   6 C       12   1 H                                       1.0858267 (min)
     2   6 C       13   1 H                                       1.0911500
     2   6 C       14   1 H                                       1.0984932
     3   6 C       15   1 H                                       1.0953816
     3   6 C       16   1 H                                       1.0959980
     4   6 C       17   1 H                                       1.0969921
     4   6 C       18   1 H                                       1.0922241
     5   6 C       19   1 H                                       1.0930109
     5   6 C       20   1 H                                       1.0904495
     6   6 C       21   1 H                                       1.0911021
     6   6 C       22   1 H                                       1.0890805
     6   6 C       23   1 H                                       1.0874696

 * 4 distinct bonds (by element types)

   Z      Z             #   av. dist./Å        max./Å        min./Å
   1 H    6 C          13     1.0917722     1.0984932     1.0858267
   6 C    6 C           5     1.5245818     1.5285711     1.5123195
   6 C   16 S           1     1.8455822     1.8455822     1.8455822
   8 O   16 S           3     1.4637786     1.4644629     1.4626051


optimized geometry written to: xtbopt.xyz


           -------------------------------------------------
          | TOTAL ENERGY              -35.181354640033 Eh   |
          | GRADIENT NORM               0.000614708626 Eh/α |
          | HOMO-LUMO GAP               8.290210184150 eV   |
           -------------------------------------------------

------------------------------------------------------------------------
 * finished run on 2024/12/20 at 01:52:49.311     
------------------------------------------------------------------------
 total:
 * wall-time:     0 d,  0 h,  0 min,  0.166 sec
 *  cpu-time:     0 d,  0 h,  0 min,  1.300 sec
 * ratio c/w:     7.815 speedup
 SCF:
 * wall-time:     0 d,  0 h,  0 min,  0.012 sec
 *  cpu-time:     0 d,  0 h,  0 min,  0.098 sec
 * ratio c/w:     7.910 speedup
 ANC optimizer:
 * wall-time:     0 d,  0 h,  0 min,  0.138 sec
 *  cpu-time:     0 d,  0 h,  0 min,  1.089 sec
 * ratio c/w:     7.874 speedup

