      -----------------------------------------------------------      
     |                   =====================                   |     
     |                           x T B                           |     
     |                   =====================                   |     
     |                         S. Grimme                         |     
     |          Mulliken Center for Theoretical Chemistry        |     
     |                    University of Bonn                     |     
      -----------------------------------------------------------      

   * xtb version 6.7.1 (edcfbbe) compiled by 'conda@3ef47c1a292c' on 2024-11-25

   xtb is free software: you can redistribute it and/or modify it under
   the terms of the GNU Lesser General Public License as published by
   the Free Software Foundation, either version 3 of the License, or
   (at your option) any later version.
   
   xtb is distributed in the hope that it will be useful,
   but WITHOUT ANY WARRANTY; without even the implied warranty of
   MERCHANTABILITY or FITNESS FOR A PARTICULAR PURPOSE.  See the
   GNU Lesser General Public License for more details.
   
   Cite this work as:
   * C. Bannwarth, E. Caldeweyher, S. Ehlert, A. Hansen, P. Pracht,
     J. Seibert, S. Spicher, S. Grimme, WIREs Comput. Mol. Sci., 2020, 11,
     e01493. DOI: 10.1002/wcms.1493
   
   for GFN2-xTB:
   * C. Bannwarth, S. Ehlert and S. Grimme., J. Chem. Theory Comput., 2019,
     15, 1652-1671. DOI: 10.1021/acs.jctc.8b01176
   for GFN1-xTB:
   * S. Grimme, C. Bannwarth, P. Shushkov, J. Chem. Theory Comput., 2017,
     13, 1989-2009. DOI: 10.1021/acs.jctc.7b00118
   for GFN0-xTB:
   * P. Pracht, E. Caldeweyher, S. Ehlert, S. Grimme, ChemRxiv, 2019, preprint.
     DOI: 10.26434/chemrxiv.8326202.v1
   for GFN-FF:
   * S. Spicher and S. Grimme, Angew. Chem. Int. Ed., 2020, 59, 15665-15673.
     DOI: 10.1002/anie.202004239
   
   for ALPB and GBSA implicit solvation:
   * S. Ehlert, M. Stahn, S. Spicher, S. Grimme, J. Chem. Theory Comput.,
     2021, 17, 4250-4261. DOI: 10.1021/acs.jctc.1c00471
   
   for ddCOSMO and CPCM-X implicit solvation:
   * M. Stahn, S. Ehlert, S. Grimme, J. Phys. Chem. A,
     2023, XX, XXXX-XXXX. DOI: 10.1021/acs.jpca.3c04382
   
   for DFT-D4:
   * E. Caldeweyher, C. Bannwarth and S. Grimme, J. Chem. Phys., 2017,
     147, 034112. DOI: 10.1063/1.4993215
   * E. Caldeweyher, S. Ehlert, A. Hansen, H. Neugebauer, S. Spicher,
     C. Bannwarth and S. Grimme, J. Chem. Phys., 2019, 150, 154122.
     DOI: 10.1063/1.5090222
   * E. Caldeweyher, J.-M. Mewes, S. Ehlert and S. Grimme, Phys. Chem. Chem. Phys.
     2020, 22, 8499-8512. DOI: 10.1039/D0CP00502A
   
   for sTDA-xTB:
   * S. Grimme and C. Bannwarth, J. Chem. Phys., 2016, 145, 054103.
     DOI: 10.1063/1.4959605
   
   in the mass-spec context:
   * V. Asgeirsson, C. Bauer and S. Grimme, Chem. Sci., 2017, 8, 4879.
     DOI: 10.1039/c7sc00601b
   * J. Koopman and S. Grimme, ACS Omega 2019, 4, 12, 15120-15133.
     DOI: 10.1021/acsomega.9b02011
   
   for metadynamics refer to:
   * S. Grimme, J. Chem. Theory Comput., 2019, 155, 2847-2862
     DOI: 10.1021/acs.jctc.9b00143
   
   for SPH calculations refer to:
   * S. Spicher and S. Grimme, J. Chem. Theory Comput., 2021, 17, 1701-1714
     DOI: 10.1021/acs.jctc.0c01306
   
   for ONIOM refer to:
   * C. Plett, A. Katbashev, S. Ehlert, S. Grimme, M. Bursch,
     Phys. Chem. Chem. Phys., 2023, 25, 17860-17868. DOI: 10.1039/D3CP02178E
   
   for DIPRO refer to:
   * J. Kohn, N. Gildemeister, S. Grimme, D. Fazzi, A. Hansen,
     J. Chem. Phys., 2023, just accepted.
   
   for PTB refer to:
   * S. Grimme, M. Mueller, A. Hansen, J. Chem. Phys., 2023, 158, 124111.
     DOI: 10.1063/5.0137838
   
   with help from (in alphabetical order)
   P. Atkinson, C. Bannwarth, F. Bohle, G. Brandenburg, E. Caldeweyher
   M. Checinski, S. Dohm, S. Ehlert, S. Ehrlich, I. Gerasimov, C. Hölzer
   A. Katbashev, J. Kohn, J. Koopman, C. Lavigne, S. Lehtola, F. März, M. Müller,
   F. Musil, H. Neugebauer, J. Pisarek, C. Plett, P. Pracht, F. Pultar,
   J. Seibert, P. Shushkov, S. Spicher, M. Stahn, M. Steiner, T. Strunk,
   J. Stückrath, T. Rose, and J. Unsleber
   
 * started run on 2024/12/20 at 01:52:49.368     
   ID    Z sym.   atoms
    1    9 F      1, 3, 4, 12-14
    2    6 C      2, 5, 11
    3    8 O      6, 9, 10
    4    7 N      7
    5   16 S      8

           -------------------------------------------------
          |                Calculation Setup                |
           -------------------------------------------------

          program call               : xtb A054.xyz --opt --namespace A054 --charge -1
          calculation namespace      : A054
          coordinate file            : A054.xyz
          omp threads                :                     8


           -------------------------------------------------
          |                 G F N 2 - x T B                 |
           -------------------------------------------------

        Reference                      10.1021/acs.jctc.8b01176
      * Hamiltonian:
        H0-scaling (s, p, d)           1.850000    2.230000    2.230000
        zeta-weighting                 0.500000
      * Dispersion:
        s8                             2.700000
        a1                             0.520000
        a2                             5.000000
        s9                             5.000000
      * Repulsion:
        kExp                           1.500000    1.000000
        rExp                           1.000000
      * Coulomb:
        alpha                          2.000000
        third order                    shell-resolved
        anisotropic                    true
        a3                             3.000000
        a5                             4.000000
        cn-shift                       1.200000
        cn-exp                         4.000000
        max-rad                        5.000000


          ...................................................
          :                      SETUP                      :
          :.................................................:
          :  # basis functions                  62          :
          :  # atomic orbitals                  61          :
          :  # shells                           29          :
          :  # electrons                        84          :
          :  max. iterations                   250          :
          :  Hamiltonian                  GFN2-xTB          :
          :  restarted?                      false          :
          :  GBSA solvation                  false          :
          :  PC potential                    false          :
          :  electronic temp.          300.0000000     K    :
          :  accuracy                    1.0000000          :
          :  -> integral cutoff          0.2500000E+02      :
          :  -> integral neglect         0.1000000E-07      :
          :  -> SCF convergence          0.1000000E-05 Eh   :
          :  -> wf. convergence          0.1000000E-03 e    :
          :  Broyden damping             0.4000000          :
          :  net charge                         -1          :
          :  unpaired electrons                  0          :
          ...................................................

 iter      E             dE          RMSdq      gap      omega  full diag
   1    -53.4781770 -0.534782E+02  0.720E+00    4.30       0.0  T
   2    -53.6146721 -0.136495E+00  0.486E+00    4.39       1.0  T
   3    -53.6307185 -0.160463E-01  0.232E+00    4.43       1.0  T
   4    -53.6370935 -0.637503E-02  0.585E-01    4.40       1.0  T
   5    -53.6373396 -0.246092E-03  0.317E-01    4.40       1.0  T
   6    -53.6375863 -0.246758E-03  0.121E-01    4.40       1.0  T
   7    -53.6376120 -0.256891E-04  0.623E-02    4.41       1.0  T
   8    -53.6376216 -0.955859E-05  0.243E-02    4.40       1.1  T
   9    -53.6376233 -0.174447E-05  0.614E-03    4.40       4.4  T
  10    -53.6376234 -0.684248E-07  0.173E-03    4.40      15.5  T
  11    -53.6376234 -0.106595E-08  0.883E-04    4.41      30.3  T
  12    -53.6376234 -0.618853E-08  0.260E-04    4.40     102.8  T

   *** convergence criteria satisfied after 12 iterations ***

         #    Occupation            Energy/Eh            Energy/eV
      -------------------------------------------------------------
         1        2.0000           -0.7808686             -21.2485
       ...           ...                  ...                  ...
        36        2.0000           -0.3597459              -9.7892
        37        2.0000           -0.3427198              -9.3259
        38        2.0000           -0.3310076              -9.0072
        39        2.0000           -0.3247982              -8.8382
        40        2.0000           -0.3032893              -8.2529
        41        2.0000           -0.2991888              -8.1413
        42        2.0000           -0.2931294              -7.9765 (HOMO)
        43                         -0.1312527              -3.5716 (LUMO)
        44                         -0.0341708              -0.9298
        45                         -0.0056182              -0.1529
        46                          0.0195774               0.5327
        47                          0.0380464               1.0353
       ...                                ...                  ...
        61                          1.2260259              33.3619
      -------------------------------------------------------------
                  HL-Gap            0.1618767 Eh            4.4049 eV
             Fermi-level           -0.2121911 Eh           -5.7740 eV

 SCC (total)                   0 d,  0 h,  0 min,  0.017 sec
 SCC setup                      ...        0 min,  0.000 sec (  2.843%)
 Dispersion                     ...        0 min,  0.000 sec (  1.167%)
 classical contributions        ...        0 min,  0.000 sec (  0.323%)
 integral evaluation            ...        0 min,  0.004 sec ( 23.996%)
 iterations                     ...        0 min,  0.010 sec ( 59.603%)
 molecular gradient             ...        0 min,  0.002 sec ( 11.530%)
 printout                       ...        0 min,  0.000 sec (  0.441%)

         :::::::::::::::::::::::::::::::::::::::::::::::::::::
         ::                     SUMMARY                     ::
         :::::::::::::::::::::::::::::::::::::::::::::::::::::
         :: total energy             -53.459617431201 Eh    ::
         :: gradient norm              0.111595024881 Eh/a0 ::
         :: HOMO-LUMO gap              4.404889930503 eV    ::
         ::.................................................::
         :: SCC energy               -53.637585478146 Eh    ::
         :: -> isotropic ES            0.239909812847 Eh    ::
         :: -> anisotropic ES         -0.014080556440 Eh    ::
         :: -> anisotropic XC         -0.035553682288 Eh    ::
         :: -> dispersion             -0.014578403101 Eh    ::
         :: repulsion energy           0.177968046944 Eh    ::
         :: add. restraining           0.000000000000 Eh    ::
         :: total charge              -1.000000000000 e     ::
         :::::::::::::::::::::::::::::::::::::::::::::::::::::

      ----------------------------------------------------------- 
     |                   =====================                   |
     |                        A N C O P T                        |
     |                   =====================                   |
     |               Approximate Normal Coordinate               |
     |                Rational Function Optimizer                |
      ----------------------------------------------------------- 
      ----------------------------------------------------------- 
     |                   =====================                   |
     |                        A N C O P T                        |
     |                   =====================                   |
     |               Approximate Normal Coordinate               |
     |                Rational Function Optimizer                |
      ----------------------------------------------------------- 

          ...................................................
          :                      SETUP                      :
          :.................................................:
          :   optimization level            normal          :
          :   max. optcycles                   200          :
          :   ANC micro-cycles                  20          :
          :   degrees of freedom                36          :
          :.................................................:
          :   RF solver                   davidson          :
          :   write xtbopt.log                true          :
          :   linear?                        false          :
          :   energy convergence         0.5000000E-05 Eh   :
          :   grad. convergence          0.1000000E-02 Eh/α :
          :   maxmium RF displ.          1.0000000          :
          :   Hlow (freq-cutoff)         0.1000000E-01      :
          :   Hmax (freq-cutoff)         5.0000000          :
          :   S6 in model hess.         20.0000000          :
          ...................................................

generating ANC from exact Hessian ...
Using Lindh-Hessian (1995)
 Shifting diagonal of input Hessian by    6.3946437500525220E-003
 Lowest  eigenvalues of input Hessian
    0.000000    0.000000    0.000000    0.000000    0.000000    0.000000
    0.010000    0.012354    0.012580    0.026118    0.037227    0.043657
    0.048283    0.057775    0.069401    0.082346    0.088364    0.105367
 Highest eigenvalues
    1.586132    1.605795    1.734678    2.303687    2.880650    3.226190


........................................................................
.............................. CYCLE    1 ..............................
........................................................................

 iter      E             dE          RMSdq      gap      omega  full diag
   1    -53.6376234 -0.536376E+02  0.130E-04    4.40       0.0  T
   2    -53.6376234 -0.121084E-09  0.671E-05    4.40     398.2  T
   3    -53.6376234 -0.328910E-10  0.232E-05    4.40    1151.5  T
     SCC iter.                  ...        0 min,  0.003 sec
     gradient                   ...        0 min,  0.003 sec
 * total energy  :   -53.4596174 Eh     change       -0.2213838E-09 Eh
   gradient norm :     0.1115972 Eh/α   predicted     0.0000000E+00 (-100.00%)
   displ. norm   :     0.1229588 α      lambda       -0.8106796E-02
   maximum displ.:     0.0610444 α      in ANC's #3, #9, #28, ...

........................................................................
.............................. CYCLE    2 ..............................
........................................................................

 iter      E             dE          RMSdq      gap      omega  full diag
   1    -53.6593113 -0.536593E+02  0.227E-01    4.62       0.0  T
   2    -53.6593541 -0.427744E-04  0.136E-01    4.59       1.0  T
   3    -53.6593508  0.322233E-05  0.579E-02    4.61       1.0  T
   4    -53.6593622 -0.113171E-04  0.989E-03    4.60       2.7  T
   5    -53.6593624 -0.222459E-06  0.465E-03    4.60       5.7  T
   6    -53.6593624 -0.214781E-07  0.202E-03    4.60      13.2  T
   7    -53.6593624 -0.840635E-08  0.681E-04    4.60      39.2  T
   8    -53.6593624 -0.799091E-09  0.379E-04    4.60      70.5  T
     SCC iter.                  ...        0 min,  0.006 sec
     gradient                   ...        0 min,  0.003 sec
 * total energy  :   -53.4655862 Eh     change       -0.5968816E-02 Eh
   gradient norm :     0.0604567 Eh/α   predicted    -0.4114683E-02 ( -31.06%)
   displ. norm   :     0.1197063 α      lambda       -0.4047599E-02
   maximum displ.:     0.0713403 α      in ANC's #3, #28, #9, ...

........................................................................
.............................. CYCLE    3 ..............................
........................................................................

 iter      E             dE          RMSdq      gap      omega  full diag
   1    -53.6746308 -0.536746E+02  0.234E-01    4.72       0.0  T
   2    -53.6746731 -0.423469E-04  0.145E-01    4.71       1.0  T
   3    -53.6746750 -0.182196E-05  0.439E-02    4.71       1.0  T
   4    -53.6746756 -0.615723E-06  0.122E-02    4.71       2.2  T
   5    -53.6746761 -0.549572E-06  0.557E-03    4.71       4.8  T
   6    -53.6746762 -0.336303E-07  0.106E-03    4.71      25.1  T
   7    -53.6746762 -0.224105E-08  0.643E-04    4.71      41.6  T
   8    -53.6746762 -0.762228E-09  0.240E-04    4.71     111.4  T
     SCC iter.                  ...        0 min,  0.005 sec
     gradient                   ...        0 min,  0.003 sec
 * total energy  :   -53.4677126 Eh     change       -0.2126399E-02 Eh
   gradient norm :     0.0150090 Eh/α   predicted    -0.2052800E-02 (  -3.46%)
   displ. norm   :     0.0827040 α      lambda       -0.3353156E-03
   maximum displ.:     0.0482088 α      in ANC's #2, #3, #4, ...

........................................................................
.............................. CYCLE    4 ..............................
........................................................................

 iter      E             dE          RMSdq      gap      omega  full diag
   1    -53.6742628 -0.536743E+02  0.585E-02    4.71       0.0  T
   2    -53.6742717 -0.888266E-05  0.408E-02    4.71       1.0  T
   3    -53.6742725 -0.872185E-06  0.214E-02    4.71       1.2  T
   4    -53.6742727 -0.168006E-06  0.593E-03    4.71       4.5  T
   5    -53.6742727 -0.468280E-07  0.210E-03    4.71      12.7  T
   6    -53.6742727 -0.390686E-08  0.737E-04    4.71      36.3  T
   7    -53.6742727 -0.152971E-08  0.248E-04    4.71     107.6  T
     SCC iter.                  ...        0 min,  0.005 sec
     gradient                   ...        0 min,  0.002 sec
 * total energy  :   -53.4678428 Eh     change       -0.1301619E-03 Eh
   gradient norm :     0.0080212 Eh/α   predicted    -0.1688038E-03 (  29.69%)
   displ. norm   :     0.0447063 α      lambda       -0.1108378E-03
   maximum displ.:     0.0358839 α      in ANC's #3, #7, #2, ...

........................................................................
.............................. CYCLE    5 ..............................
........................................................................

 iter      E             dE          RMSdq      gap      omega  full diag
   1    -53.6728397 -0.536728E+02  0.400E-02    4.71       0.0  T
   2    -53.6728440 -0.430429E-05  0.258E-02    4.71       1.0  T
   3    -53.6728445 -0.468849E-06  0.130E-02    4.71       2.1  T
   4    -53.6728445 -0.558568E-07  0.419E-03    4.71       6.4  T
   5    -53.6728446 -0.138427E-07  0.121E-03    4.71      22.1  T
   6    -53.6728446 -0.122741E-08  0.341E-04    4.71      78.5  T
   7    -53.6728446 -0.317392E-09  0.148E-04    4.71     180.5  T
     SCC iter.                  ...        0 min,  0.004 sec
     gradient                   ...        0 min,  0.002 sec
 * total energy  :   -53.4679175 Eh     change       -0.7465994E-04 Eh
   gradient norm :     0.0038850 Eh/α   predicted    -0.5552963E-04 ( -25.62%)
   displ. norm   :     0.0396309 α      lambda       -0.4195786E-04
   maximum displ.:     0.0341809 α      in ANC's #3, #7, #5, ...

........................................................................
.............................. CYCLE    6 ..............................
........................................................................

 iter      E             dE          RMSdq      gap      omega  full diag
   1    -53.6724489 -0.536724E+02  0.325E-02    4.72       0.0  T
   2    -53.6724503 -0.139419E-05  0.178E-02    4.71       1.5  T
   3    -53.6724504 -0.131280E-06  0.741E-03    4.72       3.6  T
   4    -53.6724505 -0.722664E-07  0.316E-03    4.72       8.5  T
   5    -53.6724505 -0.888695E-08  0.769E-04    4.72      34.8  T
   6    -53.6724505 -0.157659E-08  0.241E-04    4.72     110.7  T
     SCC iter.                  ...        0 min,  0.004 sec
     gradient                   ...        0 min,  0.002 sec
 * total energy  :   -53.4679452 Eh     change       -0.2770652E-04 Eh
   gradient norm :     0.0022520 Eh/α   predicted    -0.2101301E-04 ( -24.16%)
   displ. norm   :     0.0320687 α      lambda       -0.1859653E-04
   maximum displ.:     0.0276348 α      in ANC's #3, #6, #8, ...

........................................................................
.............................. CYCLE    7 ..............................
........................................................................

 iter      E             dE          RMSdq      gap      omega  full diag
   1    -53.6725155 -0.536725E+02  0.233E-02    4.72       0.0  T
   2    -53.6725158 -0.296212E-06  0.117E-02    4.72       2.3  T
   3    -53.6725158 -0.154569E-07  0.381E-03    4.72       7.0  T
   4    -53.6725158 -0.519368E-07  0.190E-03    4.72      14.0  T
   5    -53.6725158 -0.283492E-08  0.246E-04    4.72     108.8  T
   6    -53.6725158 -0.211109E-09  0.134E-04    4.72     199.0  T
     SCC iter.                  ...        0 min,  0.003 sec
     gradient                   ...        0 min,  0.002 sec
 * total energy  :   -53.4679587 Eh     change       -0.1353461E-04 Eh
   gradient norm :     0.0018512 Eh/α   predicted    -0.9305648E-05 ( -31.25%)
   displ. norm   :     0.0564520 α      lambda       -0.1507136E-04
   maximum displ.:     0.0469055 α      in ANC's #3, #8, #6, ...

........................................................................
.............................. CYCLE    8 ..............................
........................................................................

 iter      E             dE          RMSdq      gap      omega  full diag
   1    -53.6728813 -0.536729E+02  0.367E-02    4.73       0.0  T
   2    -53.6728824 -0.112292E-05  0.211E-02    4.73       1.3  T
   3    -53.6728825 -0.863269E-07  0.682E-03    4.73       3.9  T
   4    -53.6728826 -0.141975E-06  0.303E-03    4.73       8.8  T
   5    -53.6728826 -0.389706E-08  0.726E-04    4.73      36.8  T
   6    -53.6728826 -0.954593E-09  0.283E-04    4.73      94.5  T
     SCC iter.                  ...        0 min,  0.003 sec
     gradient                   ...        0 min,  0.002 sec
 * total energy  :   -53.4679698 Eh     change       -0.1113645E-04 Eh
   gradient norm :     0.0017702 Eh/α   predicted    -0.7545968E-05 ( -32.24%)
   displ. norm   :     0.0107903 α      lambda       -0.3584483E-05
   maximum displ.:     0.0072436 α      in ANC's #3, #2, #4, ...

........................................................................
.............................. CYCLE    9 ..............................
........................................................................

 iter      E             dE          RMSdq      gap      omega  full diag
   1    -53.6730286 -0.536730E+02  0.993E-03    4.73       0.0  T
   2    -53.6730288 -0.175302E-06  0.574E-03    4.73       4.7  T
   3    -53.6730288 -0.186528E-07  0.241E-03    4.73      11.1  T
   4    -53.6730288 -0.436980E-08  0.122E-03    4.73      21.9  T
   5    -53.6730288 -0.159795E-08  0.304E-04    4.73      88.0  T
   6    -53.6730288 -0.219508E-09  0.126E-04    4.73     212.0  T
     SCC iter.                  ...        0 min,  0.003 sec
     gradient                   ...        0 min,  0.002 sec
 * total energy  :   -53.4679737 Eh     change       -0.3861189E-05 Eh
   gradient norm :     0.0008704 Eh/α   predicted    -0.1793153E-05 ( -53.56%)
   displ. norm   :     0.0206750 α      lambda       -0.2559517E-05
   maximum displ.:     0.0179361 α      in ANC's #3, #2, #4, ...

   *** GEOMETRY OPTIMIZATION CONVERGED AFTER 9 ITERATIONS ***

------------------------------------------------------------------------
 total energy gain   :        -0.0083563 Eh       -5.2436 kcal/mol
 total RMSD          :         0.1049037 a0        0.0555 Å
 total power (kW/mol):        -2.4377112 (step) -321.5156 (real)
------------------------------------------------------------------------

 ANCopt (total)                0 d,  0 h,  0 min,  0.068 sec
 optimizer setup                ...        0 min,  0.000 sec (  0.122%)
 model hessian                  ...        0 min,  0.001 sec (  1.498%)
 ANC generation                 ...        0 min,  0.000 sec (  0.330%)
 coordinate transformation      ...        0 min,  0.000 sec (  0.074%)
 single point calculation       ...        0 min,  0.065 sec ( 95.204%)
 optimization log               ...        0 min,  0.000 sec (  0.666%)
 hessian update                 ...        0 min,  0.000 sec (  0.233%)
 rational function              ...        0 min,  0.001 sec (  1.366%)

================
 final structure:
================
14
 xtb: 6.7.1 (edcfbbe)
F            1.26118541155589        0.09174616868640        0.23718098848501
C            2.56168458110615       -0.08652916938133       -0.05255757617561
F            3.10590477789126        1.14405656447835       -0.05883254670724
F            3.08866336822969       -0.72038037075465        1.01107862949488
C            2.78190185067938       -0.85654766864666       -1.39055976917440
O            1.81354096076729       -1.21792772695545       -2.02931734699726
N            4.06687846032701       -0.99152277740537       -1.61155908483120
S            4.52962573719865       -1.75679246458217       -2.94410274601018
O            4.34289855895668       -3.17755222950912       -2.94240808305542
O            4.33588732710082       -1.04510693929495       -4.17245451646494
C            6.38038702056703       -1.55816049138713       -2.61170004027127
F            6.75243313241531       -0.27645447754642       -2.53886859646446
F            6.76230855750634       -2.14641146520075       -1.47358813976152
F            7.10651025569848       -2.11483695250073       -3.59565117206638

 Bond Distances (Angstroems)
 ---------------------------
F1-C2=1.3443         C2-F1=1.3443         C2-F3=1.3456         C2-F4=1.3457         C2-C5=1.5594         F3-C2=1.3456         
F4-C2=1.3457         C5-C2=1.5594         C5-O6=1.2150         C5-N7=1.3108         O6-C5=1.2150         N7-C5=1.3108         
N7-S8=1.6048         S8-N7=1.6048         S8-O9=1.4330         S8-O10=1.4328        S8-C11=1.8908        O9-S8=1.4330         
O10-S8=1.4328        C11-S8=1.8908        C11-F12=1.3366       C11-F13=1.3369       C11-F14=1.3436       F12-C11=1.3366       
F13-C11=1.3369       F14-C11=1.3436       
 C  C  Rav=1.5594 sigma=0.0000  Rmin=1.5594  Rmax=1.5594     1
 N  C  Rav=1.3108 sigma=0.0000  Rmin=1.3108  Rmax=1.3108     1
 O  C  Rav=1.2150 sigma=0.0000  Rmin=1.2150  Rmax=1.2150     1
 F  C  Rav=1.3421 sigma=0.0039  Rmin=1.3366  Rmax=1.3457     6
 S  C  Rav=1.8908 sigma=0.0000  Rmin=1.8908  Rmax=1.8908     1
 S  N  Rav=1.6048 sigma=0.0000  Rmin=1.6048  Rmax=1.6048     1
 S  O  Rav=1.4329 sigma=0.0001  Rmin=1.4328  Rmax=1.4330     2

 selected bond angles (degree)
 --------------------
F3-C2-F1=105.72                F4-C2-F1=105.72                F4-C2-F3=106.03                C5-C2-F1=112.77                
C5-C2-F3=112.98                C5-C2-F4=112.97                O6-C5-C2=119.04                N7-C5-C2=109.51                
N7-C5-O6=131.45                S8-N7-C5=118.15                O9-S8-N7=115.74                O10-S8-N7=115.85               
O10-S8-O9=118.42               C11-S8-N7= 94.94               C11-S8-O9=103.38               C11-S8-O10=103.35              

 selected dihedral angles (degree)
 ---------------------------------
O6-C5-C2-F1=359.83            O6-C5-C2-F3=240.01            O6-C5-C2-F4=119.64            N7-C5-C2-F1=179.85            
N7-C5-C2-F3= 60.03            N7-C5-C2-F4=299.66            S8-N7-C5-C2=180.11            S8-N7-C5-O6=  0.14            
O9-S8-N7-C5=286.89            O10-S8-N7-C5= 72.03           C11-S8-N7-C5=179.45           
           -------------------------------------------------
          |                Final Singlepoint                |
           -------------------------------------------------

          ...................................................
          :                      SETUP                      :
          :.................................................:
          :  # basis functions                  62          :
          :  # atomic orbitals                  61          :
          :  # shells                           29          :
          :  # electrons                        84          :
          :  max. iterations                   250          :
          :  Hamiltonian                  GFN2-xTB          :
          :  restarted?                      false          :
          :  GBSA solvation                  false          :
          :  PC potential                    false          :
          :  electronic temp.          300.0000000     K    :
          :  accuracy                    1.0000000          :
          :  -> integral cutoff          0.2500000E+02      :
          :  -> integral neglect         0.1000000E-07      :
          :  -> SCF convergence          0.1000000E-05 Eh   :
          :  -> wf. convergence          0.1000000E-03 e    :
          :  Broyden damping             0.4000000          :
          :  net charge                         -1          :
          :  unpaired electrons                  0          :
          ...................................................

 iter      E             dE          RMSdq      gap      omega  full diag
   1    -53.6730288 -0.536730E+02  0.558E-05    4.73       0.0  T
   2    -53.6730288 -0.331113E-11  0.381E-05    4.73     700.9  T
   3    -53.6730288 -0.191847E-11  0.185E-05    4.73    1446.2  T

   *** convergence criteria satisfied after 3 iterations ***

         #    Occupation            Energy/Eh            Energy/eV
      -------------------------------------------------------------
         1        2.0000           -0.7784572             -21.1829
       ...           ...                  ...                  ...
        36        2.0000           -0.3631881              -9.8829
        37        2.0000           -0.3522755              -9.5859
        38        2.0000           -0.3348316              -9.1112
        39        2.0000           -0.3240493              -8.8178
        40        2.0000           -0.2999566              -8.1622
        41        2.0000           -0.2978654              -8.1053
        42        2.0000           -0.2889265              -7.8621 (HOMO)
        43                         -0.1152169              -3.1352 (LUMO)
        44                         -0.0466304              -1.2689
        45                          0.0008713               0.0237
        46                          0.0451929               1.2298
        47                          0.0846692               2.3040
       ...                                ...                  ...
        61                          1.3595221              36.9945
      -------------------------------------------------------------
                  HL-Gap            0.1737095 Eh            4.7269 eV
             Fermi-level           -0.2020717 Eh           -5.4987 eV

 SCC (total)                   0 d,  0 h,  0 min,  0.004 sec
 SCC setup                      ...        0 min,  0.000 sec (  1.176%)
 Dispersion                     ...        0 min,  0.000 sec (  0.851%)
 classical contributions        ...        0 min,  0.000 sec (  0.182%)
 integral evaluation            ...        0 min,  0.001 sec ( 17.906%)
 iterations                     ...        0 min,  0.002 sec ( 39.671%)
 molecular gradient             ...        0 min,  0.002 sec ( 38.050%)
 printout                       ...        0 min,  0.000 sec (  1.832%)

         :::::::::::::::::::::::::::::::::::::::::::::::::::::
         ::                     SUMMARY                     ::
         :::::::::::::::::::::::::::::::::::::::::::::::::::::
         :: total energy             -53.467973707665 Eh    ::
         :: gradient norm              0.000870726416 Eh/a0 ::
         :: HOMO-LUMO gap              4.726877188257 eV    ::
         ::.................................................::
         :: SCC energy               -53.672987983830 Eh    ::
         :: -> isotropic ES            0.232582375169 Eh    ::
         :: -> anisotropic ES         -0.014372072789 Eh    ::
         :: -> anisotropic XC         -0.039619059066 Eh    ::
         :: -> dispersion             -0.014606296883 Eh    ::
         :: repulsion energy           0.205014276164 Eh    ::
         :: add. restraining           0.000000000000 Eh    ::
         :: total charge              -1.000000000000 e     ::
         :::::::::::::::::::::::::::::::::::::::::::::::::::::

           -------------------------------------------------
          |                Property Printout                |
           -------------------------------------------------

    * Orbital Energies and Occupations

         #    Occupation            Energy/Eh            Energy/eV
      -------------------------------------------------------------
         1        2.0000           -0.7784572             -21.1829
       ...           ...                  ...                  ...
        30        2.0000           -0.4185177             -11.3884
        31        2.0000           -0.4174275             -11.3588
        32        2.0000           -0.4166684             -11.3381
        33        2.0000           -0.4145435             -11.2803
        34        2.0000           -0.4078483             -11.0981
        35        2.0000           -0.3978761             -10.8268
        36        2.0000           -0.3631881              -9.8829
        37        2.0000           -0.3522755              -9.5859
        38        2.0000           -0.3348316              -9.1112
        39        2.0000           -0.3240493              -8.8178
        40        2.0000           -0.2999566              -8.1622
        41        2.0000           -0.2978654              -8.1053
        42        2.0000           -0.2889265              -7.8621 (HOMO)
        43                         -0.1152169              -3.1352 (LUMO)
        44                         -0.0466304              -1.2689
        45                          0.0008713               0.0237
        46                          0.0451929               1.2298
        47                          0.0846692               2.3040
        48                          0.1543511               4.2001
        49                          0.1758122               4.7841
        50                          0.1930587               5.2534
        51                          0.1982570               5.3948
        52                          0.2049568               5.5772
        53                          0.2213695               6.0238
       ...                                ...                  ...
        61                          1.3595221              36.9945
      -------------------------------------------------------------
                  HL-Gap            0.1737095 Eh            4.7269 eV
             Fermi-level           -0.2020717 Eh           -5.4987 eV

     #   Z          covCN         q      C6AA      α(0)
     1   9 F        0.791    -0.205    11.290     3.969
     2   6 C        3.336     0.457    17.679     6.658
     3   9 F        0.790    -0.210    11.338     3.978
     4   9 F        0.790    -0.210    11.339     3.978
     5   6 C        2.989     0.281    22.244     7.736
     6   8 O        0.857    -0.447    22.642     6.380
     7   7 N        1.839    -0.492    34.116     8.656
     8  16 S        3.868     1.187   101.438    16.951
     9   8 O        0.860    -0.569    25.364     6.752
    10   8 O        0.860    -0.569    25.361     6.752
    11   6 C        3.311     0.366    19.328     7.017
    12   9 F        0.797    -0.194    11.172     3.948
    13   9 F        0.797    -0.194    11.174     3.949
    14   9 F        0.799    -0.202    11.258     3.964

 Mol. C6AA /au·bohr⁶  :       4055.674539
 Mol. C8AA /au·bohr⁸  :     100354.481689
 Mol. α(0) /au        :         90.687371


Wiberg/Mayer (AO) data.
largest (>0.10) Wiberg bond orders for each atom

 ---------------------------------------------------------------------------
     #   Z sym  total        # sym  WBO       # sym  WBO       # sym  WBO
 ---------------------------------------------------------------------------
     1   9 F    1.069 --     2 C    0.952
     2   6 C    3.799 --     1 F    0.952     3 F    0.947     4 F    0.947
                             5 C    0.851
     3   9 F    1.067 --     2 C    0.947
     4   9 F    1.067 --     2 C    0.947
     5   6 C    3.967 --     6 O    1.640     7 N    1.383     2 C    0.851
     6   8 O    2.002 --     5 C    1.640     7 N    0.239
     7   7 N    2.959 --     5 C    1.383     8 S    1.036     6 O    0.239
                            10 O    0.101     9 O    0.101
     8  16 S    5.029 --    10 O    1.600     9 O    1.600     7 N    1.036
                            11 C    0.670
     9   8 O    1.917 --     8 S    1.600    10 O    0.114     7 N    0.101
    10   8 O    1.917 --     8 S    1.600     9 O    0.114     7 N    0.101
    11   6 C    3.758 --    12 F    0.964    13 F    0.964    14 F    0.953
                             8 S    0.670
    12   9 F    1.089 --    11 C    0.964
    13   9 F    1.089 --    11 C    0.964
    14   9 F    1.078 --    11 C    0.953
 ---------------------------------------------------------------------------

Topologies differ in total number of bonds
Writing topology from bond orders to xtbtopo.mol

molecular dipole:
                 x           y           z       tot (Debye)
 q only:       -6.987       2.431       4.035
   full:       -6.985       2.480       4.117      21.552
molecular quadrupole (traceless):
                xx          xy          yy          xz          yz          zz
 q only:      -42.243      29.198      32.301      48.661     -20.594       9.941
  q+dip:      -41.438      29.680      32.210      49.424     -21.171       9.228
   full:      -41.517      29.580      32.584      49.241     -21.744       8.933

           -------------------------------------------------
          |                Geometry Summary                 |
           -------------------------------------------------

      molecular mass/u    :      244.0923320
   center of mass at/Å    :        4.2783316      -1.0804269      -1.7776968
  moments of inertia/u·Å² :        0.4317097E+03   0.1369822E+04   0.1528776E+04
rotational constants/cm⁻¹ :        0.3904853E-01   0.1230644E-01   0.1102688E-01

 * 12 selected distances

     #   Z          #   Z                                           value/Å
     1   9 F        2   6 C                                       1.3442578
     2   6 C        3   9 F                                       1.3455692
     2   6 C        4   9 F                                       1.3456583
     5   6 C        6   8 O                                       1.2150432 (min)
     5   6 C        7   7 N                                       1.3108105
     7   7 N        8  16 S                                       1.6048196
     8  16 S        9   8 O                                       1.4329789
     8  16 S       10   8 O                                       1.4327873
     8  16 S       11   6 C                                       1.8908369 (max)
    11   6 C       12   9 F                                       1.3365977
    11   6 C       13   9 F                                       1.3368629
    11   6 C       14   9 F                                       1.3436159

 * 6 distinct bonds (by element types)

   Z      Z             #   av. dist./Å        max./Å        min./Å
   6 C    7 N           1     1.3108105     1.3108105     1.3108105
   6 C    8 O           1     1.2150432     1.2150432     1.2150432
   6 C    9 F           6     1.3420936     1.3456583     1.3365977
   6 C   16 S           1     1.8908369     1.8908369     1.8908369
   7 N   16 S           1     1.6048196     1.6048196     1.6048196
   8 O   16 S           2     1.4328831     1.4329789     1.4327873


optimized geometry written to: xtbopt.xyz


           -------------------------------------------------
          | TOTAL ENERGY              -53.467973707665 Eh   |
          | GRADIENT NORM               0.000870726416 Eh/α |
          | HOMO-LUMO GAP               4.726877188257 eV   |
           -------------------------------------------------

------------------------------------------------------------------------
 * finished run on 2024/12/20 at 01:52:49.479     
------------------------------------------------------------------------
 total:
 * wall-time:     0 d,  0 h,  0 min,  0.111 sec
 *  cpu-time:     0 d,  0 h,  0 min,  0.781 sec
 * ratio c/w:     7.044 speedup
 SCF:
 * wall-time:     0 d,  0 h,  0 min,  0.018 sec
 *  cpu-time:     0 d,  0 h,  0 min,  0.115 sec
 * ratio c/w:     6.533 speedup
 ANC optimizer:
 * wall-time:     0 d,  0 h,  0 min,  0.073 sec
 *  cpu-time:     0 d,  0 h,  0 min,  0.546 sec
 * ratio c/w:     7.472 speedup

