      -----------------------------------------------------------      
     |                   =====================                   |     
     |                           x T B                           |     
     |                   =====================                   |     
     |                         S. Grimme                         |     
     |          Mulliken Center for Theoretical Chemistry        |     
     |                    University of Bonn                     |     
      -----------------------------------------------------------      

   * xtb version 6.7.1 (edcfbbe) compiled by 'conda@3ef47c1a292c' on 2024-11-25

   xtb is free software: you can redistribute it and/or modify it under
   the terms of the GNU Lesser General Public License as published by
   the Free Software Foundation, either version 3 of the License, or
   (at your option) any later version.
   
   xtb is distributed in the hope that it will be useful,
   but WITHOUT ANY WARRANTY; without even the implied warranty of
   MERCHANTABILITY or FITNESS FOR A PARTICULAR PURPOSE.  See the
   GNU Lesser General Public License for more details.
   
   Cite this work as:
   * C. Bannwarth, E. Caldeweyher, S. Ehlert, A. Hansen, P. Pracht,
     J. Seibert, S. Spicher, S. Grimme, WIREs Comput. Mol. Sci., 2020, 11,
     e01493. DOI: 10.1002/wcms.1493
   
   for GFN2-xTB:
   * C. Bannwarth, S. Ehlert and S. Grimme., J. Chem. Theory Comput., 2019,
     15, 1652-1671. DOI: 10.1021/acs.jctc.8b01176
   for GFN1-xTB:
   * S. Grimme, C. Bannwarth, P. Shushkov, J. Chem. Theory Comput., 2017,
     13, 1989-2009. DOI: 10.1021/acs.jctc.7b00118
   for GFN0-xTB:
   * P. Pracht, E. Caldeweyher, S. Ehlert, S. Grimme, ChemRxiv, 2019, preprint.
     DOI: 10.26434/chemrxiv.8326202.v1
   for GFN-FF:
   * S. Spicher and S. Grimme, Angew. Chem. Int. Ed., 2020, 59, 15665-15673.
     DOI: 10.1002/anie.202004239
   
   for ALPB and GBSA implicit solvation:
   * S. Ehlert, M. Stahn, S. Spicher, S. Grimme, J. Chem. Theory Comput.,
     2021, 17, 4250-4261. DOI: 10.1021/acs.jctc.1c00471
   
   for ddCOSMO and CPCM-X implicit solvation:
   * M. Stahn, S. Ehlert, S. Grimme, J. Phys. Chem. A,
     2023, XX, XXXX-XXXX. DOI: 10.1021/acs.jpca.3c04382
   
   for DFT-D4:
   * E. Caldeweyher, C. Bannwarth and S. Grimme, J. Chem. Phys., 2017,
     147, 034112. DOI: 10.1063/1.4993215
   * E. Caldeweyher, S. Ehlert, A. Hansen, H. Neugebauer, S. Spicher,
     C. Bannwarth and S. Grimme, J. Chem. Phys., 2019, 150, 154122.
     DOI: 10.1063/1.5090222
   * E. Caldeweyher, J.-M. Mewes, S. Ehlert and S. Grimme, Phys. Chem. Chem. Phys.
     2020, 22, 8499-8512. DOI: 10.1039/D0CP00502A
   
   for sTDA-xTB:
   * S. Grimme and C. Bannwarth, J. Chem. Phys., 2016, 145, 054103.
     DOI: 10.1063/1.4959605
   
   in the mass-spec context:
   * V. Asgeirsson, C. Bauer and S. Grimme, Chem. Sci., 2017, 8, 4879.
     DOI: 10.1039/c7sc00601b
   * J. Koopman and S. Grimme, ACS Omega 2019, 4, 12, 15120-15133.
     DOI: 10.1021/acsomega.9b02011
   
   for metadynamics refer to:
   * S. Grimme, J. Chem. Theory Comput., 2019, 155, 2847-2862
     DOI: 10.1021/acs.jctc.9b00143
   
   for SPH calculations refer to:
   * S. Spicher and S. Grimme, J. Chem. Theory Comput., 2021, 17, 1701-1714
     DOI: 10.1021/acs.jctc.0c01306
   
   for ONIOM refer to:
   * C. Plett, A. Katbashev, S. Ehlert, S. Grimme, M. Bursch,
     Phys. Chem. Chem. Phys., 2023, 25, 17860-17868. DOI: 10.1039/D3CP02178E
   
   for DIPRO refer to:
   * J. Kohn, N. Gildemeister, S. Grimme, D. Fazzi, A. Hansen,
     J. Chem. Phys., 2023, just accepted.
   
   for PTB refer to:
   * S. Grimme, M. Mueller, A. Hansen, J. Chem. Phys., 2023, 158, 124111.
     DOI: 10.1063/5.0137838
   
   with help from (in alphabetical order)
   P. Atkinson, C. Bannwarth, F. Bohle, G. Brandenburg, E. Caldeweyher
   M. Checinski, S. Dohm, S. Ehlert, S. Ehrlich, I. Gerasimov, C. Hölzer
   A. Katbashev, J. Kohn, J. Koopman, C. Lavigne, S. Lehtola, F. März, M. Müller,
   F. Musil, H. Neugebauer, J. Pisarek, C. Plett, P. Pracht, F. Pultar,
   J. Seibert, P. Shushkov, S. Spicher, M. Stahn, M. Steiner, T. Strunk,
   J. Stückrath, T. Rose, and J. Unsleber
   
 * started run on 2024/12/20 at 01:52:49.754     
   ID    Z sym.   atoms
    1    9 F      1, 10-19
    2    6 C      2, 3, 6-9
    3    8 O      4, 5

           -------------------------------------------------
          |                Calculation Setup                |
           -------------------------------------------------

          program call               : xtb A055.xyz --opt --namespace A055 --charge -1
          calculation namespace      : A055
          coordinate file            : A055.xyz
          omp threads                :                     8


           -------------------------------------------------
          |                 G F N 2 - x T B                 |
           -------------------------------------------------

        Reference                      10.1021/acs.jctc.8b01176
      * Hamiltonian:
        H0-scaling (s, p, d)           1.850000    2.230000    2.230000
        zeta-weighting                 0.500000
      * Dispersion:
        s8                             2.700000
        a1                             0.520000
        a2                             5.000000
        s9                             5.000000
      * Repulsion:
        kExp                           1.500000    1.000000
        rExp                           1.000000
      * Coulomb:
        alpha                          2.000000
        third order                    shell-resolved
        anisotropic                    true
        a3                             3.000000
        a5                             4.000000
        cn-shift                       1.200000
        cn-exp                         4.000000
        max-rad                        5.000000


          ...................................................
          :                      SETUP                      :
          :.................................................:
          :  # basis functions                  76          :
          :  # atomic orbitals                  76          :
          :  # shells                           38          :
          :  # electrons                       114          :
          :  max. iterations                   250          :
          :  Hamiltonian                  GFN2-xTB          :
          :  restarted?                      false          :
          :  GBSA solvation                  false          :
          :  PC potential                    false          :
          :  electronic temp.          300.0000000     K    :
          :  accuracy                    1.0000000          :
          :  -> integral cutoff          0.2500000E+02      :
          :  -> integral neglect         0.1000000E-07      :
          :  -> SCF convergence          0.1000000E-05 Eh   :
          :  -> wf. convergence          0.1000000E-03 e    :
          :  Broyden damping             0.4000000          :
          :  net charge                         -1          :
          :  unpaired electrons                  0          :
          ...................................................

 iter      E             dE          RMSdq      gap      omega  full diag
   1    -73.2944906 -0.732945E+02  0.573E+00    4.47       0.0  T
   2    -73.4603832 -0.165893E+00  0.277E+00    4.63       1.0  T
   3    -73.4705012 -0.101181E-01  0.157E+00    4.85       1.0  T
   4    -73.4736453 -0.314411E-02  0.302E-01    4.56       1.0  T
   5    -73.4738845 -0.239142E-03  0.125E-01    4.72       1.0  T
   6    -73.4740428 -0.158335E-03  0.300E-02    4.70       1.0  T
   7    -73.4740474 -0.454759E-05  0.111E-02    4.69       2.1  T
   8    -73.4740479 -0.505434E-06  0.289E-03    4.69       7.9  T
   9    -73.4740479 -0.652417E-07  0.144E-03    4.69      15.9  T
  10    -73.4740480 -0.166994E-07  0.239E-04    4.69      95.8  T
  11    -73.4740480  0.153477E-10  0.101E-04    4.69     227.9  T

   *** convergence criteria satisfied after 11 iterations ***

         #    Occupation            Energy/Eh            Energy/eV
      -------------------------------------------------------------
         1        2.0000           -0.8456312             -23.0108
       ...           ...                  ...                  ...
        51        2.0000           -0.4019069             -10.9364
        52        2.0000           -0.3796662             -10.3312
        53        2.0000           -0.3727695             -10.1436
        54        2.0000           -0.3563739              -9.6974
        55        2.0000           -0.2614017              -7.1131
        56        2.0000           -0.2509181              -6.8278
        57        2.0000           -0.2478236              -6.7436 (HOMO)
        58                         -0.0754849              -2.0540 (LUMO)
        59                         -0.0568327              -1.5465
        60                         -0.0340574              -0.9267
        61                         -0.0007179              -0.0195
        62                          0.0203852               0.5547
       ...                                ...                  ...
        76                          0.6971140              18.9694
      -------------------------------------------------------------
                  HL-Gap            0.1723387 Eh            4.6896 eV
             Fermi-level           -0.1616542 Eh           -4.3988 eV

 SCC (total)                   0 d,  0 h,  0 min,  0.016 sec
 SCC setup                      ...        0 min,  0.000 sec (  0.865%)
 Dispersion                     ...        0 min,  0.000 sec (  0.708%)
 classical contributions        ...        0 min,  0.000 sec (  0.338%)
 integral evaluation            ...        0 min,  0.001 sec (  9.036%)
 iterations                     ...        0 min,  0.011 sec ( 71.159%)
 molecular gradient             ...        0 min,  0.003 sec ( 17.144%)
 printout                       ...        0 min,  0.000 sec (  0.654%)

         :::::::::::::::::::::::::::::::::::::::::::::::::::::
         ::                     SUMMARY                     ::
         :::::::::::::::::::::::::::::::::::::::::::::::::::::
         :: total energy             -73.261520756024 Eh    ::
         :: gradient norm              0.143390840664 Eh/a0 ::
         :: HOMO-LUMO gap              4.689575135313 eV    ::
         ::.................................................::
         :: SCC energy               -73.473933771717 Eh    ::
         :: -> isotropic ES            0.306168945922 Eh    ::
         :: -> anisotropic ES          0.003661741628 Eh    ::
         :: -> anisotropic XC         -0.074442619707 Eh    ::
         :: -> dispersion             -0.019512764850 Eh    ::
         :: repulsion energy           0.212413015693 Eh    ::
         :: add. restraining           0.000000000000 Eh    ::
         :: total charge              -1.000000000000 e     ::
         :::::::::::::::::::::::::::::::::::::::::::::::::::::

      ----------------------------------------------------------- 
     |                   =====================                   |
     |                        A N C O P T                        |
     |                   =====================                   |
     |               Approximate Normal Coordinate               |
     |                Rational Function Optimizer                |
      ----------------------------------------------------------- 
      ----------------------------------------------------------- 
     |                   =====================                   |
     |                        A N C O P T                        |
     |                   =====================                   |
     |               Approximate Normal Coordinate               |
     |                Rational Function Optimizer                |
      ----------------------------------------------------------- 

          ...................................................
          :                      SETUP                      :
          :.................................................:
          :   optimization level            normal          :
          :   max. optcycles                   200          :
          :   ANC micro-cycles                  20          :
          :   degrees of freedom                51          :
          :.................................................:
          :   RF solver                   davidson          :
          :   write xtbopt.log                true          :
          :   linear?                        false          :
          :   energy convergence         0.5000000E-05 Eh   :
          :   grad. convergence          0.1000000E-02 Eh/α :
          :   maxmium RF displ.          1.0000000          :
          :   Hlow (freq-cutoff)         0.1000000E-01      :
          :   Hmax (freq-cutoff)         5.0000000          :
          :   S6 in model hess.         20.0000000          :
          ...................................................

generating ANC from exact Hessian ...
Using Lindh-Hessian (1995)
 Shifting diagonal of input Hessian by    5.9642488869050929E-003
 Lowest  eigenvalues of input Hessian
    0.000000    0.000000    0.000000    0.000000    0.000000    0.000000
    0.010000    0.011958    0.014642    0.019754    0.022118    0.025429
    0.030893    0.031873    0.046385    0.059535    0.065845    0.074495
 Highest eigenvalues
    1.608988    1.675841    1.680442    1.695295    1.736646    2.238065


........................................................................
.............................. CYCLE    1 ..............................
........................................................................

 iter      E             dE          RMSdq      gap      omega  full diag
   1    -73.4740480 -0.734740E+02  0.198E-05    4.69       0.0  T
   2    -73.4740480 -0.160583E-11  0.101E-05    4.69    2269.8  T
   3    -73.4740480  0.142109E-13  0.593E-06    4.69    3870.5  T
     SCC iter.                  ...        0 min,  0.003 sec
     gradient                   ...        0 min,  0.003 sec
 * total energy  :   -73.2615208 Eh     change       -0.1105747E-09 Eh
   gradient norm :     0.1433909 Eh/α   predicted     0.0000000E+00 (-100.00%)
   displ. norm   :     0.3014610 α      lambda       -0.1872230E-01
   maximum displ.:     0.1285487 α      in ANC's #5, #6, #4, ...

........................................................................
.............................. CYCLE    2 ..............................
........................................................................

 iter      E             dE          RMSdq      gap      omega  full diag
   1    -73.4996461 -0.734996E+02  0.264E-01    5.23       0.0  T
   2    -73.5001720 -0.525883E-03  0.157E-01    5.15       1.0  T
   3    -73.5002441 -0.721832E-04  0.883E-02    5.19       1.0  T
   4    -73.5002515 -0.738883E-05  0.186E-02    5.18       1.2  T
   5    -73.5002521 -0.538611E-06  0.570E-03    5.18       4.0  T
   6    -73.5002523 -0.196229E-06  0.108E-03    5.18      21.2  T
   7    -73.5002523 -0.157520E-08  0.331E-04    5.18      69.2  T
   8    -73.5002523 -0.293909E-09  0.129E-04    5.18     177.9  T
     SCC iter.                  ...        0 min,  0.006 sec
     gradient                   ...        0 min,  0.003 sec
 * total energy  :   -73.2753780 Eh     change       -0.1385724E-01 Eh
   gradient norm :     0.0764403 Eh/α   predicted    -0.1021505E-01 ( -26.28%)
   displ. norm   :     0.2935007 α      lambda       -0.1026446E-01
   maximum displ.:     0.1325065 α      in ANC's #5, #6, #4, ...

........................................................................
.............................. CYCLE    3 ..............................
........................................................................

 iter      E             dE          RMSdq      gap      omega  full diag
   1    -73.5174762 -0.735175E+02  0.263E-01    5.62       0.0  T
   2    -73.5182413 -0.765092E-03  0.159E-01    5.50       1.0  T
   3    -73.5183321 -0.908349E-04  0.869E-02    5.53       1.0  T
   4    -73.5183400 -0.786770E-05  0.254E-02    5.51       1.0  T
   5    -73.5183406 -0.583142E-06  0.700E-03    5.51       3.3  T
   6    -73.5183408 -0.238907E-06  0.119E-03    5.51      19.2  T
   7    -73.5183408 -0.215707E-08  0.373E-04    5.51      61.4  T
   8    -73.5183408 -0.409969E-09  0.161E-04    5.51     142.9  T
     SCC iter.                  ...        0 min,  0.007 sec
     gradient                   ...        0 min,  0.003 sec
 * total energy  :   -73.2817426 Eh     change       -0.6364633E-02 Eh
   gradient norm :     0.0322951 Eh/α   predicted    -0.5574362E-02 ( -12.42%)
   displ. norm   :     0.2697778 α      lambda       -0.3182854E-02
   maximum displ.:     0.1399190 α      in ANC's #3, #1, #6, ...

........................................................................
.............................. CYCLE    4 ..............................
........................................................................

 iter      E             dE          RMSdq      gap      omega  full diag
   1    -73.5188017 -0.735188E+02  0.213E-01    5.62       0.0  T
   2    -73.5191471 -0.345376E-03  0.121E-01    5.55       1.0  T
   3    -73.5191872 -0.401465E-04  0.626E-02    5.56       1.0  T
   4    -73.5191920 -0.481627E-05  0.170E-02    5.54       1.3  T
   5    -73.5191925 -0.460083E-06  0.500E-03    5.55       4.6  T
   6    -73.5191926 -0.122077E-06  0.105E-03    5.55      21.9  T
   7    -73.5191926 -0.168896E-08  0.423E-04    5.55      54.2  T
   8    -73.5191926 -0.366015E-09  0.147E-04    5.55     156.2  T
     SCC iter.                  ...        0 min,  0.006 sec
     gradient                   ...        0 min,  0.003 sec
 * total energy  :   -73.2836434 Eh     change       -0.1900781E-02 Eh
   gradient norm :     0.0263746 Eh/α   predicted    -0.1707252E-02 ( -10.18%)
   displ. norm   :     0.2761729 α      lambda       -0.2369619E-02
   maximum displ.:     0.1438682 α      in ANC's #5, #6, #3, ...

........................................................................
.............................. CYCLE    5 ..............................
........................................................................

 iter      E             dE          RMSdq      gap      omega  full diag
   1    -73.5182374 -0.735182E+02  0.246E-01    5.71       0.0  T
   2    -73.5187986 -0.561110E-03  0.130E-01    5.60       1.0  T
   3    -73.5188665 -0.678975E-04  0.675E-02    5.61       1.0  T
   4    -73.5188719 -0.548448E-05  0.201E-02    5.59       1.1  T
   5    -73.5188726 -0.653762E-06  0.656E-03    5.59       3.5  T
   6    -73.5188728 -0.180217E-06  0.116E-03    5.59      19.7  T
   7    -73.5188728 -0.284132E-08  0.535E-04    5.59      42.9  T
   8    -73.5188728 -0.562792E-09  0.164E-04    5.59     139.8  T
     SCC iter.                  ...        0 min,  0.006 sec
     gradient                   ...        0 min,  0.003 sec
 * total energy  :   -73.2848869 Eh     change       -0.1243515E-02 Eh
   gradient norm :     0.0222030 Eh/α   predicted    -0.1275182E-02 (   2.55%)
   displ. norm   :     0.1546323 α      lambda       -0.7915659E-03
   maximum displ.:     0.0943092 α      in ANC's #3, #1, #2, ...

........................................................................
.............................. CYCLE    6 ..............................
........................................................................

 iter      E             dE          RMSdq      gap      omega  full diag
   1    -73.5200182 -0.735200E+02  0.129E-01    5.72       0.0  T
   2    -73.5202025 -0.184346E-03  0.640E-02    5.64       1.0  T
   3    -73.5202273 -0.247471E-04  0.315E-02    5.65       1.0  T
   4    -73.5202287 -0.144173E-05  0.103E-02    5.64       2.2  T
   5    -73.5202289 -0.121721E-06  0.334E-03    5.64       6.9  T
   6    -73.5202289 -0.538199E-07  0.499E-04    5.64      46.0  T
   7    -73.5202289 -0.661430E-09  0.219E-04    5.64     104.8  T
     SCC iter.                  ...        0 min,  0.006 sec
     gradient                   ...        0 min,  0.003 sec
 * total energy  :   -73.2854741 Eh     change       -0.5871847E-03 Eh
   gradient norm :     0.0133240 Eh/α   predicted    -0.4052493E-03 ( -30.98%)
   displ. norm   :     0.1633521 α      lambda       -0.5812766E-03
   maximum displ.:     0.0896484 α      in ANC's #1, #3, #2, ...

........................................................................
.............................. CYCLE    7 ..............................
........................................................................

 iter      E             dE          RMSdq      gap      omega  full diag
   1    -73.5225369 -0.735225E+02  0.154E-01    5.78       0.0  T
   2    -73.5227975 -0.260656E-03  0.744E-02    5.68       1.0  T
   3    -73.5228324 -0.348673E-04  0.359E-02    5.69       1.0  T
   4    -73.5228345 -0.211043E-05  0.124E-02    5.67       1.8  T
   5    -73.5228346 -0.159645E-06  0.398E-03    5.68       5.8  T
   6    -73.5228347 -0.780029E-07  0.589E-04    5.68      39.0  T
   7    -73.5228347 -0.866692E-09  0.248E-04    5.68      92.5  T
     SCC iter.                  ...        0 min,  0.006 sec
     gradient                   ...        0 min,  0.003 sec
 * total energy  :   -73.2858324 Eh     change       -0.3582744E-03 Eh
   gradient norm :     0.0046829 Eh/α   predicted    -0.2983975E-03 ( -16.71%)
   displ. norm   :     0.0748570 α      lambda       -0.1087973E-03
   maximum displ.:     0.0464405 α      in ANC's #1, #2, #4, ...

........................................................................
.............................. CYCLE    8 ..............................
........................................................................

 iter      E             dE          RMSdq      gap      omega  full diag
   1    -73.5239647 -0.735240E+02  0.688E-02    5.72       0.0  T
   2    -73.5240090 -0.443183E-04  0.333E-02    5.68       1.0  T
   3    -73.5240149 -0.585757E-05  0.165E-02    5.68       1.4  T
   4    -73.5240154 -0.478969E-06  0.551E-03    5.68       4.2  T
   5    -73.5240154 -0.343705E-07  0.173E-03    5.68      13.2  T
   6    -73.5240154 -0.148507E-07  0.325E-04    5.68      70.5  T
   7    -73.5240154 -0.185040E-09  0.133E-04    5.68     173.0  T
     SCC iter.                  ...        0 min,  0.006 sec
     gradient                   ...        0 min,  0.003 sec
 * total energy  :   -73.2859093 Eh     change       -0.7692142E-04 Eh
   gradient norm :     0.0032219 Eh/α   predicted    -0.5472453E-04 ( -28.86%)
   displ. norm   :     0.0840010 α      lambda       -0.7101505E-04
   maximum displ.:     0.0495024 α      in ANC's #1, #4, #2, ...

........................................................................
.............................. CYCLE    9 ..............................
........................................................................

 iter      E             dE          RMSdq      gap      omega  full diag
   1    -73.5246062 -0.735246E+02  0.606E-02    5.70       0.0  T
   2    -73.5246307 -0.245115E-04  0.307E-02    5.67       1.0  T
   3    -73.5246338 -0.307032E-05  0.159E-02    5.67       1.4  T
   4    -73.5246343 -0.463765E-06  0.445E-03    5.67       5.2  T
   5    -73.5246343 -0.316827E-07  0.135E-03    5.67      17.0  T
   6    -73.5246343 -0.100825E-07  0.348E-04    5.67      65.9  T
   7    -73.5246343 -0.143700E-09  0.130E-04    5.67     176.0  T
     SCC iter.                  ...        0 min,  0.006 sec
     gradient                   ...        0 min,  0.003 sec
 * total energy  :   -73.2859595 Eh     change       -0.5018722E-04 Eh
   gradient norm :     0.0026842 Eh/α   predicted    -0.3576885E-04 ( -28.73%)
   displ. norm   :     0.0916645 α      lambda       -0.4867272E-04
   maximum displ.:     0.0511536 α      in ANC's #4, #1, #2, ...

........................................................................
.............................. CYCLE   10 ..............................
........................................................................

 iter      E             dE          RMSdq      gap      omega  full diag
   1    -73.5246696 -0.735247E+02  0.500E-02    5.68       0.0  T
   2    -73.5246768 -0.719427E-05  0.275E-02    5.66       1.0  T
   3    -73.5246774 -0.565011E-06  0.127E-02    5.67       1.8  T
   4    -73.5246779 -0.532087E-06  0.268E-03    5.66       8.6  T
   5    -73.5246779 -0.176704E-07  0.877E-04    5.66      26.2  T
   6    -73.5246779 -0.380199E-08  0.328E-04    5.66      70.0  T
     SCC iter.                  ...        0 min,  0.005 sec
     gradient                   ...        0 min,  0.003 sec
 * total energy  :   -73.2859942 Eh     change       -0.3473844E-04 Eh
   gradient norm :     0.0023982 Eh/α   predicted    -0.2454461E-04 ( -29.34%)
   displ. norm   :     0.0894367 α      lambda       -0.3524326E-04
   maximum displ.:     0.0515954 α      in ANC's #4, #1, #2, ...

........................................................................
.............................. CYCLE   11 ..............................
........................................................................

 iter      E             dE          RMSdq      gap      omega  full diag
   1    -73.5243877 -0.735244E+02  0.424E-02    5.66       0.0  T
   2    -73.5243883 -0.583386E-06  0.252E-02    5.66       1.0  T
   3    -73.5243883 -0.764361E-07  0.318E-03    5.66       7.2  T
   4    -73.5243885 -0.108012E-06  0.126E-03    5.66      18.2  T
   5    -73.5243885 -0.195074E-08  0.472E-04    5.66      48.6  T
   6    -73.5243885 -0.703082E-09  0.164E-04    5.66     140.1  T
     SCC iter.                  ...        0 min,  0.005 sec
     gradient                   ...        0 min,  0.003 sec
 * total energy  :   -73.2860198 Eh     change       -0.2556888E-04 Eh
   gradient norm :     0.0021786 Eh/α   predicted    -0.1776762E-04 ( -30.51%)
   displ. norm   :     0.0871555 α      lambda       -0.2992284E-04
   maximum displ.:     0.0482835 α      in ANC's #4, #1, #2, ...

........................................................................
.............................. CYCLE   12 ..............................
........................................................................

 iter      E             dE          RMSdq      gap      omega  full diag
   1    -73.5240028 -0.735240E+02  0.435E-02    5.65       0.0  T
   2    -73.5240048 -0.204875E-05  0.261E-02    5.66       1.0  T
   3    -73.5240047  0.761129E-07  0.790E-03    5.66       2.9  T
   4    -73.5240052 -0.494128E-06  0.173E-03    5.66      13.3  T
   5    -73.5240052 -0.744485E-08  0.598E-04    5.66      38.4  T
   6    -73.5240053 -0.122130E-08  0.288E-04    5.66      79.7  T
     SCC iter.                  ...        0 min,  0.005 sec
     gradient                   ...        0 min,  0.003 sec
 * total energy  :   -73.2860424 Eh     change       -0.2257244E-04 Eh
   gradient norm :     0.0022362 Eh/α   predicted    -0.1508810E-04 ( -33.16%)
   displ. norm   :     0.1024517 α      lambda       -0.3470571E-04
   maximum displ.:     0.0550701 α      in ANC's #1, #2, #4, ...

........................................................................
.............................. CYCLE   13 ..............................
........................................................................

 iter      E             dE          RMSdq      gap      omega  full diag
   1    -73.5236128 -0.735236E+02  0.553E-02    5.64       0.0  T
   2    -73.5236190 -0.623424E-05  0.330E-02    5.66       1.0  T
   3    -73.5236193 -0.274423E-06  0.131E-02    5.66       1.7  T
   4    -73.5236201 -0.811769E-06  0.270E-03    5.66       8.5  T
   5    -73.5236201 -0.198272E-07  0.857E-04    5.66      26.8  T
   6    -73.5236201 -0.347120E-08  0.391E-04    5.66      58.7  T
     SCC iter.                  ...        0 min,  0.005 sec
     gradient                   ...        0 min,  0.003 sec
 * total energy  :   -73.2860689 Eh     change       -0.2657580E-04 Eh
   gradient norm :     0.0025586 Eh/α   predicted    -0.1754063E-04 ( -34.00%)
   displ. norm   :     0.1372417 α      lambda       -0.4403143E-04
   maximum displ.:     0.0753134 α      in ANC's #1, #2, #4, ...

........................................................................
.............................. CYCLE   14 ..............................
........................................................................

 iter      E             dE          RMSdq      gap      omega  full diag
   1    -73.5232211 -0.735232E+02  0.750E-02    5.64       0.0  T
   2    -73.5232309 -0.978146E-05  0.451E-02    5.66       1.0  T
   3    -73.5232311 -0.185169E-06  0.166E-02    5.66       1.4  T
   4    -73.5232327 -0.155781E-05  0.336E-03    5.66       6.8  T
   5    -73.5232327 -0.306143E-07  0.114E-03    5.66      20.1  T
   6    -73.5232327 -0.572099E-08  0.520E-04    5.66      44.1  T
   7    -73.5232327 -0.281219E-09  0.888E-05    5.66     258.4  T
     SCC iter.                  ...        0 min,  0.006 sec
     gradient                   ...        0 min,  0.003 sec
 * total energy  :   -73.2861017 Eh     change       -0.3279529E-04 Eh
   gradient norm :     0.0032878 Eh/α   predicted    -0.2243431E-04 ( -31.59%)
   displ. norm   :     0.1425822 α      lambda       -0.4856472E-04
   maximum displ.:     0.0753845 α      in ANC's #1, #2, #4, ...

........................................................................
.............................. CYCLE   15 ..............................
........................................................................

 iter      E             dE          RMSdq      gap      omega  full diag
   1    -73.5233239 -0.735233E+02  0.774E-02    5.65       0.0  T
   2    -73.5233309 -0.699811E-05  0.465E-02    5.67       1.0  T
   3    -73.5233307  0.216262E-06  0.140E-02    5.66       1.6  T
   4    -73.5233322 -0.155129E-05  0.294E-03    5.67       7.8  T
   5    -73.5233323 -0.216828E-07  0.111E-03    5.67      20.7  T
   6    -73.5233323 -0.447679E-08  0.503E-04    5.67      45.6  T
   7    -73.5233323 -0.299096E-09  0.786E-05    5.67     291.9  T
     SCC iter.                  ...        0 min,  0.006 sec
     gradient                   ...        0 min,  0.003 sec
 * total energy  :   -73.2861369 Eh     change       -0.3519441E-04 Eh
   gradient norm :     0.0034028 Eh/α   predicted    -0.2477783E-04 ( -29.60%)
   displ. norm   :     0.1387490 α      lambda       -0.4285506E-04
   maximum displ.:     0.0691564 α      in ANC's #1, #2, #4, ...

........................................................................
.............................. CYCLE   16 ..............................
........................................................................

 iter      E             dE          RMSdq      gap      omega  full diag
   1    -73.5234679 -0.735235E+02  0.758E-02    5.66       0.0  T
   2    -73.5234697 -0.187287E-05  0.449E-02    5.66       1.0  T
   3    -73.5234699 -0.195086E-06  0.580E-03    5.66       4.0  T
   4    -73.5234703 -0.349612E-06  0.200E-03    5.66      11.5  T
   5    -73.5234703 -0.446003E-08  0.966E-04    5.66      23.8  T
   6    -73.5234703 -0.272678E-08  0.217E-04    5.66     105.9  T
     SCC iter.                  ...        0 min,  0.005 sec
     gradient                   ...        0 min,  0.003 sec
 * total energy  :   -73.2861676 Eh     change       -0.3062793E-04 Eh
   gradient norm :     0.0033930 Eh/α   predicted    -0.2184364E-04 ( -28.68%)
   displ. norm   :     0.0860647 α      lambda       -0.3870314E-04
   maximum displ.:     0.0413976 α      in ANC's #3, #6, #7, ...

........................................................................
.............................. CYCLE   17 ..............................
........................................................................

 iter      E             dE          RMSdq      gap      omega  full diag
   1    -73.5250252 -0.735250E+02  0.452E-02    5.69       0.0  T
   2    -73.5250269 -0.170475E-05  0.266E-02    5.68       1.0  T
   3    -73.5250268  0.120003E-06  0.782E-03    5.69       2.9  T
   4    -73.5250273 -0.515939E-06  0.155E-03    5.68      14.8  T
   5    -73.5250273 -0.458910E-08  0.645E-04    5.68      35.5  T
   6    -73.5250273 -0.883205E-09  0.255E-04    5.68      89.8  T
     SCC iter.                  ...        0 min,  0.005 sec
     gradient                   ...        0 min,  0.002 sec
 * total energy  :   -73.2861825 Eh     change       -0.1490211E-04 Eh
   gradient norm :     0.0030760 Eh/α   predicted    -0.1950463E-04 (  30.89%)
   displ. norm   :     0.2028872 α      lambda       -0.4273178E-04
   maximum displ.:     0.0994743 α      in ANC's #4, #1, #2, ...

........................................................................
.............................. CYCLE   18 ..............................
........................................................................

 iter      E             dE          RMSdq      gap      omega  full diag
   1    -73.5228089 -0.735228E+02  0.121E-01    5.64       0.0  T
   2    -73.5228154 -0.657221E-05  0.714E-02    5.64       1.0  T
   3    -73.5228154  0.393760E-07  0.127E-02    5.64       1.8  T
   4    -73.5228169 -0.149317E-05  0.315E-03    5.64       7.3  T
   5    -73.5228169 -0.188166E-07  0.183E-03    5.64      12.5  T
   6    -73.5228169 -0.635390E-08  0.277E-04    5.64      82.9  T
   7    -73.5228169 -0.211514E-09  0.660E-05    5.64     347.4  T
     SCC iter.                  ...        0 min,  0.006 sec
     gradient                   ...        0 min,  0.003 sec
 * total energy  :   -73.2861781 Eh     change        0.4343062E-05 Eh
   gradient norm :     0.0063532 Eh/α   predicted    -0.2225353E-04 (-612.39%)
   displ. norm   :     0.1390104 α      lambda       -0.5480544E-04
   maximum displ.:     0.0679151 α      in ANC's #1, #2, #4, ...

........................................................................
.............................. CYCLE   19 ..............................
........................................................................

 iter      E             dE          RMSdq      gap      omega  full diag
   1    -73.5243884 -0.735244E+02  0.780E-02    5.68       0.0  T
   2    -73.5243910 -0.259377E-05  0.466E-02    5.67       1.0  T
   3    -73.5243906  0.341099E-06  0.915E-03    5.67       2.5  T
   4    -73.5243917 -0.108047E-05  0.213E-03    5.67      10.8  T
   5    -73.5243917 -0.489848E-08  0.107E-03    5.67      21.5  T
   6    -73.5243917 -0.210316E-08  0.235E-04    5.67      97.7  T
   7    -73.5243917 -0.128850E-09  0.330E-05    5.67     696.0  T
     SCC iter.                  ...        0 min,  0.006 sec
     gradient                   ...        0 min,  0.003 sec
 * total energy  :   -73.2862003 Eh     change       -0.2213662E-04 Eh
   gradient norm :     0.0015111 Eh/α   predicted    -0.2793265E-04 (  26.18%)
   displ. norm   :     0.0380264 α      lambda       -0.5617237E-05
   maximum displ.:     0.0239286 α      in ANC's #4, #7, #6, ...

........................................................................
.............................. CYCLE   20 ..............................
........................................................................

 iter      E             dE          RMSdq      gap      omega  full diag
   1    -73.5241724 -0.735242E+02  0.245E-02    5.66       0.0  T
   2    -73.5241728 -0.440953E-06  0.147E-02    5.67       1.6  T
   3    -73.5241728  0.169686E-07  0.333E-03    5.67       6.9  T
   4    -73.5241729 -0.925904E-07  0.686E-04    5.67      33.4  T
   5    -73.5241729 -0.151350E-08  0.374E-04    5.67      61.4  T
     SCC iter.                  ...        0 min,  0.004 sec
     gradient                   ...        0 min,  0.003 sec
 * total energy  :   -73.2862066 Eh     change       -0.6366368E-05 Eh
   gradient norm :     0.0010038 Eh/α   predicted    -0.2814116E-05 ( -55.80%)
   displ. norm   :     0.1172032 α      lambda       -0.1284080E-04
   maximum displ.:     0.0690610 α      in ANC's #4, #6, #7, ...
 * RMSD in coord.:     0.4470502 α      energy gain  -0.2468587E-01 Eh

generating ANC from exact Hessian ...
Using Lindh-Hessian (1995)
 Shifting diagonal of input Hessian by    7.6463628012927009E-003
 Lowest  eigenvalues of input Hessian
    0.000000    0.000000    0.000000    0.000000    0.000000    0.000000
    0.010000    0.011103    0.012163    0.015978    0.017085    0.019084
    0.023919    0.028898    0.039814    0.040004    0.053509    0.059943
 Highest eigenvalues
    1.595192    1.664320    1.686686    1.766076    1.859127    2.704467


........................................................................
.............................. CYCLE   21 ..............................
........................................................................

 iter      E             dE          RMSdq      gap      omega  full diag
   1    -73.5235873 -0.735236E+02  0.789E-02    5.65       0.0  T
   2    -73.5235904 -0.304933E-05  0.467E-02    5.65       1.0  T
   3    -73.5235902  0.108275E-06  0.843E-03    5.65       2.7  T
   4    -73.5235909 -0.675365E-06  0.198E-03    5.65      11.6  T
   5    -73.5235909 -0.105691E-07  0.112E-03    5.65      20.4  T
   6    -73.5235909 -0.243767E-08  0.279E-04    5.65      82.2  T
   7    -73.5235909 -0.148148E-09  0.415E-05    5.65     552.5  T
     SCC iter.                  ...        0 min,  0.006 sec
     gradient                   ...        0 min,  0.003 sec
 * total energy  :   -73.2862130 Eh     change       -0.6336541E-05 Eh
   gradient norm :     0.0033491 Eh/α   predicted     0.0000000E+00 (-100.00%)
   displ. norm   :     0.0174766 α      lambda       -0.9675771E-05
   maximum displ.:     0.0114427 α      in ANC's #3, #6, #1, ...

........................................................................
.............................. CYCLE   22 ..............................
........................................................................

 iter      E             dE          RMSdq      gap      omega  full diag
   1    -73.5241682 -0.735242E+02  0.140E-02    5.67       0.0  T
   2    -73.5241687 -0.497483E-06  0.822E-03    5.67       2.8  T
   3    -73.5241687 -0.235706E-07  0.376E-03    5.67       6.1  T
   4    -73.5241688 -0.364242E-07  0.489E-04    5.67      46.9  T
   5    -73.5241688 -0.146009E-08  0.256E-04    5.67      89.7  T
     SCC iter.                  ...        0 min,  0.004 sec
     gradient                   ...        0 min,  0.003 sec
 * total energy  :   -73.2862213 Eh     change       -0.8343295E-05 Eh
   gradient norm :     0.0012077 Eh/α   predicted    -0.7129957E-05 ( -14.54%)
   displ. norm   :     0.0681625 α      lambda       -0.2281864E-04
   maximum displ.:     0.0403126 α      in ANC's #3, #6, #4, ...

........................................................................
.............................. CYCLE   23 ..............................
........................................................................

 iter      E             dE          RMSdq      gap      omega  full diag
   1    -73.5254252 -0.735254E+02  0.550E-02    5.70       0.0  T
   2    -73.5254289 -0.369114E-05  0.316E-02    5.69       1.0  T
   3    -73.5254287  0.141718E-06  0.116E-02    5.70       2.0  T
   4    -73.5254295 -0.703006E-06  0.172E-03    5.69      13.4  T
   5    -73.5254295 -0.999708E-08  0.872E-04    5.69      26.3  T
   6    -73.5254295 -0.133534E-08  0.292E-04    5.69      78.4  T
     SCC iter.                  ...        0 min,  0.005 sec
     gradient                   ...        0 min,  0.003 sec
 * total energy  :   -73.2862003 Eh     change        0.2098767E-04 Eh
   gradient norm :     0.0065817 Eh/α   predicted    -0.1143377E-04 (-154.48%)
   displ. norm   :     0.0123242 α      lambda       -0.4274540E-04
   maximum displ.:     0.0051232 α      in ANC's #10, #3, #11, ...

........................................................................
.............................. CYCLE   24 ..............................
........................................................................

 iter      E             dE          RMSdq      gap      omega  full diag
   1    -73.5248462 -0.735248E+02  0.151E-02    5.68       0.0  T
   2    -73.5248466 -0.415977E-06  0.909E-03    5.68       2.5  T
   3    -73.5248466  0.557918E-10  0.388E-03    5.68       5.9  T
   4    -73.5248467 -0.607891E-07  0.427E-04    5.68      53.7  T
   5    -73.5248467 -0.659867E-09  0.234E-04    5.68      97.8  T
     SCC iter.                  ...        0 min,  0.004 sec
     gradient                   ...        0 min,  0.003 sec
 * total energy  :   -73.2862311 Eh     change       -0.3077270E-04 Eh
   gradient norm :     0.0034301 Eh/α   predicted    -0.2138159E-04 ( -30.52%)
   displ. norm   :     0.0331067 α      lambda       -0.2114067E-04
   maximum displ.:     0.0170513 α      in ANC's #3, #6, #4, ...

........................................................................
.............................. CYCLE   25 ..............................
........................................................................

 iter      E             dE          RMSdq      gap      omega  full diag
   1    -73.5242317 -0.735242E+02  0.287E-02    5.67       0.0  T
   2    -73.5242324 -0.668052E-06  0.169E-02    5.67       1.4  T
   3    -73.5242323  0.618181E-07  0.455E-03    5.67       5.0  T
   4    -73.5242325 -0.156767E-06  0.679E-04    5.67      33.8  T
   5    -73.5242325 -0.183857E-08  0.418E-04    5.67      54.9  T
     SCC iter.                  ...        0 min,  0.004 sec
     gradient                   ...        0 min,  0.003 sec
 * total energy  :   -73.2862442 Eh     change       -0.1312756E-04 Eh
   gradient norm :     0.0011123 Eh/α   predicted    -0.1058232E-04 ( -19.39%)
   displ. norm   :     0.0617298 α      lambda       -0.7519304E-05
   maximum displ.:     0.0308220 α      in ANC's #3, #6, #4, ...

........................................................................
.............................. CYCLE   26 ..............................
........................................................................

 iter      E             dE          RMSdq      gap      omega  full diag
   1    -73.5238126 -0.735238E+02  0.491E-02    5.66       0.0  T
   2    -73.5238130 -0.436816E-06  0.289E-02    5.66       1.0  T
   3    -73.5238130 -0.484444E-08  0.318E-03    5.66       7.2  T
   4    -73.5238132 -0.131610E-06  0.102E-03    5.66      22.5  T
   5    -73.5238132 -0.147918E-08  0.558E-04    5.66      41.1  T
   6    -73.5238132 -0.663974E-09  0.644E-05    5.66     356.4  T
     SCC iter.                  ...        0 min,  0.005 sec
     gradient                   ...        0 min,  0.003 sec
 * total energy  :   -73.2862524 Eh     change       -0.8219698E-05 Eh
   gradient norm :     0.0022493 Eh/α   predicted    -0.3767485E-05 ( -54.17%)
   displ. norm   :     0.0760148 α      lambda       -0.1229876E-04
   maximum displ.:     0.0373059 α      in ANC's #6, #3, #4, ...

........................................................................
.............................. CYCLE   27 ..............................
........................................................................

 iter      E             dE          RMSdq      gap      omega  full diag
   1    -73.5235335 -0.735235E+02  0.591E-02    5.65       0.0  T
   2    -73.5235340 -0.471828E-06  0.347E-02    5.65       1.0  T
   3    -73.5235341 -0.871089E-07  0.290E-03    5.65       7.9  T
   4    -73.5235342 -0.939348E-07  0.122E-03    5.65      18.8  T
   5    -73.5235342 -0.190555E-08  0.590E-04    5.65      38.9  T
   6    -73.5235342 -0.985509E-09  0.919E-05    5.65     249.7  T
     SCC iter.                  ...        0 min,  0.010 sec
     gradient                   ...        0 min,  0.003 sec
 * total energy  :   -73.2862614 Eh     change       -0.8963579E-05 Eh
   gradient norm :     0.0033799 Eh/α   predicted    -0.6186567E-05 ( -30.98%)
   displ. norm   :     0.0785787 α      lambda       -0.1412337E-04
   maximum displ.:     0.0404501 α      in ANC's #6, #4, #3, ...

........................................................................
.............................. CYCLE   28 ..............................
........................................................................

 iter      E             dE          RMSdq      gap      omega  full diag
   1    -73.5235038 -0.735235E+02  0.590E-02    5.65       0.0  T
   2    -73.5235042 -0.444336E-06  0.346E-02    5.65       1.0  T
   3    -73.5235044 -0.138111E-06  0.240E-03    5.65       9.6  T
   4    -73.5235044 -0.452668E-07  0.122E-03    5.65      18.8  T
   5    -73.5235044 -0.143967E-08  0.455E-04    5.65      50.4  T
   6    -73.5235044 -0.984514E-09  0.974E-05    5.65     235.4  T
     SCC iter.                  ...        0 min,  0.005 sec
     gradient                   ...        0 min,  0.003 sec
 * total energy  :   -73.2862715 Eh     change       -0.1011031E-04 Eh
   gradient norm :     0.0037044 Eh/α   predicted    -0.7110430E-05 ( -29.67%)
   displ. norm   :     0.0678891 α      lambda       -0.1898511E-04
   maximum displ.:     0.0369558 α      in ANC's #6, #4, #1, ...

........................................................................
.............................. CYCLE   29 ..............................
........................................................................

 iter      E             dE          RMSdq      gap      omega  full diag
   1    -73.5240961 -0.735241E+02  0.475E-02    5.66       0.0  T
   2    -73.5240965 -0.441571E-06  0.277E-02    5.66       1.0  T
   3    -73.5240965 -0.673722E-09  0.363E-03    5.66       6.3  T
   4    -73.5240967 -0.161328E-06  0.112E-03    5.66      20.5  T
   5    -73.5240967 -0.159100E-08  0.445E-04    5.66      51.6  T
   6    -73.5240967 -0.429779E-09  0.129E-04    5.66     177.3  T
     SCC iter.                  ...        0 min,  0.005 sec
     gradient                   ...        0 min,  0.002 sec
 * total energy  :   -73.2862848 Eh     change       -0.1331991E-04 Eh
   gradient norm :     0.0018407 Eh/α   predicted    -0.9537989E-05 ( -28.39%)
   displ. norm   :     0.1797058 α      lambda       -0.1373900E-04
   maximum displ.:     0.0931713 α      in ANC's #6, #4, #1, ...

........................................................................
.............................. CYCLE   30 ..............................
........................................................................

 iter      E             dE          RMSdq      gap      omega  full diag
   1    -73.5231119 -0.735231E+02  0.130E-01    5.63       0.0  T
   2    -73.5231142 -0.227961E-05  0.765E-02    5.64       1.0  T
   3    -73.5231145 -0.248863E-06  0.772E-03    5.64       3.0  T
   4    -73.5231153 -0.788034E-06  0.290E-03    5.64       7.9  T
   5    -73.5231153 -0.942272E-08  0.939E-04    5.64      24.4  T
   6    -73.5231153 -0.240406E-08  0.213E-04    5.64     107.9  T
     SCC iter.                  ...        0 min,  0.005 sec
     gradient                   ...        0 min,  0.003 sec
 * total energy  :   -73.2862850 Eh     change       -0.1852525E-06 Eh
   gradient norm :     0.0054443 Eh/α   predicted    -0.6971046E-05 (3663.00%)
   displ. norm   :     0.0264520 α      lambda       -0.2871058E-04
   maximum displ.:     0.0179797 α      in ANC's #3, #2, #6, ...

........................................................................
.............................. CYCLE   31 ..............................
........................................................................

 iter      E             dE          RMSdq      gap      omega  full diag
   1    -73.5244393 -0.735244E+02  0.226E-02    5.68       0.0  T
   2    -73.5244410 -0.164726E-05  0.143E-02    5.67       1.6  T
   3    -73.5244412 -0.183899E-06  0.690E-03    5.67       3.3  T
   4    -73.5244413 -0.126450E-06  0.854E-04    5.67      26.9  T
   5    -73.5244413 -0.170890E-08  0.329E-04    5.67      69.8  T
     SCC iter.                  ...        0 min,  0.004 sec
     gradient                   ...        0 min,  0.003 sec
 * total energy  :   -73.2862989 Eh     change       -0.1383631E-04 Eh
   gradient norm :     0.0018461 Eh/α   predicted    -0.1437390E-04 (   3.89%)
   displ. norm   :     0.0425554 α      lambda       -0.3714671E-05
   maximum displ.:     0.0250672 α      in ANC's #4, #6, #5, ...

........................................................................
.............................. CYCLE   32 ..............................
........................................................................

 iter      E             dE          RMSdq      gap      omega  full diag
   1    -73.5244065 -0.735244E+02  0.319E-02    5.67       0.0  T
   2    -73.5244078 -0.130285E-05  0.185E-02    5.67       1.2  T
   3    -73.5244078 -0.343033E-07  0.554E-03    5.67       4.1  T
   4    -73.5244079 -0.646614E-07  0.654E-04    5.67      35.1  T
   5    -73.5244079 -0.370065E-09  0.309E-04    5.67      74.2  T
     SCC iter.                  ...        0 min,  0.004 sec
     gradient                   ...        0 min,  0.003 sec
 * total energy  :   -73.2863019 Eh     change       -0.3038379E-05 Eh
   gradient norm :     0.0010883 Eh/α   predicted    -0.1860885E-05 ( -38.75%)
   displ. norm   :     0.0584049 α      lambda       -0.2773590E-05
   maximum displ.:     0.0302360 α      in ANC's #4, #6, #5, ...

........................................................................
.............................. CYCLE   33 ..............................
........................................................................

 iter      E             dE          RMSdq      gap      omega  full diag
   1    -73.5242479 -0.735242E+02  0.430E-02    5.66       0.0  T
   2    -73.5242481 -0.188556E-06  0.253E-02    5.67       1.0  T
   3    -73.5242482 -0.584296E-07  0.198E-03    5.66      11.6  T
   4    -73.5242482 -0.430382E-07  0.931E-04    5.66      24.6  T
   5    -73.5242482 -0.109532E-08  0.209E-04    5.66     109.6  T
     SCC iter.                  ...        0 min,  0.004 sec
     gradient                   ...        0 min,  0.003 sec
 * total energy  :   -73.2863048 Eh     change       -0.2927711E-05 Eh
   gradient norm :     0.0011442 Eh/α   predicted    -0.1392096E-05 ( -52.45%)
   displ. norm   :     0.0507617 α      lambda       -0.2587448E-05
   maximum displ.:     0.0268117 α      in ANC's #5, #4, #6, ...

........................................................................
.............................. CYCLE   34 ..............................
........................................................................

 iter      E             dE          RMSdq      gap      omega  full diag
   1    -73.5243048 -0.735243E+02  0.383E-02    5.67       0.0  T
   2    -73.5243049 -0.126296E-06  0.225E-02    5.67       1.0  T
   3    -73.5243050 -0.659931E-07  0.129E-03    5.67      17.8  T
   4    -73.5243050 -0.859842E-08  0.782E-04    5.67      29.3  T
   5    -73.5243050 -0.953889E-09  0.172E-04    5.67     133.0  T
     SCC iter.                  ...        0 min,  0.004 sec
     gradient                   ...        0 min,  0.003 sec
 * total energy  :   -73.2863077 Eh     change       -0.2848625E-05 Eh
   gradient norm :     0.0009704 Eh/α   predicted    -0.1296516E-05 ( -54.49%)
   displ. norm   :     0.0548911 α      lambda       -0.3384145E-05
   maximum displ.:     0.0337020 α      in ANC's #5, #4, #3, ...

   *** GEOMETRY OPTIMIZATION CONVERGED AFTER 34 ITERATIONS ***

------------------------------------------------------------------------
 total energy gain   :        -0.0247869 Eh      -15.5540 kcal/mol
 total RMSD          :         0.4776737 a0        0.2528 Å
 total power (kW/mol):        -1.9140598 (step) -195.6560 (real)
------------------------------------------------------------------------

 ANCopt (total)                0 d,  0 h,  0 min,  0.333 sec
 optimizer setup                ...        0 min,  0.000 sec (  0.022%)
 model hessian                  ...        0 min,  0.015 sec (  4.516%)
 ANC generation                 ...        0 min,  0.001 sec (  0.157%)
 coordinate transformation      ...        0 min,  0.000 sec (  0.062%)
 single point calculation       ...        0 min,  0.311 sec ( 93.388%)
 optimization log               ...        0 min,  0.002 sec (  0.613%)
 hessian update                 ...        0 min,  0.000 sec (  0.137%)
 rational function              ...        0 min,  0.002 sec (  0.738%)

================
 final structure:
================
19
 xtb: 6.7.1 (edcfbbe)
F            1.23612528180495       -0.59468681766386       -0.06548935664187
C            2.50081048119129       -0.12371088344063       -0.30807561793253
C            2.70110007930340        0.48789943825179       -1.99806987185550
O            3.85543115403352        0.74440208993224       -2.18954316461352
O            1.63992056184904        0.50832039754904       -2.54999796989304
C            2.81474294330237        0.94837089832374        0.74026667594393
C            2.33720416485004        0.68324195103538        2.20914713117253
C            2.88944588917937       -0.57878938129187        2.92470796440282
C            4.43480754233354       -0.67075945984116        3.08167759315772
F            4.95646008505366        0.47863547471927        3.50518703969942
F            4.71093931571714       -1.58555191447659        4.02182651727073
F            5.06796649436233       -1.04051845040521        1.98653426792569
F            2.39564956594380       -0.56213551267950        4.19271708423183
F            2.43603758629635       -1.70992072929397        2.37265184497804
F            2.69179199023224        1.74676949937236        2.97934604346112
F            0.99429089691411        0.62996744060289        2.26953546826440
F            4.14715575033992        1.17485559258302        0.81783481356032
F            2.25359767951473        2.13056649963445        0.39384356499520
F            3.32891253777810       -1.19231613291150       -0.05074002812751

 Bond Distances (Angstroems)
 ---------------------------
F1-C2=1.3712         C2-F1=1.3712         C2-C3=1.8084         C2-C6=1.5320         C2-F19=1.3762        C3-C2=1.8084         
C3-O4=1.1979         C3-O5=1.1963         O4-C3=1.1979         O5-C3=1.1963         C6-C2=1.5320         C6-C7=1.5671         
C6-F17=1.3537        C6-F18=1.3537        C7-C6=1.5671         C7-C8=1.5523         C7-F15=1.3602        C7-F16=1.3453        
C8-C7=1.5523         C8-C9=1.5560         C8-F13=1.3609        C8-F14=1.3378        C9-C8=1.5560         C9-F10=1.3314        
C9-F11=1.3405        C9-F12=1.3179        F10-C9=1.3314        F11-C9=1.3405        F12-C9=1.3179        F13-C8=1.3609        
F14-C8=1.3378        F15-C7=1.3602        F16-C7=1.3453        F17-C6=1.3537        F18-C6=1.3537        F19-C2=1.3762        
 C  C  Rav=1.6032 sigma=0.1032  Rmin=1.5320  Rmax=1.8084     5
 O  C  Rav=1.1971 sigma=0.0008  Rmin=1.1963  Rmax=1.1979     2
 F  C  Rav=1.3499 sigma=0.0166  Rmin=1.3179  Rmax=1.3762    11

 selected bond angles (degree)
 --------------------
C3-C2-F1=112.56                C6-C2-F1=107.96                C6-C2-C3=112.34                F19-C2-F1=104.79               
F19-C2-C3=111.76               F19-C2-C6=106.99               O4-C3-C2=109.18                O5-C3-C2=109.80                
O5-C3-O4=141.02                C7-C6-C2=117.42                F17-C6-C2=110.98               F17-C6-C7=105.93               
F18-C6-C2=110.55               F18-C6-C7=105.15               F18-C6-F17=106.05              C8-C7-C6=117.46                
F15-C7-C6=108.60               F15-C7-C8=106.38               F16-C7-C6=110.67               F16-C7-C8=107.59               
F16-C7-F15=105.41              C9-C8-C7=116.61                F13-C8-C7=106.89               F13-C8-C9=105.49               
F14-C8-C7=112.12               F14-C8-C9=109.16               F14-C8-F13=105.78              F10-C9-C8=111.73               
F11-C9-C8=108.40               F11-C9-F10=106.58              F12-C9-C8=114.20               F12-C9-F10=108.56              
F12-C9-F11=107.00              

 selected dihedral angles (degree)
 ---------------------------------
O4-C3-C2-F1=187.58            O4-C3-C2-C6= 65.46            O4-C3-C2-F19=305.19           O5-C3-C2-F1=  7.92            
O5-C3-C2-C6=245.80            O5-C3-C2-F19=125.52           C7-C6-C2-F1= 39.98            C7-C6-C2-C3=164.68            
C7-C6-C2-F19=287.68           F17-C6-C2-F1=162.00           F17-C6-C2-C3=286.70           F17-C6-C2-F19= 49.70          
F18-C6-C2-F1=279.39           F18-C6-C2-C3= 44.09           F18-C6-C2-F19=167.09          C8-C7-C6-C2= 60.07            
C8-C7-C6-F17=295.49           C8-C7-C6-F18=183.45           F15-C7-C6-C2=180.74           F15-C7-C6-F17= 56.17          
F15-C7-C6-F18=304.13          F16-C7-C6-C2=296.00           F16-C7-C6-F17=171.42          F16-C7-C6-F18= 59.38          
C9-C8-C7-C6= 59.33            C9-C8-C7-F15=297.50           C9-C8-C7-F16=184.93           F13-C8-C7-C6=177.00           
F13-C8-C7-F15= 55.16          F13-C8-C7-F16=302.59          F14-C8-C7-C6=292.47           F14-C8-C7-F15=170.63          
F14-C8-C7-F16= 58.07          F10-C9-C8-C7= 45.55           F10-C9-C8-F13=287.13          F10-C9-C8-F14=173.86          
F11-C9-C8-C7=162.70           F11-C9-C8-F13= 44.28          F11-C9-C8-F14=291.01          F12-C9-C8-C7=281.86           
F12-C9-C8-F13=163.44          F12-C9-C8-F14= 50.17          
           -------------------------------------------------
          |                Final Singlepoint                |
           -------------------------------------------------

          ...................................................
          :                      SETUP                      :
          :.................................................:
          :  # basis functions                  76          :
          :  # atomic orbitals                  76          :
          :  # shells                           38          :
          :  # electrons                       114          :
          :  max. iterations                   250          :
          :  Hamiltonian                  GFN2-xTB          :
          :  restarted?                      false          :
          :  GBSA solvation                  false          :
          :  PC potential                    false          :
          :  electronic temp.          300.0000000     K    :
          :  accuracy                    1.0000000          :
          :  -> integral cutoff          0.2500000E+02      :
          :  -> integral neglect         0.1000000E-07      :
          :  -> SCF convergence          0.1000000E-05 Eh   :
          :  -> wf. convergence          0.1000000E-03 e    :
          :  Broyden damping             0.4000000          :
          :  net charge                         -1          :
          :  unpaired electrons                  0          :
          ...................................................

 iter      E             dE          RMSdq      gap      omega  full diag
   1    -73.5243050 -0.735243E+02  0.492E-05    5.67       0.0  T
   2    -73.5243050 -0.119513E-10  0.231E-05    5.67     991.0  T
   3    -73.5243050 -0.133582E-11  0.120E-05    5.67    1913.2  T

   *** convergence criteria satisfied after 3 iterations ***

         #    Occupation            Energy/Eh            Energy/eV
      -------------------------------------------------------------
         1        2.0000           -0.8400305             -22.8584
       ...           ...                  ...                  ...
        51        2.0000           -0.3927655             -10.6877
        52        2.0000           -0.3840639             -10.4509
        53        2.0000           -0.3824303             -10.4065
        54        2.0000           -0.3685505             -10.0288
        55        2.0000           -0.2977926              -8.1033
        56        2.0000           -0.2888651              -7.8604
        57        2.0000           -0.2566216              -6.9830 (HOMO)
        58                         -0.0483653              -1.3161 (LUMO)
        59                         -0.0080989              -0.2204
        60                         -0.0015172              -0.0413
        61                          0.0105945               0.2883
        62                          0.0312308               0.8498
       ...                                ...                  ...
        76                          1.0278635              27.9696
      -------------------------------------------------------------
                  HL-Gap            0.2082563 Eh            5.6669 eV
             Fermi-level           -0.1524934 Eh           -4.1496 eV

 SCC (total)                   0 d,  0 h,  0 min,  0.007 sec
 SCC setup                      ...        0 min,  0.000 sec (  0.948%)
 Dispersion                     ...        0 min,  0.000 sec (  0.775%)
 classical contributions        ...        0 min,  0.000 sec (  0.146%)
 integral evaluation            ...        0 min,  0.001 sec ( 15.173%)
 iterations                     ...        0 min,  0.003 sec ( 46.522%)
 molecular gradient             ...        0 min,  0.002 sec ( 35.151%)
 printout                       ...        0 min,  0.000 sec (  1.088%)

         :::::::::::::::::::::::::::::::::::::::::::::::::::::
         ::                     SUMMARY                     ::
         :::::::::::::::::::::::::::::::::::::::::::::::::::::
         :: total energy             -73.286307669563 Eh    ::
         :: gradient norm              0.000972250305 Eh/a0 ::
         :: HOMO-LUMO gap              5.666941931442 eV    ::
         ::.................................................::
         :: SCC energy               -73.524199173665 Eh    ::
         :: -> isotropic ES            0.273588873657 Eh    ::
         :: -> anisotropic ES          0.004555413435 Eh    ::
         :: -> anisotropic XC         -0.073731710521 Eh    ::
         :: -> dispersion             -0.019024373807 Eh    ::
         :: repulsion energy           0.237891504102 Eh    ::
         :: add. restraining           0.000000000000 Eh    ::
         :: total charge              -1.000000000000 e     ::
         :::::::::::::::::::::::::::::::::::::::::::::::::::::

           -------------------------------------------------
          |                Property Printout                |
           -------------------------------------------------

    * Orbital Energies and Occupations

         #    Occupation            Energy/Eh            Energy/eV
      -------------------------------------------------------------
         1        2.0000           -0.8400305             -22.8584
       ...           ...                  ...                  ...
        45        2.0000           -0.4340125             -11.8101
        46        2.0000           -0.4318584             -11.7515
        47        2.0000           -0.4280081             -11.6467
        48        2.0000           -0.4177837             -11.3685
        49        2.0000           -0.4033564             -10.9759
        50        2.0000           -0.3953593             -10.7583
        51        2.0000           -0.3927655             -10.6877
        52        2.0000           -0.3840639             -10.4509
        53        2.0000           -0.3824303             -10.4065
        54        2.0000           -0.3685505             -10.0288
        55        2.0000           -0.2977926              -8.1033
        56        2.0000           -0.2888651              -7.8604
        57        2.0000           -0.2566216              -6.9830 (HOMO)
        58                         -0.0483653              -1.3161 (LUMO)
        59                         -0.0080989              -0.2204
        60                         -0.0015172              -0.0413
        61                          0.0105945               0.2883
        62                          0.0312308               0.8498
        63                          0.0548543               1.4927
        64                          0.0778022               2.1171
        65                          0.1029035               2.8001
        66                          0.1129781               3.0743
        67                          0.1391443               3.7863
        68                          0.1623864               4.4188
       ...                                ...                  ...
        76                          1.0278635              27.9696
      -------------------------------------------------------------
                  HL-Gap            0.2082563 Eh            5.6669 eV
             Fermi-level           -0.1524934 Eh           -4.1496 eV

     #   Z          covCN         q      C6AA      α(0)
     1   9 F        0.786    -0.243    11.691     4.039
     2   6 C        3.372     0.191    21.147     7.187
     3   6 C        2.540     0.397    20.362     7.374
     4   8 O        0.856    -0.458    22.876     6.412
     5   8 O        0.856    -0.448    22.660     6.382
     6   6 C        3.518     0.319    16.917     6.068
     7   6 C        3.518     0.317    16.945     6.073
     8   6 C        3.519     0.315    16.970     6.076
     9   6 C        3.329     0.486    17.389     6.620
    10   9 F        0.791    -0.173    10.960     3.911
    11   9 F        0.793    -0.178    11.007     3.919
    12   9 F        0.791    -0.151    10.746     3.872
    13   9 F        0.791    -0.188    11.113     3.938
    14   9 F        0.789    -0.162    10.850     3.891
    15   9 F        0.789    -0.198    11.210     3.955
    16   9 F        0.789    -0.173    10.962     3.911
    17   9 F        0.789    -0.205    11.291     3.969
    18   9 F        0.790    -0.195    11.180     3.950
    19   9 F        0.787    -0.254    11.804     4.058

 Mol. C6AA /au·bohr⁶  :       5113.749545
 Mol. C8AA /au·bohr⁸  :     109389.401836
 Mol. α(0) /au        :         95.605763


Wiberg/Mayer (AO) data.
largest (>0.10) Wiberg bond orders for each atom

 ---------------------------------------------------------------------------
     #   Z sym  total        # sym  WBO       # sym  WBO       # sym  WBO
 ---------------------------------------------------------------------------
     1   9 F    1.033 --     2 C    0.935
     2   6 C    3.574 --     1 F    0.935     6 C    0.931    19 F    0.926
                             3 C    0.540
     3   6 C    3.944 --     5 O    1.685     4 O    1.676     2 C    0.540
     4   8 O    2.049 --     3 C    1.676     5 O    0.266
     5   8 O    2.061 --     3 C    1.685     4 O    0.266
     6   6 C    3.843 --    18 F    0.959    17 F    0.955     2 C    0.931
                             7 C    0.892
     7   6 C    3.870 --    16 F    0.977    15 F    0.952     8 C    0.917
                             6 C    0.892
     8   6 C    3.886 --    14 F    0.987    13 F    0.955     7 C    0.917
                             9 C    0.897
     9   6 C    3.873 --    12 F    0.993    10 F    0.969    11 F    0.958
                             8 C    0.897
    10   9 F    1.101 --     9 C    0.969
    11   9 F    1.091 --     9 C    0.958
    12   9 F    1.128 --     9 C    0.993
    13   9 F    1.068 --     8 C    0.955
    14   9 F    1.103 --     8 C    0.987
    15   9 F    1.064 --     7 C    0.952
    16   9 F    1.092 --     7 C    0.977
    17   9 F    1.062 --     6 C    0.955
    18   9 F    1.072 --     6 C    0.959
    19   9 F    1.022 --     2 C    0.926
 ---------------------------------------------------------------------------

Topologies differ in total number of bonds
Writing topology from bond orders to xtbtopo.mol

molecular dipole:
                 x           y           z       tot (Debye)
 q only:       -5.086      -0.587       1.236
   full:       -5.092      -0.651       1.548      13.628
molecular quadrupole (traceless):
                xx          xy          yy          xz          yz          zz
 q only:      -20.920      -5.245      21.508       8.273       3.794      -0.588
  q+dip:      -22.282      -6.155      22.372      10.322       3.908      -0.090
   full:      -22.425      -6.193      23.196      10.184       4.445      -0.771

           -------------------------------------------------
          |                Geometry Summary                 |
           -------------------------------------------------

      molecular mass/u    :      313.0456600
   center of mass at/Å    :        3.0358336       0.0608356       1.3737400
  moments of inertia/u·Å² :        0.7549981E+03   0.1685614E+04   0.1798763E+04
rotational constants/cm⁻¹ :        0.2232805E-01   0.1000088E-01   0.9371794E-02

 * 14 selected distances

     #   Z          #   Z                                           value/Å
     1   9 F        2   6 C                                       1.3711657
     3   6 C        4   8 O                                       1.1978882
     3   6 C        5   8 O                                       1.1963043 (min)
     2   6 C        6   6 C                                       1.5319709 (max)
     9   6 C       10   9 F                                       1.3313867
     9   6 C       11   9 F                                       1.3405127
     9   6 C       12   9 F                                       1.3179344
     8   6 C       13   9 F                                       1.3608672
     8   6 C       14   9 F                                       1.3378354
     7   6 C       15   9 F                                       1.3601581
     7   6 C       16   9 F                                       1.3453257
     6   6 C       17   9 F                                       1.3537490
     6   6 C       18   9 F                                       1.3536912
     2   6 C       19   9 F                                       1.3761875

 * 3 distinct bonds (by element types)

   Z      Z             #   av. dist./Å        max./Å        min./Å
   6 C    6 C           1     1.5319709     1.5319709     1.5319709
   6 C    8 O           2     1.1970962     1.1978882     1.1963043
   6 C    9 F          11     1.3498922     1.3761875     1.3179344


optimized geometry written to: xtbopt.xyz


           -------------------------------------------------
          | TOTAL ENERGY              -73.286307669563 Eh   |
          | GRADIENT NORM               0.000972250305 Eh/α |
          | HOMO-LUMO GAP               5.666941931442 eV   |
           -------------------------------------------------

------------------------------------------------------------------------
 * finished run on 2024/12/20 at 01:52:50.126     
------------------------------------------------------------------------
 total:
 * wall-time:     0 d,  0 h,  0 min,  0.373 sec
 *  cpu-time:     0 d,  0 h,  0 min,  2.941 sec
 * ratio c/w:     7.895 speedup
 SCF:
 * wall-time:     0 d,  0 h,  0 min,  0.016 sec
 *  cpu-time:     0 d,  0 h,  0 min,  0.128 sec
 * ratio c/w:     7.901 speedup
 ANC optimizer:
 * wall-time:     0 d,  0 h,  0 min,  0.340 sec
 *  cpu-time:     0 d,  0 h,  0 min,  2.709 sec
 * ratio c/w:     7.955 speedup

