19
 energy: -73.261520756134 gnorm: 0.143390969948 xtb: 6.7.1 (edcfbbe)
F            1.15056000000000       -0.41080000000000       -0.05104000000000
C            2.47115000000000       -0.08778000000000       -0.20047000000000
C            2.76020000000000        0.30900000000000       -1.65831000000000
O            3.82136000000000        0.96892000000000       -1.86394000000000
O            1.92442000000000       -0.08824000000000       -2.52802000000000
C            2.84481000000000        1.00413000000000        0.76825000000000
C            2.37933000000000        0.69978000000000        2.18392000000000
C            2.87479000000000       -0.56907000000000        2.84739000000000
C            4.38756000000000       -0.65159000000000        2.93903000000000
F            4.92248000000000        0.43093000000000        3.55218000000000
F            4.76696000000000       -1.73188000000000        3.67502000000000
F            4.99542000000000       -0.78012000000000        1.74394000000000
F            2.36437000000000       -0.60056000000000        4.12910000000000
F            2.35787000000000       -1.68092000000000        2.25762000000000
F            2.73877000000000        1.75940000000000        2.98824000000000
F            1.00767000000000        0.70259000000000        2.23212000000000
F            4.18556000000000        1.23469000000000        0.82115000000000
F            2.27425000000000        2.19596000000000        0.40734000000000
F            3.16486000000000       -1.22980000000000        0.08984000000000
19
 energy: -73.275377995181 gnorm: 0.076440305204 xtb: 6.7.1 (edcfbbe)
F            1.16187541726280       -0.41744515981198       -0.04949351659429
C            2.47138673362875       -0.08543145257531       -0.24699038615167
C            2.76412272852199        0.31964974917611       -1.73150122800547
O            3.79975167838534        0.97562406502954       -1.89815251503470
O            1.93601285503686       -0.06941643574389       -2.56101037617588
C            2.83013175131241        1.00506092615026        0.75952227408949
C            2.36481922932980        0.71541969577321        2.19841164002856
C            2.87637167252182       -0.56653888240208        2.86614945694318
C            4.40442946561500       -0.67263891778414        2.95811558159276
F            4.92946646462251        0.40800350863682        3.55597670589478
F            4.75777718445803       -1.73570079361358        3.70860622873228
F            5.01337921314511       -0.82471302746586        1.78301005711442
F            2.39248880026352       -0.58480260217306        4.14740260153017
F            2.36149147167775       -1.67745963018196        2.29971125125551
F            2.73444137277114        1.76033070768882        3.00354638567548
F            1.00557980178867        0.70672117053699        2.25435709218213
F            4.16078835006016        1.24995380154794        0.81292056989225
F            2.25262114614969        2.18316582327046        0.40473655556508
F            3.17545466344862       -1.21514254605830        0.06804162146590
19
 energy: -73.281742628230 gnorm: 0.032295163556 xtb: 6.7.1 (edcfbbe)
F            1.16690250839159       -0.42865797437432       -0.04747623778998
C            2.46612755436640       -0.08191573317559       -0.27911339035220
C            2.76164798884708        0.34810867887339       -1.81511132204384
O            3.79554972253894        0.97589193940621       -1.93317649121413
O            1.93954939232610       -0.06366095812389       -2.60007318376709
C            2.81679457335674        1.01304873780844        0.75262079260957
C            2.34840959772627        0.72586515532321        2.21197624078740
C            2.87675806686409       -0.56935112368309        2.88505902102607
C            4.42323759182934       -0.68992054311568        2.97651859699722
F            4.93817285110748        0.38709938414043        3.56446325941724
F            4.74254658488742       -1.73845536785604        3.74049852834844
F            5.03061494826178       -0.86101073598272        1.82076707400547
F            2.42459439700108       -0.57021650387130        4.16731437036578
F            2.36550998252875       -1.67572097635518        2.33558424849330
F            2.73352606296197        1.75680685730857        3.00953402345317
F            1.00435110201886        0.70785898807170        2.27745400119337
F            4.13977951116606        1.26041578107172        0.81287668429931
F            2.23238769834709        2.17792576044366        0.40308285043959
F            3.18592986547293       -1.19947136590951        0.05056093373128
19
 energy: -73.283643408955 gnorm: 0.026375405428 xtb: 6.7.1 (edcfbbe)
F            1.17348840489702       -0.45085204056985       -0.05608419426088
C            2.46779862116364       -0.08738914477948       -0.29356043153116
C            2.77190406712255        0.34978353221598       -1.87688133431864
O            3.77898137348920        1.01899055796452       -1.96172654530263
O            1.91262276539356       -0.03250371987865       -2.63392325654473
C            2.80947828891113        1.01149879414529        0.74522659535193
C            2.34327289734662        0.72593615302153        2.21570818651626
C            2.87928208210447       -0.56984333741571        2.89971647869052
C            4.43338547940318       -0.70152983394184        2.99614966593642
F            4.95227650449502        0.37838669920155        3.57102145568179
F            4.72320831586160       -1.73937349869607        3.78467045233621
F            5.04611205100543       -0.90143544955738        1.85162518051501
F            2.44351811751442       -0.54710789257584        4.18542562198600
F            2.36418998762831       -1.67824989586475        2.36649974390818
F            2.73720412998612        1.75728620257567        3.00235938646792
F            1.00475345734538        0.70431783391074        2.29060832783321
F            4.13018155550510        1.26152072655542        0.81150038624189
F            2.21702452990551        2.17045776595454        0.39706196213060
F            3.20370737092168       -1.19525345226569        0.03796231836204
19
 energy: -73.284886924291 gnorm: 0.022203100601 xtb: 6.7.1 (edcfbbe)
F            1.17435890763687       -0.47105516076651       -0.06309652507676
C            2.46254494979319       -0.08160627327796       -0.30155921754837
C            2.75708361610360        0.39669932452151       -1.93524182754636
O            3.78383019659292        1.02759242851320       -2.00175050575247
O            1.90615204051731       -0.03331915610725       -2.67383955822411
C            2.79745755045509        1.01322796648875        0.74199218997332
C            2.34031969825988        0.72220290246837        2.22050181553473
C            2.88424046609915       -0.57072211062684        2.91219244804765
C            4.44173308272690       -0.71299979616501        3.01527912233997
F            4.97091566198296        0.37222984386342        3.57358729173074
F            4.70323295587932       -1.73944106294199        3.83395492078944
F            5.06233695651155       -0.94815298719299        1.88048904253434
F            2.46163711236990       -0.52538238019440        4.20262053406572
F            2.36352291362119       -1.68284570981302        2.39368349615537
F            2.74193736327282        1.75682654030054        2.99769404456214
F            1.00393896409116        0.69574614967353        2.30917550477054
F            4.11835054763617        1.26510415035794        0.80982572815252
F            2.19531210281642        2.17066558005578        0.40344907915408
F            3.22348491363352       -1.18013024915710        0.01440241633743
19
 energy: -73.285474108948 gnorm: 0.013324222247 xtb: 6.7.1 (edcfbbe)
F            1.17853660485364       -0.48922404645154       -0.06697900476257
C            2.46494487109120       -0.08651046569902       -0.29963283538239
C            2.75605284947721        0.40874298685353       -1.96136323414954
O            3.77119442634932        1.05133751920830       -2.02339243533988
O            1.89211501615665       -0.00618501281127       -2.68670474809701
C            2.79520116024794        1.00388420717045        0.74029726243164
C            2.34386099808274        0.71703078615036        2.21978690114979
C            2.88699863420825       -0.56843092486715        2.91797684515058
C            4.44025903102353       -0.71555689505719        3.02694725108507
F            4.97929120139173        0.37483591635759        3.57101158753111
F            4.69472124260892       -1.73309127584670        3.86332291502789
F            5.06524605064725       -0.97335484195226        1.89634251568825
F            2.46149008655605       -0.51237637680214        4.20893103557310
F            2.36353067025121       -1.68451920194477        2.40601522599496
F            2.74563685949455        1.75944209193138        2.99046288175222
F            1.00513175791260        0.68952399946150        2.31303785436508
F            4.11817827770359        1.25599403416802        0.80605876920488
F            2.19208367068311        2.16400995956747        0.40375781820722
F            3.23791659126040       -1.18091245943658        0.00748339456950
19
 energy: -73.285832383338 gnorm: 0.004683197424 xtb: 6.7.1 (edcfbbe)
F            1.18461598963610       -0.50918709120714       -0.06836316990569
C            2.46927619741560       -0.09178018687984       -0.29573768904592
C            2.75042751410810        0.42638710346091       -1.99077491335540
O            3.75931052188557        1.07139075924913       -2.05101034015119
O            1.87370798020690        0.02251987014867       -2.69954211069023
C            2.79468706326360        0.98923966772743        0.74150597415735
C            2.35045230473457        0.71175494258866        2.22098077407653
C            2.88969377055831       -0.56428447031610        2.92515964323243
C            4.43499504916841       -0.71558676213695        3.04050401951528
F            4.98415843904904        0.37920584411830        3.56852561287069
F            4.69147955275334       -1.72233295400454        3.88958104202031
F            5.06059088659252       -0.99251778068641        1.91365633094144
F            2.45364805906569       -0.50579223634907        4.21388784133213
F            2.36670074634695       -1.68305477496079        2.41386295881057
F            2.74891680192617        1.76303375527109        2.98662626989661
F            1.00836191650544        0.68394585173239        2.31577867316247
F            4.12101223310102        1.23977558614663        0.80114548945774
F            2.19610998525262        2.15512897232149        0.40651299620576
F            3.25424498842992       -1.18320609622386        0.00106059746900
19
 energy: -73.285909304758 gnorm: 0.003222113700 xtb: 6.7.1 (edcfbbe)
F            1.18799686164686       -0.51613250212703       -0.06745521235885
C            2.47221582357990       -0.09396979120783       -0.29474362985216
C            2.74527509596645        0.43492083878392       -2.00331911805286
O            3.75579718502324        1.07464635031316       -2.06389273492789
O            1.86085954445380        0.03426785984012       -2.70188931810992
C            2.79724017424111        0.98252995923742        0.74358028935372
C            2.35344819103638        0.71023625879770        2.22248858102384
C            2.89008855295457       -0.56322849569056        2.92838462301276
C            4.43256576281727       -0.71341793015791        3.04642233503907
F            4.98256836480113        0.38406201244548        3.56714293715967
F            4.69278106782945       -1.71446396525511        3.89968835868352
F            5.05601588984350       -0.99588597697596        1.92037158981222
F            2.44607948000016       -0.50963444087813        4.21472178468928
F            2.37091548244419       -1.68222145603895        2.41239952154593
F            2.74876830169973        1.76372533574549        2.98767232489303
F            1.01039003573746        0.68295484816042        2.31463330701031
F            4.12536063324965        1.23006451409632        0.80054215812245
F            2.20406199830669        2.15203144225554        0.40870507236305
F            3.25996155436835       -1.18584486134411       -0.00209286940732
19
 energy: -73.285959491982 gnorm: 0.002684325747 xtb: 6.7.1 (edcfbbe)
F            1.19109713977215       -0.52014259882208       -0.06589155759732
C            2.47540109240191       -0.09624047687504       -0.29460333416310
C            2.73864032100828        0.44219961214230       -2.01290102438660
O            3.75336811426846        1.07345750611011       -2.07508733977270
O            1.84444379564138        0.04689385460217       -2.70026712578724
C            2.80234306936009        0.97695014189877        0.74613622176206
C            2.35528816430001        0.70907982511595        2.22384313778436
C            2.88950083851644       -0.56391343892799        2.93055823469742
C            4.43110923594057       -0.70936062957479        3.05180713128166
F            4.97885122977238        0.39271700648852        3.56400584618381
F            4.69581994366315       -1.70344404964931        3.91087902276486
F            5.05190445700418       -0.99743458780408        1.92603119112539
F            2.43634712772969       -0.51837380848419        4.21397877732224
F            2.37717406614922       -1.68300359062952        2.40675254824254
F            2.74706645127498        1.76310424087758        2.98979273343027
F            1.01177401704562        0.68283011951596        2.31096944105780
F            4.13230775226672        1.21893414006916        0.80245744623188
F            2.21676936727157        2.15048172446696        0.41051760016242
F            3.26318381661306       -1.19009499052053       -0.00561895033991
19
 energy: -73.285994230427 gnorm: 0.002398345612 xtb: 6.7.1 (edcfbbe)
F            1.19351040009568       -0.52117877826675       -0.06400653095525
C            2.47831202005004       -0.09840978815535       -0.29499686124258
C            2.73138708901837        0.44741800217584       -2.01814637402558
O            3.75130613333527        1.06908947944473       -2.08406216791259
O            1.82631754444195        0.06082902546610       -2.69525777364016
C            2.80895963937070        0.97284051036133        0.74824953743479
C            2.35579078278047        0.70787603225620        2.22429257698150
C            2.88818712884665       -0.56614586998147        2.93112371228744
C            4.43056007366591       -0.70417701319506        3.05662625927793
F            4.97429112412147        0.40385193233097        3.55943183742764
F            4.69977875398243       -1.69040581383886        3.92332005914402
F            5.04985885277420       -0.99886166441344        1.93145398479514
F            2.42604051465498       -0.52953356508511        4.21153413049081
F            2.38462213621032       -1.68544641781299        2.39826062603377
F            2.74440773049168        1.76134012938650        2.99182060215412
F            1.01210341614278        0.68276113234156        2.30554845682245
F            4.14057118569619        1.20733602058637        0.80651104556027
F            2.23197991969989        2.15034388336627        0.41106324329515
F            3.26440555462088       -1.19488723696687       -0.00940636392905
19
 energy: -73.286019799309 gnorm: 0.002178765895 xtb: 6.7.1 (edcfbbe)
F            1.19512598535916       -0.52040214254665       -0.06219153409998
C            2.48044054336980       -0.10017046333314       -0.29575661543391
C            2.72429702713903        0.45073079995911       -2.01908988646960
O            3.74956145977605        1.06301454816753       -2.09057854253248
O            1.80903635668617        0.07534986550813       -2.68846941794215
C            2.81541951942078        0.97014061195271        0.74926767924284
C            2.35524840638231        0.70648775552795        2.22364586579331
C            2.88678147550551       -0.56908229971301        2.93017972500809
C            4.43065880577112       -0.69900861790791        3.06079190222744
F            4.97008219659014        0.41508475410559        3.55426238670618
F            4.70326000306786       -1.67723463728029        3.93608539562134
F            5.05045022047012       -1.00136834073701        1.93726897083608
F            2.41700937120012       -0.54018574469899        4.20783808415701
F            2.39223999184464       -1.68868339554210        2.38910619470149
F            2.74155938240551        1.75901125691378        2.99300193001222
F            1.01155902180625        0.68211466203428        2.29988249206882
F            4.14824856801229        1.19652933138072        0.81139883948918
F            2.24666406271301        2.15109113824595        0.41020466140028
F            3.26474760247994       -1.19877908203667       -0.01348813078634
19
 energy: -73.286042371751 gnorm: 0.002236575389 xtb: 6.7.1 (edcfbbe)
F            1.19670278034438       -0.51980359715750       -0.06055352981948
C            2.48203960219662       -0.10147730713810       -0.29689299902814
C            2.71722625435275        0.45333776799467       -2.01727159493238
O            3.74799088554331        1.05607378249188       -2.09603242444014
O            1.79219184517630        0.09135416630371       -2.68093442975000
C            2.82096642978829        0.96816453373424        0.74911199308096
C            2.35423875059648        0.70476286146937        2.22204003433235
C            2.88581030732948       -0.57198482392944        2.92828798487072
C            4.43104852294590       -0.69443752878239        3.06487149391530
F            4.96674467366081        0.42534492745277        3.54884114912944
F            4.70512031095964       -1.66434524237654        3.94972493645821
F            5.05323131597484       -1.00613451492398        1.94448816548989
F            2.40957556051878       -0.54890336764202        4.20340846893518
F            2.39984325747415       -1.69198613170974        2.38063621528175
F            2.73873483228303        1.75661577386685        2.99307056377183
F            1.01063742978653        0.68036953549045        2.29467633349872
F            4.15462671994585        1.18657986513123        0.81601904627077
F            2.25969536349650        2.15208425184638        0.40841830962550
F            3.26596515762619       -1.20097495212186       -0.01854971669068
19
 energy: -73.286068947554 gnorm: 0.002559157238 xtb: 6.7.1 (edcfbbe)
F            1.19932950150250       -0.52143723382924       -0.05898093367707
C            2.48360920657116       -0.10261209487078       -0.29879188601449
C            2.70865134449665        0.45693450779970       -2.01386721261689
O            3.74645209318765        1.04738659769855       -2.10226342747717
O            1.77230144664653        0.11290537399247       -2.67207599163768
C            2.82599359012163        0.96596324066855        0.74781491830070
C            2.35303336919241        0.70235478062647        2.21941948593881
C            2.88548811893174       -0.57476880653626        2.92578387871041
C            4.43160608472241       -0.69010963351166        3.07007572860159
F            4.96427016084663        0.43577330339222        3.54210628268212
F            4.70484995443909       -1.64954504620379        3.96732861010164
F            5.05783113343875       -1.01512139476069        1.95505603440315
F            2.40255801661766       -0.55623364968287        4.19813356117121
F            2.40857205249057       -1.69541178801822        2.37249243490370
F            2.73548802521146        1.75417767799775        2.99182298758101
F            1.00959864363443        0.67691865189826        2.28945427621904
F            4.16036782795288        1.17575506885054        0.82017395849440
F            2.27256382441428        2.15296551924599        0.40592646444900
F            3.26982560558139       -1.20125507475701       -0.02624917013368
19
 energy: -73.286101742847 gnorm: 0.003288529377 xtb: 6.7.1 (edcfbbe)
F            1.20456969166633       -0.52826441109677       -0.05714873112306
C            2.48580381722214       -0.10390408899083       -0.30189138090052
C            2.69709619495464        0.46336369978331       -2.01014684173083
O            3.74470077324744        1.03597027422593       -2.11121478177743
O            1.74566287238279        0.14460967324888       -2.66108375288971
C            2.83080926240994        0.96260139228615        0.74540141150365
C            2.35200701958649        0.69897030306491        2.21571351223952
C            2.88601761561046       -0.57721267713715        2.92313267078380
C            4.43212562498016       -0.68591925715047        3.07763861019819
F            4.96281675519898        0.44719624922920        3.53289327162315
F            4.70175872548045       -1.63071675524117        3.99199201966044
F            5.06354862074407       -1.03059201012960        1.97098167484912
F            2.39474816021334       -0.56238985866271        4.19204223905663
F            2.41928670576712       -1.69892324337627        2.36458152028979
F            2.73136571879816        1.75185493671425        2.98890446049259
F            1.00879178711606        0.67115391677328        2.28357372141607
F            4.16607353764832        1.16264091431342        0.82333022444428
F            2.28640888873332        2.15331497649849        0.40308061120890
F            3.27879822823957       -1.19911403435287       -0.03842045934480
19
 energy: -73.286136937260 gnorm: 0.003403398916 xtb: 6.7.1 (edcfbbe)
F            1.21206211399037       -0.54116586599080       -0.05522992356585
C            2.48806449637833       -0.10518528267520       -0.30558855817168
C            2.68537418829574        0.47171386815445       -2.00706338764153
O            3.74315263275375        1.02439140151219       -2.12013679529628
O            1.71966297903256        0.17967188523134       -2.65019591414255
C            2.83367503096794        0.95885005395961        0.74250597841295
C            2.35157435522658        0.69567843530698        2.21194947498448
C            2.88728298343807       -0.57828035853023        2.92138400780181
C            4.43231048167398       -0.68345058431255        3.08549260623599
F            4.96350567394158        0.45599021200358        3.52241949092790
F            4.69608975464434       -1.61233891308239        4.01746170283611
F            5.06772675208852       -1.04984266776136        1.98830250218444
F            2.38823353146573       -0.56510737017825        4.18709611424505
F            2.42862108417607       -1.70121533063954        2.35959820727171
F            2.72743375650414        1.75061550981511        2.98473380679203
F            1.00860295243046        0.66467250793590        2.27850735607131
F            4.16987009182332        1.15095373595402        0.82379865506148
F            2.29693927908766        2.15288835485692        0.40094086149843
F            3.29220786208062       -1.19419959155981       -0.05261618550604
19
 energy: -73.286167565192 gnorm: 0.003394099014 xtb: 6.7.1 (edcfbbe)
F            1.22172412532578       -0.55807037702249       -0.05280897185367
C            2.49130671475439       -0.10699143246741       -0.30901415330278
C            2.67525263384721        0.48130315541615       -2.00705584752430
O            3.74233008063154        1.01375703298012       -2.12967563781737
O            1.69470406281854        0.21499426651545       -2.64006035278151
C            2.83569612956359        0.95451615655074        0.74058599301841
C            2.35195592641180        0.69293401743952        2.20916641468683
C            2.88834444734099       -0.57826608444329        2.92133734632856
C            4.43173509351723       -0.68230226653583        3.09263857572807
F            4.96512744672352        0.46295102346096        3.51084530373320
F            4.69053537852282       -1.59507972220807        4.04105390149014
F            5.06800644638226       -1.06957897957046        2.00373711841374
F            2.38196815628685       -0.56606890735884        4.18424441986955
F            2.43534571899666       -1.70257902153746        2.35729329779840
F            2.72359217870044        1.75025314795455        2.98094021158017
F            1.00899287386287        0.65893861216133        2.27356988565371
F            4.17302006394273        1.14149413464966        0.82246183368298
F            2.30472898252736        2.15138078524521        0.40028866710463
F            3.30802353984316       -1.18894554122987       -0.06618800580903
19
 energy: -73.286182467300 gnorm: 0.003077285320 xtb: 6.7.1 (edcfbbe)
F            1.23021731671932       -0.57446342233680       -0.05045610937930
C            2.49324490504687       -0.10834198349989       -0.31104968052952
C            2.67083929346568        0.48808799081818       -2.00652910776342
O            3.74288542422211        1.00730939560266       -2.13265269885948
O            1.68512099212860        0.23618851622433       -2.63307995083728
C            2.83467724545853        0.95250708307093        0.73971376654996
C            2.35255157461896        0.69217945718328        2.20794995944205
C            2.88874865647440       -0.57690722415403        2.92243488680828
C            4.43076412659043       -0.68409279644655        3.09480787582622
F            4.96861363074298        0.46341491076486        3.50027423187655
F            4.68615620688356       -1.58594699913861        4.05246777591243
F            5.06412650594619       -1.08474671897258        2.01065909979488
F            2.38027712908288       -0.56298594349545        4.18447359059976
F            2.43515760672947       -1.70202922524006        2.35962197874897
F            2.72157163467263        1.75107811845224        2.97828658664141
F            1.00950498887619        0.65638479639301        2.27101379200936
F            4.17256833783603        1.14018282158928        0.81897112107705
F            2.30400879100873        2.14980891529358        0.40085771854658
F            3.32135563349618       -1.18298769210843       -0.07440483646478
19
 energy: -73.286178124239 gnorm: 0.006359012645 xtb: 6.7.1 (edcfbbe)
F            1.24452562921879       -0.59562723933441       -0.04560806544191
C            2.49942931030160       -0.11253336841646       -0.31457875209585
C            2.65772604973035        0.50175306285152       -2.00851071991187
O            3.74505219872710        0.98881083311709       -2.14697184000303
O            1.64707661459219        0.28890839347486       -2.61648682580643
C            2.84036374533284        0.94581574610888        0.73942277153707
C            2.35258232536293        0.68849123027962        2.20519257436208
C            2.88806563996310       -0.57831955797877        2.92314242556041
C            4.42940136636792       -0.68078071497931        3.10310495935894
F            4.96865654722976        0.47774543093259        3.47888752186450
F            4.68396266102291       -1.55740219450143        4.08559577517778
F            5.06052220407327       -1.11118482840066        2.02790093991919
F            2.36871477126515       -0.56892767276084        4.18109670318423
F            2.44359886348959       -1.70554156695554        2.35453289610806
F            2.71443642604059        1.74922824885299        2.97578103995299
F            1.00912120718016        0.65001435141789        2.26104679300933
F            4.18010888218338        1.12675252558987        0.82013106556291
F            2.31799996348346        2.14717703786343        0.40031354679974
F            3.34104559443459       -1.17973971716136       -0.09063280913843
19
 energy: -73.286200260862 gnorm: 0.001511552116 xtb: 6.7.1 (edcfbbe)
F            1.23612217202231       -0.58070273448929       -0.04770942622645
C            2.49666630811546       -0.11070277695478       -0.31120127810971
C            2.66820104856210        0.49178710603008       -2.00771133027358
O            3.74477791543541        1.00017573413086       -2.13770907716823
O            1.67228573105870        0.25383656040795       -2.62611663717450
C            2.83762891345063        0.95051831864284        0.74070212054911
C            2.35232405752109        0.69142370169746        2.20759677679089
C            2.88721525926105       -0.57776167659697        2.92307626546804
C            4.42978881248137       -0.68286582199138        3.09592267425659
F            4.96783154230336        0.46848932431011        3.49123929181118
F            4.68780441917919       -1.57609334488349        4.06114355833920
F            5.06062075183025       -1.09229953914859        2.01329248194350
F            2.37595757961681       -0.56600364907655        4.18402154360924
F            2.43592946342794       -1.70342634461638        2.35788934642420
F            2.71853324718200        1.75011564402660        2.97890318910125
F            1.00887811179198        0.65554035350255        2.26637292207079
F            4.17593973403772        1.13775121882092        0.82061600180037
F            2.30823818620118        2.14840214310480        0.40045609968994
F            3.32764674652117       -1.18354421691676       -0.07742452290210
19
 energy: -73.286206627230 gnorm: 0.001004096594 xtb: 6.7.1 (edcfbbe)
F            1.23903391800126       -0.58430081734466       -0.04593005747499
C            2.49806419714110       -0.11197890163184       -0.31097371866707
C            2.66709548736586        0.49351199899947       -2.00598791751771
O            3.74769327458523        0.99406551959753       -2.13864282644681
O            1.66762887404899        0.26409398093205       -2.62126245599492