13
 energy: -26.157776077848 gnorm: 0.087180711789 xtb: 6.7.1 (edcfbbe)
C            1.11390000000000       -0.03019000000000       -0.06755000000000
C            0.35354000000000       -1.31858000000000       -0.20151000000000
C           -0.80874000000000       -1.38530000000000       -0.96086000000000
N           -1.55489000000000       -2.51117000000000       -1.13286000000000
C           -1.10849000000000       -3.62198000000000       -0.50998000000000
C            0.03505000000000       -3.66864000000000        0.27000000000000
C            0.77255000000000       -2.49897000000000        0.42326000000000
O            0.64509000000000        0.98483000000000       -0.67105000000000
O            2.16965000000000       -0.05406000000000        0.64038000000000
H           -1.18430000000000       -0.50023000000000       -1.47046000000000
H           -1.71652000000000       -4.50807000000000       -0.65923000000000
H            0.34846000000000       -4.58789000000000        0.74803000000000
H            1.67770000000000       -2.48959000000000        1.02707000000000
13
 energy: -26.161792457810 gnorm: 0.038793026288 xtb: 6.7.1 (edcfbbe)
C            1.11939289413233       -0.02483234617168       -0.06539534405892
C            0.34899237705818       -1.32758219433566       -0.20191571589641
C           -0.81210467854467       -1.40134017504948       -0.95850320920092
N           -1.54062819905248       -2.51045565781631       -1.12358463394278
C           -1.10612946875396       -3.60991408225930       -0.51190293671579
C            0.03601641410976       -3.65856371500167        0.26776288874883
C            0.77369707754685       -2.49600627060940        0.42319479941870
O            0.65046608341366        0.96875435580658       -0.66292368600611
O            2.15673158433285       -0.06139554513169        0.63401516764916
H           -1.18470194210606       -0.51931120128769       -1.46506638777243
H           -1.71860405374006       -4.49308352371275       -0.66499399738344
H            0.34357573476353       -4.58122715887652        0.74283940523884
H            1.67629617684007       -2.47488248555443        1.02171364992127
13
 energy: -26.162777438046 gnorm: 0.012432540987 xtb: 6.7.1 (edcfbbe)
C            1.12931392910613       -0.01072084752868       -0.06295058175231
C            0.34438845629789       -1.33268600388089       -0.20352838794845
C           -0.81798429570126       -1.41057466574453       -0.95971344697716
N           -1.53345240701943       -2.51223779880734       -1.11827488958718
C           -1.10669558504765       -3.60770640821507       -0.51293131750924
C            0.03621011979690       -3.65686678353786        0.26740279363692
C            0.77320010318947       -2.49526023037475        0.42258491241947
O            0.65539531850874        0.96665252829320       -0.65896692272370
O            2.15363311070697       -0.06735449954742        0.63382259833225
H           -1.18550639422730       -0.52614307510856       -1.46366016893675
H           -1.72025972680020       -4.49143697921651       -0.66654511863552
H            0.33934771261871       -4.58292217928061        0.74057324329589
H            1.67540965857102       -2.46258305705098        1.01742728638579
13
 energy: -26.162951873210 gnorm: 0.006951971597 xtb: 6.7.1 (edcfbbe)
C            1.13510658032002       -0.00219269167337       -0.06114596987608
C            0.34215047746488       -1.33324478958637       -0.20477345041568
C           -0.82101032637375       -1.41138679913320       -0.96150485726801
N           -1.53493273156877       -2.51461743880366       -1.11861434955282
C           -1.10768206125638       -3.61067203771158       -0.51274973155224
C            0.03594262470991       -3.65850827411711        0.26770602245992
C            0.77171399195459       -2.49527146599808        0.42163643337350
O            0.65783257552504        0.97091861383781       -0.65891778019079
O            2.15668987712805       -0.07048233722320        0.63662215070510
H           -1.18631940906816       -0.52479580791078       -1.46445501713727
H           -1.71970348046318       -4.49586571492875       -0.66498110225460
H            0.33867202981725       -4.58507873793583        0.74071235270736
H            1.67453985181049       -2.45864251881587        1.01570529900159
13
 energy: -26.163005314507 gnorm: 0.002145462938 xtb: 6.7.1 (edcfbbe)
C            1.14065761981383        0.00397813600984       -0.06124947821052
C            0.34075170928381       -1.33365758257354       -0.20613332900151
C           -0.82270866873364       -1.41124534415450       -0.96281044423065
N           -1.53783067020862       -2.51651119855718       -1.11981913985423
C           -1.10832527064642       -3.61305665280087       -0.51227022396184
C            0.03567385404094       -3.65999423619823        0.26799074529304
C            0.77056303614691       -2.49549910055293        0.42066610850543
O            0.65894632777329        0.97507568386773       -0.65815886804813
O            2.15885442978304       -0.07206953725547        0.63998889977720
H           -1.18723987696613       -0.52382236506429       -1.46573980680804
H           -1.71898151681883       -4.49918517929665       -0.66301688249707
H            0.33856400294679       -4.58643738427655        0.74119810843837
H            1.67407502358503       -2.45741523914735        1.01459431059796
13
 energy: -26.162998270915 gnorm: 0.002407213380 xtb: 6.7.1 (edcfbbe)
C            1.13862393669299        0.00663692195493       -0.05662755972854
C            0.33971820800291       -1.33351024288457       -0.20503825173335
C           -0.82288661019546       -1.41105640567375       -0.96234206563101
N           -1.53841270164067       -2.51688505931653       -1.12059671606457
C           -1.10795908471297       -3.61339256828425       -0.51268942128480
C            0.03568273729846       -3.66029044392294        0.26785962244602
C            0.77008873048492       -2.49549736502015        0.42110978885121
O            0.66110660304150        0.97493422087627       -0.66118514198464
O            2.16123958428996       -0.07263230073216        0.63734696254626
H           -1.18833836712999       -0.52392365259925       -1.46515489037377
H           -1.71809651627569       -4.49970477217959       -0.66392707571383
H            0.33883046763180       -4.58669773580452        0.74083956661301
H            1.67340301251225       -2.45782059641349        1.01564518205799
13
 energy: -26.163009227575 gnorm: 0.000510588197 xtb: 6.7.1 (edcfbbe)
C            1.14045026862990        0.00530249510908       -0.05996785392951
C            0.34045513551504       -1.33379414380904       -0.20582055712293
C           -0.82238765375424       -1.41116567032369       -0.96247571124764
N           -1.53841740899294       -2.51664432083576       -1.12028813551000
C           -1.10813316504982       -3.61300803925189       -0.51233296369942
C            0.03561340397201       -3.66013247774573        0.26793631691290
C            0.77046833031084       -2.49561998964860        0.42084156005953
O            0.65956327526982        0.97524105084833       -0.65910153433377
O            2.15957165841749       -0.07164565799767        0.63926745078071
H           -1.18801925758290       -0.52439194377183       -1.46569266822136
H           -1.71872701750563       -4.49907357181440       -0.66332870032220
H            0.33864207723972       -4.58647934242938        0.74106771323342
H            1.67392035353071       -2.45842838832942        1.01513508340025
13
 energy: -26.163009496282 gnorm: 0.000102314917 xtb: 6.7.1 (edcfbbe)
C            1.14049832885546        0.00535160698308       -0.06013554643934
C            0.34055560120742       -1.33384953334161       -0.20577740749096
C           -0.82209839452020       -1.41113069041573       -0.96225212271961
N           -1.53839924918539       -2.51656832511854       -1.12025704429893
C           -1.10808104772131       -3.61284408095539       -0.51234449542004
C            0.03560338164308       -3.66010038698543        0.26789258468336
C            0.77058971865294       -2.49566823444404        0.42089045415252
O            0.65947122836649        0.97524732840163       -0.65912148816745
O            2.15946375527138       -0.07119877628162        0.63927165693364
H           -1.18831061446362       -0.52481052620572       -1.46582615282893
H           -1.71889097396804       -4.49880305629117       -0.66344057679114
H            0.33862860721289       -4.58641770973845        0.74103976594128
H            1.67396965864890       -2.45904761560701        1.01530037244561
