      -----------------------------------------------------------      
     |                   =====================                   |     
     |                           x T B                           |     
     |                   =====================                   |     
     |                         S. Grimme                         |     
     |          Mulliken Center for Theoretical Chemistry        |     
     |                    University of Bonn                     |     
      -----------------------------------------------------------      

   * xtb version 6.7.1 (edcfbbe) compiled by 'conda@3ef47c1a292c' on 2024-11-25

   xtb is free software: you can redistribute it and/or modify it under
   the terms of the GNU Lesser General Public License as published by
   the Free Software Foundation, either version 3 of the License, or
   (at your option) any later version.
   
   xtb is distributed in the hope that it will be useful,
   but WITHOUT ANY WARRANTY; without even the implied warranty of
   MERCHANTABILITY or FITNESS FOR A PARTICULAR PURPOSE.  See the
   GNU Lesser General Public License for more details.
   
   Cite this work as:
   * C. Bannwarth, E. Caldeweyher, S. Ehlert, A. Hansen, P. Pracht,
     J. Seibert, S. Spicher, S. Grimme, WIREs Comput. Mol. Sci., 2020, 11,
     e01493. DOI: 10.1002/wcms.1493
   
   for GFN2-xTB:
   * C. Bannwarth, S. Ehlert and S. Grimme., J. Chem. Theory Comput., 2019,
     15, 1652-1671. DOI: 10.1021/acs.jctc.8b01176
   for GFN1-xTB:
   * S. Grimme, C. Bannwarth, P. Shushkov, J. Chem. Theory Comput., 2017,
     13, 1989-2009. DOI: 10.1021/acs.jctc.7b00118
   for GFN0-xTB:
   * P. Pracht, E. Caldeweyher, S. Ehlert, S. Grimme, ChemRxiv, 2019, preprint.
     DOI: 10.26434/chemrxiv.8326202.v1
   for GFN-FF:
   * S. Spicher and S. Grimme, Angew. Chem. Int. Ed., 2020, 59, 15665-15673.
     DOI: 10.1002/anie.202004239
   
   for ALPB and GBSA implicit solvation:
   * S. Ehlert, M. Stahn, S. Spicher, S. Grimme, J. Chem. Theory Comput.,
     2021, 17, 4250-4261. DOI: 10.1021/acs.jctc.1c00471
   
   for ddCOSMO and CPCM-X implicit solvation:
   * M. Stahn, S. Ehlert, S. Grimme, J. Phys. Chem. A,
     2023, XX, XXXX-XXXX. DOI: 10.1021/acs.jpca.3c04382
   
   for DFT-D4:
   * E. Caldeweyher, C. Bannwarth and S. Grimme, J. Chem. Phys., 2017,
     147, 034112. DOI: 10.1063/1.4993215
   * E. Caldeweyher, S. Ehlert, A. Hansen, H. Neugebauer, S. Spicher,
     C. Bannwarth and S. Grimme, J. Chem. Phys., 2019, 150, 154122.
     DOI: 10.1063/1.5090222
   * E. Caldeweyher, J.-M. Mewes, S. Ehlert and S. Grimme, Phys. Chem. Chem. Phys.
     2020, 22, 8499-8512. DOI: 10.1039/D0CP00502A
   
   for sTDA-xTB:
   * S. Grimme and C. Bannwarth, J. Chem. Phys., 2016, 145, 054103.
     DOI: 10.1063/1.4959605
   
   in the mass-spec context:
   * V. Asgeirsson, C. Bauer and S. Grimme, Chem. Sci., 2017, 8, 4879.
     DOI: 10.1039/c7sc00601b
   * J. Koopman and S. Grimme, ACS Omega 2019, 4, 12, 15120-15133.
     DOI: 10.1021/acsomega.9b02011
   
   for metadynamics refer to:
   * S. Grimme, J. Chem. Theory Comput., 2019, 155, 2847-2862
     DOI: 10.1021/acs.jctc.9b00143
   
   for SPH calculations refer to:
   * S. Spicher and S. Grimme, J. Chem. Theory Comput., 2021, 17, 1701-1714
     DOI: 10.1021/acs.jctc.0c01306
   
   for ONIOM refer to:
   * C. Plett, A. Katbashev, S. Ehlert, S. Grimme, M. Bursch,
     Phys. Chem. Chem. Phys., 2023, 25, 17860-17868. DOI: 10.1039/D3CP02178E
   
   for DIPRO refer to:
   * J. Kohn, N. Gildemeister, S. Grimme, D. Fazzi, A. Hansen,
     J. Chem. Phys., 2023, just accepted.
   
   for PTB refer to:
   * S. Grimme, M. Mueller, A. Hansen, J. Chem. Phys., 2023, 158, 124111.
     DOI: 10.1063/5.0137838
   
   with help from (in alphabetical order)
   P. Atkinson, C. Bannwarth, F. Bohle, G. Brandenburg, E. Caldeweyher
   M. Checinski, S. Dohm, S. Ehlert, S. Ehrlich, I. Gerasimov, C. Hölzer
   A. Katbashev, J. Kohn, J. Koopman, C. Lavigne, S. Lehtola, F. März, M. Müller,
   F. Musil, H. Neugebauer, J. Pisarek, C. Plett, P. Pracht, F. Pultar,
   J. Seibert, P. Shushkov, S. Spicher, M. Stahn, M. Steiner, T. Strunk,
   J. Stückrath, T. Rose, and J. Unsleber
   
 * started run on 2024/12/20 at 01:52:50.664     
   ID    Z sym.   atoms
    1   17 Cl     1
    2    6 C      2-5, 7, 8, 11-13
    3    8 O      6, 9, 10
    4    1 H      14-21

           -------------------------------------------------
          |                Calculation Setup                |
           -------------------------------------------------

          program call               : xtb A058.xyz --opt --namespace A058 --charge -1
          calculation namespace      : A058
          coordinate file            : A058.xyz
          omp threads                :                     8


           -------------------------------------------------
          |                 G F N 2 - x T B                 |
           -------------------------------------------------

        Reference                      10.1021/acs.jctc.8b01176
      * Hamiltonian:
        H0-scaling (s, p, d)           1.850000    2.230000    2.230000
        zeta-weighting                 0.500000
      * Dispersion:
        s8                             2.700000
        a1                             0.520000
        a2                             5.000000
        s9                             5.000000
      * Repulsion:
        kExp                           1.500000    1.000000
        rExp                           1.000000
      * Coulomb:
        alpha                          2.000000
        third order                    shell-resolved
        anisotropic                    true
        a3                             3.000000
        a5                             4.000000
        cn-shift                       1.200000
        cn-exp                         4.000000
        max-rad                        5.000000


          ...................................................
          :                      SETUP                      :
          :.................................................:
          :  # basis functions                  66          :
          :  # atomic orbitals                  65          :
          :  # shells                           35          :
          :  # electrons                        70          :
          :  max. iterations                   250          :
          :  Hamiltonian                  GFN2-xTB          :
          :  restarted?                      false          :
          :  GBSA solvation                  false          :
          :  PC potential                    false          :
          :  electronic temp.          300.0000000     K    :
          :  accuracy                    1.0000000          :
          :  -> integral cutoff          0.2500000E+02      :
          :  -> integral neglect         0.1000000E-07      :
          :  -> SCF convergence          0.1000000E-05 Eh   :
          :  -> wf. convergence          0.1000000E-03 e    :
          :  Broyden damping             0.4000000          :
          :  net charge                         -1          :
          :  unpaired electrons                  0          :
          ...................................................

 iter      E             dE          RMSdq      gap      omega  full diag
   1    -40.6602745 -0.406603E+02  0.530E+00    4.16       0.0  T
   2    -40.7461710 -0.858965E-01  0.276E+00    2.65       1.0  T
   3    -40.7456400  0.530970E-03  0.137E+00    1.73       1.0  T
   4    -40.7539503 -0.831024E-02  0.428E-01    1.39       1.0  T
   5    -40.7558525 -0.190225E-02  0.157E-01    1.45       1.0  T
   6    -40.7560633 -0.210802E-03  0.874E-02    1.50       1.0  T
   7    -40.7560982 -0.348902E-04  0.421E-02    1.54       1.0  T
   8    -40.7561061 -0.788397E-05  0.323E-02    1.54       1.0  T
   9    -40.7561135 -0.740456E-05  0.196E-02    1.54       1.1  T
  10    -40.7561169 -0.340241E-05  0.114E-02    1.53       1.9  T
  11    -40.7561179 -0.994943E-06  0.518E-03    1.53       4.2  T
  12    -40.7561182 -0.335166E-06  0.215E-03    1.53      10.2  T
  13    -40.7561183 -0.303979E-07  0.113E-03    1.53      19.3  T
  14    -40.7561183 -0.453612E-08  0.677E-04    1.53      32.3  T
  15    -40.7561183 -0.330452E-08  0.376E-04    1.53      58.1  T

   *** convergence criteria satisfied after 15 iterations ***

         #    Occupation            Energy/Eh            Energy/eV
      -------------------------------------------------------------
         1        2.0000           -0.9648210             -26.2541
       ...           ...                  ...                  ...
        29        2.0000           -0.3011932              -8.1959
        30        2.0000           -0.3006838              -8.1820
        31        2.0000           -0.2841709              -7.7327
        32        2.0000           -0.2763374              -7.5195
        33        2.0000           -0.2121734              -5.7735
        34        2.0000           -0.1991465              -5.4191
        35        2.0000           -0.1861885              -5.0664 (HOMO)
        36                         -0.1298173              -3.5325 (LUMO)
        37                         -0.1245672              -3.3896
        38                         -0.0448732              -1.2211
        39                         -0.0138032              -0.3756
        40                         -0.0042280              -0.1150
       ...                                ...                  ...
        65                          0.7720373              21.0082
      -------------------------------------------------------------
                  HL-Gap            0.0563713 Eh            1.5339 eV
             Fermi-level           -0.1580029 Eh           -4.2995 eV

 SCC (total)                   0 d,  0 h,  0 min,  0.018 sec
 SCC setup                      ...        0 min,  0.000 sec (  0.857%)
 Dispersion                     ...        0 min,  0.000 sec (  1.691%)
 classical contributions        ...        0 min,  0.000 sec (  0.473%)
 integral evaluation            ...        0 min,  0.002 sec ( 11.667%)
 iterations                     ...        0 min,  0.013 sec ( 73.159%)
 molecular gradient             ...        0 min,  0.002 sec ( 11.651%)
 printout                       ...        0 min,  0.000 sec (  0.420%)

         :::::::::::::::::::::::::::::::::::::::::::::::::::::
         ::                     SUMMARY                     ::
         :::::::::::::::::::::::::::::::::::::::::::::::::::::
         :: total energy             -40.334426306105 Eh    ::
         :: gradient norm              0.076942714300 Eh/a0 ::
         :: HOMO-LUMO gap              1.533939889097 eV    ::
         ::.................................................::
         :: SCC energy               -40.755946598363 Eh    ::
         :: -> isotropic ES            0.209919392369 Eh    ::
         :: -> anisotropic ES          0.003154090400 Eh    ::
         :: -> anisotropic XC          0.005671959186 Eh    ::
         :: -> dispersion             -0.021696223158 Eh    ::
         :: repulsion energy           0.421520292258 Eh    ::
         :: add. restraining           0.000000000000 Eh    ::
         :: total charge              -1.000000000000 e     ::
         :::::::::::::::::::::::::::::::::::::::::::::::::::::

      ----------------------------------------------------------- 
     |                   =====================                   |
     |                        A N C O P T                        |
     |                   =====================                   |
     |               Approximate Normal Coordinate               |
     |                Rational Function Optimizer                |
      ----------------------------------------------------------- 
      ----------------------------------------------------------- 
     |                   =====================                   |
     |                        A N C O P T                        |
     |                   =====================                   |
     |               Approximate Normal Coordinate               |
     |                Rational Function Optimizer                |
      ----------------------------------------------------------- 

          ...................................................
          :                      SETUP                      :
          :.................................................:
          :   optimization level            normal          :
          :   max. optcycles                   200          :
          :   ANC micro-cycles                  20          :
          :   degrees of freedom                57          :
          :.................................................:
          :   RF solver                   davidson          :
          :   write xtbopt.log                true          :
          :   linear?                        false          :
          :   energy convergence         0.5000000E-05 Eh   :
          :   grad. convergence          0.1000000E-02 Eh/α :
          :   maxmium RF displ.          1.0000000          :
          :   Hlow (freq-cutoff)         0.1000000E-01      :
          :   Hmax (freq-cutoff)         5.0000000          :
          :   S6 in model hess.         20.0000000          :
          ...................................................

generating ANC from exact Hessian ...
Using Lindh-Hessian (1995)
 Shifting diagonal of input Hessian by    8.8454331415709093E-003
 Lowest  eigenvalues of input Hessian
    0.000000    0.000000    0.000000    0.000000    0.000000    0.000000
    0.010000    0.010600    0.012838    0.013577    0.016690    0.018329
    0.021430    0.025381    0.027661    0.029749    0.039246    0.048100
 Highest eigenvalues
    1.618756    1.735565    1.831946    1.943976    2.028779    2.251040


........................................................................
.............................. CYCLE    1 ..............................
........................................................................

 iter      E             dE          RMSdq      gap      omega  full diag
   1    -40.7561183 -0.407561E+02  0.258E-04    1.53       0.0  T
   2    -40.7561183 -0.303970E-09  0.181E-04    1.53     120.3  T
   3    -40.7561183 -0.108024E-09  0.144E-04    1.53     151.5  T
     SCC iter.                  ...        0 min,  0.024 sec
     gradient                   ...        0 min,  0.024 sec
 * total energy  :   -40.3344263 Eh     change       -0.1002689E-08 Eh
   gradient norm :     0.0769423 Eh/α   predicted     0.0000000E+00 (-100.00%)
   displ. norm   :     0.1877306 α      lambda       -0.6835201E-02
   maximum displ.:     0.0796915 α      in ANC's #14, #3, #27, ...

........................................................................
.............................. CYCLE    2 ..............................
........................................................................

 iter      E             dE          RMSdq      gap      omega  full diag
   1    -40.7809188 -0.407809E+02  0.205E-01    1.58       0.0  T
   2    -40.7810744 -0.155566E-03  0.123E-01    1.58       1.0  T
   3    -40.7810890 -0.146417E-04  0.616E-02    1.60       1.0  T
   4    -40.7810990 -0.997441E-05  0.849E-03    1.61       2.6  T
   5    -40.7810992 -0.176584E-06  0.460E-03    1.61       4.7  T
   6    -40.7810992 -0.846037E-07  0.198E-03    1.61      11.0  T
   7    -40.7810993 -0.316447E-07  0.137E-03    1.61      16.0  T
   8    -40.7810993 -0.119713E-07  0.756E-04    1.61      28.9  T
   9    -40.7810993 -0.384921E-08  0.528E-04    1.61      41.3  T
     SCC iter.                  ...        0 min,  0.030 sec
     gradient                   ...        0 min,  0.005 sec
 * total energy  :   -40.3388079 Eh     change       -0.4381612E-02 Eh
   gradient norm :     0.0337357 Eh/α   predicted    -0.3538489E-02 ( -19.24%)
   displ. norm   :     0.1735915 α      lambda       -0.2761521E-02
   maximum displ.:     0.0604320 α      in ANC's #22, #3, #14, ...

........................................................................
.............................. CYCLE    3 ..............................
........................................................................

 iter      E             dE          RMSdq      gap      omega  full diag
   1    -40.7952236 -0.407952E+02  0.193E-01    1.57       0.0  T
   2    -40.7953607 -0.137042E-03  0.115E-01    1.58       1.0  T
   3    -40.7953722 -0.115133E-04  0.580E-02    1.61       1.0  T
   4    -40.7953802 -0.798704E-05  0.997E-03    1.62       2.2  T
   5    -40.7953807 -0.544084E-06  0.576E-03    1.62       3.8  T
   6    -40.7953811 -0.341081E-06  0.242E-03    1.61       9.0  T
   7    -40.7953811 -0.480168E-07  0.153E-03    1.61      14.3  T
   8    -40.7953811 -0.113590E-07  0.105E-03    1.61      20.8  T
   9    -40.7953811 -0.747646E-08  0.686E-04    1.61      31.8  T
  10    -40.7953811 -0.448215E-08  0.347E-04    1.61      62.9  T
     SCC iter.                  ...        0 min,  0.024 sec
     gradient                   ...        0 min,  0.005 sec
 * total energy  :   -40.3389914 Eh     change       -0.1834460E-03 Eh
   gradient norm :     0.0256450 Eh/α   predicted    -0.1422369E-02 ( 675.36%)
   displ. norm   :     0.1264811 α      lambda       -0.1957492E-02
   maximum displ.:     0.0642342 α      in ANC's #3, #13, #6, ...

........................................................................
.............................. CYCLE    4 ..............................
........................................................................

 iter      E             dE          RMSdq      gap      omega  full diag
   1    -40.7923946 -0.407924E+02  0.122E-01    1.66       0.0  T
   2    -40.7924123 -0.176766E-04  0.743E-02    1.65       1.0  T
   3    -40.7924043  0.798255E-05  0.295E-02    1.65       1.0  T
   4    -40.7924151 -0.107961E-04  0.677E-03    1.65       3.2  T
   5    -40.7924162 -0.104926E-05  0.189E-03    1.65      11.6  T
   6    -40.7924162 -0.103224E-07  0.103E-03    1.65      21.2  T
   7    -40.7924162 -0.383444E-08  0.402E-04    1.65      54.3  T
   8    -40.7924162 -0.707779E-09  0.237E-04    1.65      92.2  T
     SCC iter.                  ...        0 min,  0.032 sec
     gradient                   ...        0 min,  0.008 sec
 * total energy  :   -40.3400476 Eh     change       -0.1056194E-02 Eh
   gradient norm :     0.0081054 Eh/α   predicted    -0.9944119E-03 (  -5.85%)
   displ. norm   :     0.0859345 α      lambda       -0.1909603E-03
   maximum displ.:     0.0698429 α      in ANC's #3, #7, #1, ...

........................................................................
.............................. CYCLE    5 ..............................
........................................................................

 iter      E             dE          RMSdq      gap      omega  full diag
   1    -40.7896703 -0.407897E+02  0.452E-02    1.66       0.0  T
   2    -40.7896730 -0.268814E-05  0.274E-02    1.66       1.0  T
   3    -40.7896718  0.117995E-05  0.122E-02    1.66       1.8  T
   4    -40.7896739 -0.203810E-05  0.272E-03    1.66       8.0  T
   5    -40.7896740 -0.109726E-06  0.133E-03    1.66      16.4  T
   6    -40.7896740 -0.458154E-08  0.757E-04    1.66      28.8  T
   7    -40.7896740 -0.315494E-08  0.489E-04    1.66      44.6  T
     SCC iter.                  ...        0 min,  0.005 sec
     gradient                   ...        0 min,  0.004 sec
 * total energy  :   -40.3401874 Eh     change       -0.1398009E-03 Eh
   gradient norm :     0.0050231 Eh/α   predicted    -0.9618651E-04 ( -31.20%)
   displ. norm   :     0.1480783 α      lambda       -0.1668473E-03
   maximum displ.:     0.1243001 α      in ANC's #3, #1, #7, ...

........................................................................
.............................. CYCLE    6 ..............................
........................................................................

 iter      E             dE          RMSdq      gap      omega  full diag
   1    -40.7881702 -0.407882E+02  0.694E-02    1.67       0.0  T
   2    -40.7881768 -0.654827E-05  0.411E-02    1.67       1.0  T
   3    -40.7881742  0.254093E-05  0.176E-02    1.67       1.2  T
   4    -40.7881784 -0.417859E-05  0.441E-03    1.67       4.9  T
   5    -40.7881787 -0.278054E-06  0.206E-03    1.67      10.6  T
   6    -40.7881787 -0.119745E-07  0.106E-03    1.67      20.5  T
   7    -40.7881787 -0.505315E-08  0.770E-04    1.67      28.3  T
   8    -40.7881787 -0.383992E-08  0.517E-04    1.67      42.2  T
     SCC iter.                  ...        0 min,  0.006 sec
     gradient                   ...        0 min,  0.004 sec
 * total energy  :   -40.3402941 Eh     change       -0.1067814E-03 Eh
   gradient norm :     0.0051897 Eh/α   predicted    -0.8525404E-04 ( -20.16%)
   displ. norm   :     0.0845893 α      lambda       -0.6203500E-04
   maximum displ.:     0.0710477 α      in ANC's #3, #1, #2, ...

........................................................................
.............................. CYCLE    7 ..............................
........................................................................

 iter      E             dE          RMSdq      gap      omega  full diag
   1    -40.7885029 -0.407885E+02  0.349E-02    1.68       0.0  T
   2    -40.7885047 -0.182679E-05  0.209E-02    1.68       1.0  T
   3    -40.7885042  0.481479E-06  0.947E-03    1.68       2.3  T
   4    -40.7885052 -0.948496E-06  0.204E-03    1.68      10.7  T
   5    -40.7885052 -0.499639E-07  0.895E-04    1.68      24.4  T
   6    -40.7885052 -0.354245E-08  0.397E-04    1.68      54.9  T
     SCC iter.                  ...        0 min,  0.005 sec
     gradient                   ...        0 min,  0.003 sec
 * total energy  :   -40.3403455 Eh     change       -0.5139534E-04 Eh
   gradient norm :     0.0044242 Eh/α   predicted    -0.3124144E-04 ( -39.21%)
   displ. norm   :     0.1510574 α      lambda       -0.1035956E-03
   maximum displ.:     0.1211051 α      in ANC's #3, #1, #2, ...

........................................................................
.............................. CYCLE    8 ..............................
........................................................................

 iter      E             dE          RMSdq      gap      omega  full diag
   1    -40.7893135 -0.407893E+02  0.603E-02    1.70       0.0  T
   2    -40.7893165 -0.298674E-05  0.359E-02    1.69       1.0  T
   3    -40.7893140  0.251185E-05  0.167E-02    1.70       1.3  T
   4    -40.7893177 -0.376278E-05  0.269E-03    1.70       8.1  T
   5    -40.7893178 -0.484664E-07  0.134E-03    1.70      16.2  T
   6    -40.7893178 -0.725331E-08  0.682E-04    1.70      32.0  T
   7    -40.7893178 -0.131661E-08  0.323E-04    1.70      67.6  T
     SCC iter.                  ...        0 min,  0.006 sec
     gradient                   ...        0 min,  0.004 sec
 * total energy  :   -40.3404285 Eh     change       -0.8295677E-04 Eh
   gradient norm :     0.0037959 Eh/α   predicted    -0.5298217E-04 ( -36.13%)
   displ. norm   :     0.2077787 α      lambda       -0.1095687E-03
   maximum displ.:     0.1587994 α      in ANC's #3, #2, #1, ...

........................................................................
.............................. CYCLE    9 ..............................
........................................................................

 iter      E             dE          RMSdq      gap      omega  full diag
   1    -40.7893473 -0.407893E+02  0.837E-02    1.73       0.0  T
   2    -40.7893523 -0.492013E-05  0.492E-02    1.73       1.0  T
   3    -40.7893475  0.478131E-05  0.228E-02    1.73       1.0  T
   4    -40.7893544 -0.694294E-05  0.364E-03    1.73       6.0  T
   5    -40.7893545 -0.893549E-07  0.194E-03    1.73      11.3  T
   6    -40.7893545 -0.585355E-08  0.114E-03    1.73      19.1  T
   7    -40.7893545 -0.843350E-08  0.675E-04    1.73      32.3  T
   8    -40.7893545 -0.286017E-08  0.485E-04    1.73      45.0  T
     SCC iter.                  ...        0 min,  0.007 sec
     gradient                   ...        0 min,  0.004 sec
 * total energy  :   -40.3405056 Eh     change       -0.7712119E-04 Eh
   gradient norm :     0.0035649 Eh/α   predicted    -0.5715170E-04 ( -25.89%)
   displ. norm   :     0.1450493 α      lambda       -0.6641106E-04
   maximum displ.:     0.1014321 α      in ANC's #3, #2, #1, ...

........................................................................
.............................. CYCLE   10 ..............................
........................................................................

 iter      E             dE          RMSdq      gap      omega  full diag
   1    -40.7900518 -0.407901E+02  0.569E-02    1.75       0.0  T
   2    -40.7900542 -0.243328E-05  0.339E-02    1.75       1.0  T
   3    -40.7900520  0.221907E-05  0.156E-02    1.75       1.4  T
   4    -40.7900552 -0.322676E-05  0.273E-03    1.75       8.0  T
   5    -40.7900553 -0.592896E-07  0.153E-03    1.75      14.2  T
   6    -40.7900553 -0.542624E-08  0.927E-04    1.75      23.5  T
   7    -40.7900553 -0.485775E-08  0.631E-04    1.75      34.6  T
     SCC iter.                  ...        0 min,  0.006 sec
     gradient                   ...        0 min,  0.004 sec
 * total energy  :   -40.3405465 Eh     change       -0.4085257E-04 Eh
   gradient norm :     0.0020824 Eh/α   predicted    -0.3390617E-04 ( -17.00%)
   displ. norm   :     0.0821586 α      lambda       -0.2235036E-04
   maximum displ.:     0.0460270 α      in ANC's #3, #1, #2, ...

........................................................................
.............................. CYCLE   11 ..............................
........................................................................

 iter      E             dE          RMSdq      gap      omega  full diag
   1    -40.7898841 -0.407899E+02  0.344E-02    1.76       0.0  T
   2    -40.7898850 -0.887471E-06  0.202E-02    1.76       1.1  T
   3    -40.7898846  0.447713E-06  0.740E-03    1.76       2.9  T
   4    -40.7898853 -0.688714E-06  0.160E-03    1.76      13.7  T
   5    -40.7898853 -0.275744E-07  0.890E-04    1.76      24.5  T
   6    -40.7898853 -0.247481E-08  0.480E-04    1.76      45.4  T
     SCC iter.                  ...        0 min,  0.005 sec
     gradient                   ...        0 min,  0.003 sec
 * total energy  :   -40.3405610 Eh     change       -0.1455747E-04 Eh
   gradient norm :     0.0024180 Eh/α   predicted    -0.1125651E-04 ( -22.68%)
   displ. norm   :     0.0530245 α      lambda       -0.2263881E-04
   maximum displ.:     0.0327693 α      in ANC's #1, #4, #6, ...

........................................................................
.............................. CYCLE   12 ..............................
........................................................................

 iter      E             dE          RMSdq      gap      omega  full diag
   1    -40.7905986 -0.407906E+02  0.240E-02    1.76       0.0  T
   2    -40.7905997 -0.109203E-05  0.143E-02    1.76       1.5  T
   3    -40.7905996  0.353121E-07  0.532E-03    1.76       4.1  T
   4    -40.7905997 -0.932440E-07  0.168E-03    1.76      13.0  T
   5    -40.7905998 -0.438336E-07  0.557E-04    1.76      39.2  T
   6    -40.7905998 -0.672301E-09  0.289E-04    1.76      75.4  T
     SCC iter.                  ...        0 min,  0.005 sec
     gradient                   ...        0 min,  0.004 sec
 * total energy  :   -40.3405707 Eh     change       -0.9628951E-05 Eh
   gradient norm :     0.0016259 Eh/α   predicted    -0.1136373E-04 (  18.02%)
   displ. norm   :     0.0748575 α      lambda       -0.1104600E-04
   maximum displ.:     0.0550367 α      in ANC's #1, #4, #2, ...

........................................................................
.............................. CYCLE   13 ..............................
........................................................................

 iter      E             dE          RMSdq      gap      omega  full diag
   1    -40.7897049 -0.407897E+02  0.288E-02    1.77       0.0  T
   2    -40.7897052 -0.380403E-06  0.169E-02    1.77       1.3  T
   3    -40.7897050  0.203294E-06  0.449E-03    1.77       4.9  T
   4    -40.7897053 -0.308779E-06  0.982E-04    1.77      22.2  T
   5    -40.7897054 -0.962687E-08  0.575E-04    1.77      37.9  T
     SCC iter.                  ...        0 min,  0.004 sec
     gradient                   ...        0 min,  0.004 sec
 * total energy  :   -40.3405818 Eh     change       -0.1112668E-04 Eh
   gradient norm :     0.0025186 Eh/α   predicted    -0.5537542E-05 ( -50.23%)
   displ. norm   :     0.0441224 α      lambda       -0.1425175E-04
   maximum displ.:     0.0342068 α      in ANC's #1, #3, #4, ...

........................................................................
.............................. CYCLE   14 ..............................
........................................................................

 iter      E             dE          RMSdq      gap      omega  full diag
   1    -40.7896024 -0.407896E+02  0.181E-02    1.76       0.0  T
   2    -40.7896027 -0.294400E-06  0.107E-02    1.77       2.0  T
   3    -40.7896025  0.185936E-06  0.445E-03    1.77       4.9  T
   4    -40.7896028 -0.264087E-06  0.914E-04    1.77      23.9  T
   5    -40.7896028 -0.123117E-07  0.345E-04    1.77      63.3  T
     SCC iter.                  ...        0 min,  0.006 sec
     gradient                   ...        0 min,  0.003 sec
 * total energy  :   -40.3405941 Eh     change       -0.1232035E-04 Eh
   gradient norm :     0.0019254 Eh/α   predicted    -0.7149034E-05 ( -41.97%)
   displ. norm   :     0.2355283 α      lambda       -0.3893715E-04
   maximum displ.:     0.1926864 α      in ANC's #1, #3, #4, ...

........................................................................
.............................. CYCLE   15 ..............................
........................................................................

 iter      E             dE          RMSdq      gap      omega  full diag
   1    -40.7890244 -0.407890E+02  0.877E-02    1.76       0.0  T
   2    -40.7890285 -0.408322E-05  0.518E-02    1.76       1.0  T
   3    -40.7890237  0.476930E-05  0.192E-02    1.77       1.1  T
   4    -40.7890298 -0.610655E-05  0.351E-03    1.77       6.2  T
   5    -40.7890300 -0.165356E-06  0.145E-03    1.77      15.0  T
   6    -40.7890300 -0.137342E-08  0.612E-04    1.77      35.7  T
   7    -40.7890300 -0.338528E-08  0.264E-04    1.77      82.5  T
     SCC iter.                  ...        0 min,  0.010 sec
     gradient                   ...        0 min,  0.004 sec
 * total energy  :   -40.3406350 Eh     change       -0.4092120E-04 Eh
   gradient norm :     0.0031712 Eh/α   predicted    -0.1995007E-04 ( -51.25%)
   displ. norm   :     0.2094996 α      lambda       -0.4595050E-04
   maximum displ.:     0.1824562 α      in ANC's #1, #4, #3, ...

........................................................................
.............................. CYCLE   16 ..............................
........................................................................

 iter      E             dE          RMSdq      gap      omega  full diag
   1    -40.7885008 -0.407885E+02  0.710E-02    1.77       0.0  T
   2    -40.7885022 -0.143556E-05  0.420E-02    1.77       1.0  T
   3    -40.7884988  0.345502E-05  0.142E-02    1.77       1.5  T
   4    -40.7885031 -0.425999E-05  0.211E-03    1.78      10.4  T
   5    -40.7885031 -0.261777E-07  0.112E-03    1.78      19.4  T
   6    -40.7885031 -0.157100E-08  0.455E-04    1.78      48.0  T
   7    -40.7885031 -0.180607E-08  0.185E-04    1.78     118.0  T
     SCC iter.                  ...        0 min,  0.011 sec
     gradient                   ...        0 min,  0.004 sec
 * total energy  :   -40.3406787 Eh     change       -0.4365328E-04 Eh
   gradient norm :     0.0042529 Eh/α   predicted    -0.2398533E-04 ( -45.05%)
   displ. norm   :     0.6608193 α      lambda       -0.1727582E-03
   maximum displ.:     0.5827128 α      in ANC's #1, #3, #4, ...

........................................................................
.............................. CYCLE   17 ..............................
........................................................................

 iter      E             dE          RMSdq      gap      omega  full diag
   1    -40.7834442 -0.407834E+02  0.219E-01    1.80       0.0  T
   2    -40.7834649 -0.207555E-04  0.130E-01    1.81       1.0  T
   3    -40.7834294  0.355548E-04  0.496E-02    1.81       1.0  T
   4    -40.7834745 -0.451757E-04  0.771E-03    1.82       2.8  T
   5    -40.7834751 -0.541244E-06  0.387E-03    1.82       5.6  T
   6    -40.7834751 -0.292615E-07  0.171E-03    1.81      12.8  T
   7    -40.7834751 -0.148391E-07  0.741E-04    1.81      29.5  T
   8    -40.7834751 -0.398874E-08  0.444E-04    1.81      49.2  T
     SCC iter.                  ...        0 min,  0.012 sec
     gradient                   ...        0 min,  0.004 sec
 * total energy  :   -40.3407419 Eh     change       -0.6322826E-04 Eh
   gradient norm :     0.0144392 Eh/α   predicted    -0.1241176E-03 (  96.30%)
   displ. norm   :     0.1033068 α      lambda       -0.2308354E-03
   maximum displ.:     0.0634035 α      in ANC's #4, #1, #3, ...

........................................................................
.............................. CYCLE   18 ..............................
........................................................................

 iter      E             dE          RMSdq      gap      omega  full diag
   1    -40.7878469 -0.407878E+02  0.509E-02    1.79       0.0  T
   2    -40.7878538 -0.690350E-05  0.299E-02    1.79       1.0  T
   3    -40.7878542 -0.396966E-06  0.148E-02    1.80       1.5  T
   4    -40.7878551 -0.899283E-06  0.229E-03    1.80       9.5  T
   5    -40.7878551 -0.644668E-07  0.121E-03    1.80      18.1  T
   6    -40.7878551 -0.791237E-08  0.614E-04    1.80      35.6  T
   7    -40.7878551 -0.130928E-08  0.143E-04    1.80     153.1  T
     SCC iter.                  ...        0 min,  0.006 sec
     gradient                   ...        0 min,  0.004 sec
 * total energy  :   -40.3408788 Eh     change       -0.1368514E-03 Eh
   gradient norm :     0.0067988 Eh/α   predicted    -0.1166570E-03 ( -14.76%)
   displ. norm   :     0.3049678 α      lambda       -0.2158622E-03
   maximum displ.:     0.2730195 α      in ANC's #1, #3, #10, ...

........................................................................
.............................. CYCLE   19 ..............................
........................................................................

 iter      E             dE          RMSdq      gap      omega  full diag
   1    -40.7895450 -0.407895E+02  0.915E-02    1.80       0.0  T
   2    -40.7895517 -0.668205E-05  0.540E-02    1.81       1.0  T
   3    -40.7895443  0.731516E-05  0.263E-02    1.80       1.0  T
   4    -40.7895547 -0.103473E-04  0.396E-03    1.81       5.5  T
   5    -40.7895548 -0.125739E-06  0.180E-03    1.81      12.1  T
   6    -40.7895548 -0.988086E-08  0.963E-04    1.81      22.7  T
   7    -40.7895548 -0.614776E-08  0.429E-04    1.81      50.9  T
     SCC iter.                  ...        0 min,  0.005 sec
     gradient                   ...        0 min,  0.004 sec
 * total energy  :   -40.3410760 Eh     change       -0.1972926E-03 Eh
   gradient norm :     0.0059178 Eh/α   predicted    -0.1179742E-03 ( -40.20%)
   displ. norm   :     0.6506490 α      lambda       -0.6469039E-03
   maximum displ.:     0.6121911 α      in ANC's #1, #6, #10, ...

........................................................................
.............................. CYCLE   20 ..............................
........................................................................

 iter      E             dE          RMSdq      gap      omega  full diag
   1    -40.7912594 -0.407913E+02  0.180E-01    1.86       0.0  T
   2    -40.7913057 -0.463297E-04  0.107E-01    1.87       1.0  T
   3    -40.7912929  0.128309E-04  0.487E-02    1.85       1.0  T
   4    -40.7913162 -0.233670E-04  0.108E-02    1.86       2.0  T
   5    -40.7913178 -0.151832E-05  0.476E-03    1.86       4.6  T
   6    -40.7913179 -0.112768E-06  0.251E-03    1.86       8.7  T
   7    -40.7913179 -0.252599E-07  0.152E-03    1.86      14.4  T
   8    -40.7913179 -0.125153E-07  0.104E-03    1.86      20.9  T
   9    -40.7913179 -0.633140E-08  0.770E-04    1.86      28.3  T
  10    -40.7913179 -0.570525E-08  0.410E-04    1.86      53.3  T
     SCC iter.                  ...        0 min,  0.008 sec
     gradient                   ...        0 min,  0.004 sec
 * total energy  :   -40.3415460 Eh     change       -0.4699832E-03 Eh
   gradient norm :     0.0149722 Eh/α   predicted    -0.4603839E-03 (  -2.04%)
   displ. norm   :     0.6126204 α      lambda       -0.4909250E-03
   maximum displ.:     0.5720666 α      in ANC's #1, #3, #10, ...
 * RMSD in coord.:     0.6740382 α      energy gain  -0.7119725E-02 Eh

generating ANC from exact Hessian ...
Using Lindh-Hessian (1995)
 Shifting diagonal of input Hessian by    8.7541962734651747E-003
 Lowest  eigenvalues of input Hessian
    0.000000    0.000000    0.000000    0.000000    0.000000    0.000000
    0.010000    0.010601    0.013347    0.013620    0.016891    0.018446
    0.021399    0.026194    0.028538    0.029572    0.040793    0.044473
 Highest eigenvalues
    1.611170    1.775526    1.886155    1.998958    2.097072    2.371713


........................................................................
.............................. CYCLE   21 ..............................
........................................................................

 iter      E             dE          RMSdq      gap      omega  full diag
   1    -40.7854719 -0.407855E+02  0.165E-01    1.90       0.0  T
   2    -40.7855036 -0.317102E-04  0.984E-02    1.92       1.0  T
   3    -40.7854834  0.201636E-04  0.524E-02    1.92       1.0  T
   4    -40.7855173 -0.339237E-04  0.832E-03    1.92       2.6  T
   5    -40.7855180 -0.684049E-06  0.366E-03    1.92       6.0  T
   6    -40.7855181 -0.630148E-07  0.201E-03    1.92      10.9  T
   7    -40.7855181 -0.169861E-07  0.110E-03    1.92      19.9  T
   8    -40.7855181 -0.702580E-08  0.721E-04    1.92      30.3  T
   9    -40.7855181 -0.305959E-08  0.541E-04    1.92      40.3  T
     SCC iter.                  ...        0 min,  0.007 sec
     gradient                   ...        0 min,  0.004 sec
 * total energy  :   -40.3418625 Eh     change       -0.3164904E-03 Eh
   gradient norm :     0.0240056 Eh/α   predicted     0.0000000E+00 (-100.00%)
   displ. norm   :     0.1648033 α      lambda       -0.1068134E-02
   maximum displ.:     0.1258883 α      in ANC's #1, #4, #12, ...

........................................................................
.............................. CYCLE   22 ..............................
........................................................................

 iter      E             dE          RMSdq      gap      omega  full diag
   1    -40.7911844 -0.407912E+02  0.935E-02    1.90       0.0  T
   2    -40.7912070 -0.225927E-04  0.577E-02    1.92       1.0  T
   3    -40.7912075 -0.537601E-06  0.300E-02    1.92       1.0  T
   4    -40.7912131 -0.560911E-05  0.689E-03    1.93       3.2  T
   5    -40.7912141 -0.995325E-06  0.213E-03    1.92      10.2  T
   6    -40.7912141 -0.118680E-07  0.106E-03    1.92      20.7  T
   7    -40.7912141 -0.418585E-08  0.609E-04    1.92      35.8  T
   8    -40.7912141 -0.170767E-08  0.425E-04    1.92      51.4  T
     SCC iter.                  ...        0 min,  0.006 sec
     gradient                   ...        0 min,  0.004 sec
 * total energy  :   -40.3424328 Eh     change       -0.5702615E-03 Eh
   gradient norm :     0.0100841 Eh/α   predicted    -0.5486023E-03 (  -3.80%)
   displ. norm   :     0.2458847 α      lambda       -0.9700827E-03
   maximum displ.:     0.2007366 α      in ANC's #1, #4, #20, ...

........................................................................
.............................. CYCLE   23 ..............................
........................................................................

 iter      E             dE          RMSdq      gap      omega  full diag
   1    -40.7966374 -0.407966E+02  0.112E-01    1.87       0.0  T
   2    -40.7966729 -0.354569E-04  0.683E-02    1.89       1.0  T
   3    -40.7966739 -0.985270E-06  0.332E-02    1.90       1.0  T
   4    -40.7966783 -0.441348E-05  0.798E-03    1.90       2.7  T
   5    -40.7966793 -0.100685E-05  0.295E-03    1.90       7.4  T
   6    -40.7966793 -0.345823E-07  0.154E-03    1.90      14.2  T
   7    -40.7966793 -0.859415E-08  0.572E-04    1.90      38.1  T
   8    -40.7966793 -0.101499E-08  0.410E-04    1.90      53.2  T
     SCC iter.                  ...        0 min,  0.006 sec
     gradient                   ...        0 min,  0.003 sec
 * total energy  :   -40.3426237 Eh     change       -0.1909090E-03 Eh
   gradient norm :     0.0167796 Eh/α   predicted    -0.5143668E-03 ( 169.43%)
   displ. norm   :     0.1364123 α      lambda       -0.5953838E-03
   maximum displ.:     0.1249460 α      in ANC's #1, #4, #20, ...

........................................................................
.............................. CYCLE   24 ..............................
........................................................................

 iter      E             dE          RMSdq      gap      omega  full diag
   1    -40.7941129 -0.407941E+02  0.623E-02    1.94       0.0  T
   2    -40.7941189 -0.608233E-05  0.376E-02    1.94       1.0  T
   3    -40.7941181  0.796154E-06  0.162E-02    1.93       1.3  T
   4    -40.7941201 -0.199409E-05  0.289E-03    1.93       7.6  T
   5    -40.7941203 -0.153764E-06  0.122E-03    1.93      17.9  T
   6    -40.7941203 -0.596190E-08  0.552E-04    1.93      39.5  T
   7    -40.7941203 -0.666809E-09  0.215E-04    1.93     101.4  T
     SCC iter.                  ...        0 min,  0.006 sec
     gradient                   ...        0 min,  0.004 sec
 * total energy  :   -40.3430815 Eh     change       -0.4578488E-03 Eh
   gradient norm :     0.0049782 Eh/α   predicted    -0.3032349E-03 ( -33.77%)
   displ. norm   :     0.2098357 α      lambda       -0.3999014E-03
   maximum displ.:     0.1952218 α      in ANC's #1, #4, #2, ...

........................................................................
.............................. CYCLE   25 ..............................
........................................................................

 iter      E             dE          RMSdq      gap      omega  full diag
   1    -40.7918601 -0.407919E+02  0.731E-02    1.97       0.0  T
   2    -40.7918649 -0.476899E-05  0.435E-02    1.97       1.0  T
   3    -40.7918618  0.306345E-05  0.185E-02    1.97       1.2  T
   4    -40.7918664 -0.456295E-05  0.339E-03    1.97       6.4  T
   5    -40.7918666 -0.190848E-06  0.145E-03    1.97      15.1  T
   6    -40.7918666 -0.510821E-08  0.593E-04    1.97      36.8  T
   7    -40.7918666 -0.105815E-08  0.276E-04    1.97      79.1  T
     SCC iter.                  ...        0 min,  0.006 sec
     gradient                   ...        0 min,  0.004 sec
 * total energy  :   -40.3433952 Eh     change       -0.3136097E-03 Eh
   gradient norm :     0.0056656 Eh/α   predicted    -0.2087622E-03 ( -33.43%)
   displ. norm   :     0.1643160 α      lambda       -0.2376351E-03
   maximum displ.:     0.1562106 α      in ANC's #1, #2, #4, ...

........................................................................
.............................. CYCLE   26 ..............................
........................................................................

 iter      E             dE          RMSdq      gap      omega  full diag
   1    -40.7914041 -0.407914E+02  0.451E-02    1.98       0.0  T
   2    -40.7914053 -0.117054E-05  0.267E-02    1.99       1.0  T
   3    -40.7914030  0.230302E-05  0.134E-02    1.99       1.6  T
   4    -40.7914062 -0.317463E-05  0.152E-03    1.99      14.4  T
   5    -40.7914062 -0.140391E-07  0.859E-04    1.99      25.4  T
   6    -40.7914062 -0.329454E-08  0.371E-04    1.99      58.8  T
     SCC iter.                  ...        0 min,  0.005 sec
     gradient                   ...        0 min,  0.002 sec
 * total energy  :   -40.3436184 Eh     change       -0.2232183E-03 Eh
   gradient norm :     0.0078307 Eh/α   predicted    -0.1220274E-03 ( -45.33%)
   displ. norm   :     0.2081370 α      lambda       -0.3379806E-03
   maximum displ.:     0.1955594 α      in ANC's #1, #2, #6, ...

........................................................................
.............................. CYCLE   27 ..............................
........................................................................

 iter      E             dE          RMSdq      gap      omega  full diag
   1    -40.7918855 -0.407919E+02  0.519E-02    2.00       0.0  T
   2    -40.7918881 -0.261847E-05  0.306E-02    2.01       1.0  T
   3    -40.7918856  0.248445E-05  0.170E-02    2.01       1.3  T
   4    -40.7918899 -0.421193E-05  0.209E-03    2.02      10.5  T
   5    -40.7918899 -0.425659E-07  0.103E-03    2.02      21.3  T
   6    -40.7918899 -0.410636E-08  0.486E-04    2.02      44.9  T
   7    -40.7918899 -0.144960E-08  0.223E-04    2.02      97.8  T
     SCC iter.                  ...        0 min,  0.005 sec
     gradient                   ...        0 min,  0.002 sec
 * total energy  :   -40.3439419 Eh     change       -0.3235355E-03 Eh
   gradient norm :     0.0070505 Eh/α   predicted    -0.1763210E-03 ( -45.50%)
   displ. norm   :     0.3565131 α      lambda       -0.5860240E-03
   maximum displ.:     0.3326530 α      in ANC's #1, #2, #6, ...

........................................................................
.............................. CYCLE   28 ..............................
........................................................................

 iter      E             dE          RMSdq      gap      omega  full diag
   1    -40.7921470 -0.407921E+02  0.928E-02    2.04       0.0  T
   2    -40.7921547 -0.767581E-05  0.547E-02    2.06       1.0  T
   3    -40.7921462  0.846044E-05  0.305E-02    2.06       1.0  T
   4    -40.7921602 -0.139637E-04  0.342E-03    2.06       6.4  T
   5    -40.7921603 -0.875450E-07  0.187E-03    2.06      11.7  T
   6    -40.7921603 -0.157712E-07  0.967E-04    2.06      22.6  T
   7    -40.7921603 -0.572894E-08  0.496E-04    2.06      44.0  T
     SCC iter.                  ...        0 min,  0.005 sec
     gradient                   ...        0 min,  0.002 sec
 * total energy  :   -40.3444898 Eh     change       -0.5478749E-03 Eh
   gradient norm :     0.0067119 Eh/α   predicted    -0.3302558E-03 ( -39.72%)
   displ. norm   :     0.5248462 α      lambda       -0.8202598E-03
   maximum displ.:     0.4929850 α      in ANC's #1, #2, #6, ...

........................................................................
.............................. CYCLE   29 ..............................
........................................................................

 iter      E             dE          RMSdq      gap      omega  full diag
   1    -40.7913864 -0.407914E+02  0.140E-01    2.10       0.0  T
   2    -40.7914072 -0.208559E-04  0.823E-02    2.13       1.0  T
   3    -40.7913906  0.166309E-04  0.475E-02    2.13       1.0  T
   4    -40.7914218 -0.312492E-04  0.539E-03    2.14       4.0  T
   5    -40.7914220 -0.213755E-06  0.291E-03    2.14       7.5  T
   6    -40.7914221 -0.482543E-07  0.154E-03    2.14      14.2  T
   7    -40.7914221 -0.146352E-07  0.792E-04    2.14      27.5  T
   8    -40.7914221 -0.255817E-08  0.569E-04    2.14      38.3  T
     SCC iter.                  ...        0 min,  0.005 sec
     gradient                   ...        0 min,  0.002 sec
 * total energy  :   -40.3451673 Eh     change       -0.6774901E-03 Eh
   gradient norm :     0.0085960 Eh/α   predicted    -0.5231120E-03 ( -22.79%)
   displ. norm   :     0.5384242 α      lambda       -0.6781735E-03
   maximum displ.:     0.5114071 α      in ANC's #1, #2, #5, ...

........................................................................
.............................. CYCLE   30 ..............................
........................................................................

 iter      E             dE          RMSdq      gap      omega  full diag
   1    -40.7905641 -0.407906E+02  0.150E-01    2.17       0.0  T
   2    -40.7905972 -0.331508E-04  0.882E-02    2.21       1.0  T
   3    -40.7905835  0.136897E-04  0.523E-02    2.22       1.0  T
   4    -40.7906165 -0.329762E-04  0.688E-03    2.23       3.2  T
   5    -40.7906170 -0.466706E-06  0.312E-03    2.23       7.0  T
   6    -40.7906170 -0.588141E-07  0.161E-03    2.22      13.6  T
   7    -40.7906170 -0.182096E-07  0.599E-04    2.22      36.4  T
   8    -40.7906171 -0.120891E-08  0.383E-04    2.22      56.9  T
     SCC iter.                  ...        0 min,  0.005 sec
     gradient                   ...        0 min,  0.002 sec
 * total energy  :   -40.3455483 Eh     change       -0.3810046E-03 Eh
   gradient norm :     0.0102939 Eh/α   predicted    -0.4373921E-03 (  14.80%)
   displ. norm   :     0.1119801 α      lambda       -0.3201724E-03
   maximum displ.:     0.0578462 α      in ANC's #1, #2, #3, ...

........................................................................
.............................. CYCLE   31 ..............................
........................................................................

 iter      E             dE          RMSdq      gap      omega  full diag
   1    -40.7950286 -0.407950E+02  0.523E-02    2.19       0.0  T
   2    -40.7950363 -0.769026E-05  0.310E-02    2.20       1.0  T
   3    -40.7950360  0.317376E-06  0.160E-02    2.20       1.4  T
   4    -40.7950377 -0.171820E-05  0.457E-03    2.20       4.8  T
   5    -40.7950381 -0.355954E-06  0.144E-03    2.20      15.2  T
   6    -40.7950381 -0.782830E-08  0.781E-04    2.20      27.9  T
   7    -40.7950381 -0.254381E-08  0.338E-04    2.20      64.6  T
     SCC iter.                  ...        0 min,  0.005 sec
     gradient                   ...        0 min,  0.002 sec
 * total energy  :   -40.3457652 Eh     change       -0.2169015E-03 Eh
   gradient norm :     0.0051368 Eh/α   predicted    -0.1621015E-03 ( -25.26%)
   displ. norm   :     0.2796771 α      lambda       -0.3965690E-03
   maximum displ.:     0.2000210 α      in ANC's #1, #3, #2, ...

........................................................................
.............................. CYCLE   32 ..............................
........................................................................

 iter      E             dE          RMSdq      gap      omega  full diag
   1    -40.7955980 -0.407956E+02  0.100E-01    2.19       0.0  T
   2    -40.7956214 -0.233913E-04  0.587E-02    2.21       1.0  T
   3    -40.7956193  0.211191E-05  0.294E-02    2.20       1.0  T
   4    -40.7956254 -0.610932E-05  0.748E-03    2.20       2.9  T
   5    -40.7956263 -0.863364E-06  0.251E-03    2.20       8.7  T
   6    -40.7956263 -0.234479E-07  0.137E-03    2.20      16.0  T
   7    -40.7956263 -0.791867E-08  0.670E-04    2.20      32.6  T
   8    -40.7956263 -0.262202E-08  0.392E-04    2.20      55.6  T
     SCC iter.                  ...        0 min,  0.005 sec
     gradient                   ...        0 min,  0.002 sec
 * total energy  :   -40.3459974 Eh     change       -0.2322247E-03 Eh
   gradient norm :     0.0086814 Eh/α   predicted    -0.2138011E-03 (  -7.93%)
   displ. norm   :     0.1967432 α      lambda       -0.1993732E-03
   maximum displ.:     0.1379980 α      in ANC's #1, #3, #2, ...

........................................................................
.............................. CYCLE   33 ..............................
........................................................................

 iter      E             dE          RMSdq      gap      omega  full diag
   1    -40.7954631 -0.407955E+02  0.701E-02    2.18       0.0  T
   2    -40.7954710 -0.785439E-05  0.409E-02    2.19       1.0  T
   3    -40.7954686  0.237918E-05  0.211E-02    2.19       1.0  T
   4    -40.7954728 -0.421728E-05  0.434E-03    2.19       5.0  T
   5    -40.7954731 -0.239510E-06  0.152E-03    2.19      14.3  T
   6    -40.7954731 -0.856164E-08  0.931E-04    2.19      23.4  T
   7    -40.7954731 -0.416434E-08  0.468E-04    2.19      46.7  T
     SCC iter.                  ...        0 min,  0.005 sec
     gradient                   ...        0 min,  0.002 sec
 * total energy  :   -40.3461347 Eh     change       -0.1372760E-03 Eh
   gradient norm :     0.0047713 Eh/α   predicted    -0.1035496E-03 ( -24.57%)
   displ. norm   :     0.2273145 α      lambda       -0.1341319E-03
   maximum displ.:     0.1634687 α      in ANC's #1, #3, #2, ...

........................................................................
.............................. CYCLE   34 ..............................
........................................................................

 iter      E             dE          RMSdq      gap      omega  full diag
   1    -40.7944639 -0.407945E+02  0.813E-02    2.18       0.0  T
   2    -40.7944731 -0.913997E-05  0.477E-02    2.20       1.0  T
   3    -40.7944698  0.324095E-05  0.247E-02    2.19       1.0  T
   4    -40.7944753 -0.549935E-05  0.468E-03    2.19       4.7  T
   5    -40.7944756 -0.235973E-06  0.184E-03    2.19      11.8  T
   6    -40.7944756 -0.110288E-07  0.122E-03    2.19      17.9  T
   7    -40.7944756 -0.788054E-08  0.679E-04    2.19      32.1  T
   8    -40.7944756 -0.262966E-08  0.466E-04    2.19      46.9  T
     SCC iter.                  ...        0 min,  0.005 sec
     gradient                   ...        0 min,  0.002 sec
 * total energy  :   -40.3462250 Eh     change       -0.9030243E-04 Eh
   gradient norm :     0.0059839 Eh/α   predicted    -0.7053899E-04 ( -21.89%)
   displ. norm   :     0.1839729 α      lambda       -0.1303144E-03
   maximum displ.:     0.1187617 α      in ANC's #2, #1, #3, ...

........................................................................
.............................. CYCLE   35 ..............................
........................................................................

 iter      E             dE          RMSdq      gap      omega  full diag
   1    -40.7953212 -0.407953E+02  0.822E-02    2.17       0.0  T
   2    -40.7953315 -0.102560E-04  0.481E-02    2.18       1.0  T
   3    -40.7953283  0.320357E-05  0.266E-02    2.18       1.0  T
   4    -40.7953347 -0.646885E-05  0.483E-03    2.18       4.5  T
   5    -40.7953350 -0.226656E-06  0.203E-03    2.18      10.8  T
   6    -40.7953350 -0.152915E-07  0.136E-03    2.18      16.0  T
   7    -40.7953350 -0.912143E-08  0.789E-04    2.18      27.7  T
   8    -40.7953350 -0.335663E-08  0.542E-04    2.18      40.3  T
     SCC iter.                  ...        0 min,  0.005 sec
     gradient                   ...        0 min,  0.002 sec
 * total energy  :   -40.3463129 Eh     change       -0.8796577E-04 Eh
   gradient norm :     0.0041871 Eh/α   predicted    -0.6736330E-04 ( -23.42%)
   displ. norm   :     0.2495116 α      lambda       -0.1313251E-03
   maximum displ.:     0.1505939 α      in ANC's #1, #2, #3, ...

........................................................................
.............................. CYCLE   36 ..............................
........................................................................

 iter      E             dE          RMSdq      gap      omega  full diag
   1    -40.7943734 -0.407944E+02  0.113E-01    2.17       0.0  T
   2    -40.7943893 -0.158794E-04  0.667E-02    2.19       1.0  T
   3    -40.7943812  0.808262E-05  0.355E-02    2.18       1.0  T
   4    -40.7943951 -0.138652E-04  0.597E-03    2.19       3.7  T
   5    -40.7943954 -0.375517E-06  0.267E-03    2.19       8.2  T
   6    -40.7943955 -0.253530E-07  0.175E-03    2.19      12.5  T
   7    -40.7943955 -0.139734E-07  0.954E-04    2.19      22.9  T
   8    -40.7943955 -0.491487E-08  0.649E-04    2.19      33.6  T
     SCC iter.                  ...        0 min,  0.005 sec
     gradient                   ...        0 min,  0.002 sec
 * total energy  :   -40.3464105 Eh     change       -0.9754654E-04 Eh
   gradient norm :     0.0052541 Eh/α   predicted    -0.6975441E-04 ( -28.49%)
   displ. norm   :     0.2776849 α      lambda       -0.2074834E-03
   maximum displ.:     0.1877633 α      in ANC's #2, #7, #10, ...

........................................................................
.............................. CYCLE   37 ..............................
........................................................................

 iter      E             dE          RMSdq      gap      omega  full diag
   1    -40.7954401 -0.407954E+02  0.151E-01    2.17       0.0  T
   2    -40.7954611 -0.210707E-04  0.887E-02    2.19       1.0  T
   3    -40.7954414  0.197319E-04  0.470E-02    2.19       1.0  T
   4    -40.7954721 -0.307273E-04  0.633E-03    2.19       3.4  T
   5    -40.7954724 -0.313098E-06  0.324E-03    2.19       6.7  T
   6    -40.7954725 -0.339475E-07  0.204E-03    2.19      10.7  T
   7    -40.7954725 -0.209749E-07  0.100E-03    2.19      21.7  T
   8    -40.7954725 -0.456589E-08  0.667E-04    2.19      32.7  T
   9    -40.7954725 -0.259858E-08  0.493E-04    2.19      44.3  T
     SCC iter.                  ...        0 min,  0.006 sec
     gradient                   ...        0 min,  0.002 sec
 * total energy  :   -40.3465396 Eh     change       -0.1291387E-03 Eh
   gradient norm :     0.0069972 Eh/α   predicted    -0.1117426E-03 ( -13.47%)
   displ. norm   :     0.1243565 α      lambda       -0.1179393E-03
   maximum displ.:     0.0652949 α      in ANC's #7, #2, #3, ...

........................................................................
.............................. CYCLE   38 ..............................
........................................................................

 iter      E             dE          RMSdq      gap      omega  full diag
   1    -40.7960847 -0.407961E+02  0.701E-02    2.19       0.0  T
   2    -40.7960878 -0.309956E-05  0.412E-02    2.20       1.0  T
   3    -40.7960825  0.520882E-05  0.195E-02    2.20       1.1  T
   4    -40.7960895 -0.699053E-05  0.271E-03    2.20       8.0  T
   5    -40.7960896 -0.626437E-07  0.144E-03    2.20      15.2  T
   6    -40.7960896 -0.726312E-08  0.749E-04    2.20      29.1  T
   7    -40.7960896 -0.217801E-08  0.395E-04    2.20      55.2  T
     SCC iter.                  ...        0 min,  0.005 sec
     gradient                   ...        0 min,  0.002 sec
 * total energy  :   -40.3466237 Eh     change       -0.8403487E-04 Eh
   gradient norm :     0.0052713 Eh/α   predicted    -0.5989754E-04 ( -28.72%)
   displ. norm   :     0.1947080 α      lambda       -0.1415603E-03
   maximum displ.:     0.1029140 α      in ANC's #2, #7, #9, ...

........................................................................
.............................. CYCLE   39 ..............................
........................................................................

 iter      E             dE          RMSdq      gap      omega  full diag
   1    -40.7953830 -0.407954E+02  0.117E-01    2.20       0.0  T
   2    -40.7953880 -0.494127E-05  0.684E-02    2.21       1.0  T
   3    -40.7953782  0.973293E-05  0.244E-02    2.20       1.0  T
   4    -40.7953906 -0.123485E-04  0.390E-03    2.20       5.6  T
   5    -40.7953907 -0.118541E-06  0.234E-03    2.20       9.3  T
   6    -40.7953907 -0.172796E-07  0.114E-03    2.20      19.1  T
   7    -40.7953907 -0.492731E-08  0.633E-04    2.20      34.5  T
   8    -40.7953907 -0.272747E-08  0.456E-04    2.20      47.8  T
     SCC iter.                  ...        0 min,  0.005 sec
     gradient                   ...        0 min,  0.002 sec
 * total energy  :   -40.3467135 Eh     change       -0.8979270E-04 Eh
   gradient norm :     0.0076820 Eh/α   predicted    -0.7347395E-04 ( -18.17%)
   displ. norm   :     0.1684817 α      lambda       -0.1650802E-03
   maximum displ.:     0.1246039 α      in ANC's #3, #1, #4, ...

........................................................................
.............................. CYCLE   40 ..............................
........................................................................

 iter      E             dE          RMSdq      gap      omega  full diag
   1    -40.7971866 -0.407972E+02  0.796E-02    2.20       0.0  T
   2    -40.7971942 -0.761586E-05  0.470E-02    2.20       1.0  T
   3    -40.7971923  0.186106E-05  0.202E-02    2.21       1.1  T
   4    -40.7971958 -0.347620E-05  0.429E-03    2.21       5.1  T
   5    -40.7971960 -0.179359E-06  0.240E-03    2.21       9.1  T
   6    -40.7971960 -0.226136E-07  0.173E-03    2.21      12.6  T
   7    -40.7971960 -0.181617E-07  0.110E-03    2.21      19.8  T
   8    -40.7971960 -0.810516E-08  0.777E-04    2.21      28.1  T
   9    -40.7971960 -0.603982E-08  0.402E-04    2.21      54.2  T
     SCC iter.                  ...        0 min,  0.006 sec
     gradient                   ...        0 min,  0.002 sec
 * total energy  :   -40.3467686 Eh     change       -0.5514656E-04 Eh
   gradient norm :     0.0069015 Eh/α   predicted    -0.8488398E-04 (  53.92%)
   displ. norm   :     0.1975903 α      lambda       -0.1359920E-03
   maximum displ.:     0.1080236 α      in ANC's #1, #2, #10, ...

........................................................................
.............................. CYCLE   41 ..............................
........................................................................

 iter      E             dE          RMSdq      gap      omega  full diag
   1    -40.7941035 -0.407941E+02  0.107E-01    2.22       0.0  T
   2    -40.7941111 -0.755299E-05  0.631E-02    2.23       1.0  T
   3    -40.7941021  0.897635E-05  0.271E-02    2.22       1.0  T
   4    -40.7941143 -0.122028E-04  0.457E-03    2.22       4.8  T
   5    -40.7941146 -0.286879E-06  0.224E-03    2.22       9.8  T
   6    -40.7941146 -0.124474E-07  0.115E-03    2.22      19.0  T
   7    -40.7941146 -0.428150E-08  0.620E-04    2.22      35.2  T
   8    -40.7941146 -0.255366E-08  0.412E-04    2.22      53.0  T
     SCC iter.                  ...        0 min,  0.005 sec
     gradient                   ...        0 min,  0.002 sec
 * total energy  :   -40.3468495 Eh     change       -0.8086120E-04 Eh
   gradient norm :     0.0085760 Eh/α   predicted    -0.7065139E-04 ( -12.63%)
   displ. norm   :     0.0788290 α      lambda       -0.1073170E-03
   maximum displ.:     0.0446957 α      in ANC's #1, #4, #2, ...

........................................................................
.............................. CYCLE   42 ..............................
........................................................................

 iter      E             dE          RMSdq      gap      omega  full diag
   1    -40.7943969 -0.407944E+02  0.379E-02    2.22       0.0  T
   2    -40.7943991 -0.220831E-05  0.223E-02    2.22       1.0  T
   3    -40.7943987  0.393807E-06  0.877E-03    2.22       2.5  T
   4    -40.7943993 -0.600755E-06  0.268E-03    2.22       8.1  T
   5    -40.7943994 -0.129701E-06  0.925E-04    2.22      23.6  T
   6    -40.7943994 -0.208680E-08  0.629E-04    2.22      34.7  T
     SCC iter.                  ...        0 min,  0.004 sec
     gradient                   ...        0 min,  0.002 sec
 * total energy  :   -40.3469293 Eh     change       -0.7981319E-04 Eh
   gradient norm :     0.0073030 Eh/α   predicted    -0.5399494E-04 ( -32.35%)
   displ. norm   :     0.1575276 α      lambda       -0.1806784E-03
   maximum displ.:     0.1130299 α      in ANC's #4, #1, #39, ...
 * RMSD in coord.:     0.8034484 α      energy gain  -0.5383247E-02 Eh

generating ANC from exact Hessian ...
Using Lindh-Hessian (1995)
 Shifting diagonal of input Hessian by    9.2182570637357186E-003
 Lowest  eigenvalues of input Hessian
    0.000000    0.000000    0.000000    0.000000    0.000000    0.000000
    0.010000    0.011250    0.013679    0.014715    0.017406    0.018913
    0.022019    0.026533    0.030020    0.030549    0.042429    0.044787
 Highest eigenvalues
    1.637851    1.804711    1.892889    1.998619    2.106208    2.422588


........................................................................
.............................. CYCLE   43 ..............................
........................................................................

 iter      E             dE          RMSdq      gap      omega  full diag
   1    -40.7949360 -0.407949E+02  0.975E-02    2.25       0.0  T
   2    -40.7949438 -0.781817E-05  0.581E-02    2.25       1.0  T
   3    -40.7949386  0.524623E-05  0.199E-02    2.24       1.1  T
   4    -40.7949454 -0.677488E-05  0.490E-03    2.25       4.5  T
   5    -40.7949459 -0.494279E-06  0.187E-03    2.25      11.7  T
   6    -40.7949459 -0.733219E-08  0.106E-03    2.25      20.6  T
   7    -40.7949459 -0.564466E-08  0.499E-04    2.25      43.7  T
   8    -40.7949459 -0.118235E-08  0.350E-04    2.25      62.3  T
     SCC iter.                  ...        0 min,  0.005 sec
     gradient                   ...        0 min,  0.002 sec
 * total energy  :   -40.3470383 Eh     change       -0.1090314E-03 Eh
   gradient norm :     0.0107204 Eh/α   predicted     0.0000000E+00 (-100.00%)
   displ. norm   :     0.0765764 α      lambda       -0.1696936E-03
   maximum displ.:     0.0436529 α      in ANC's #7, #3, #4, ...

........................................................................
.............................. CYCLE   44 ..............................
........................................................................

 iter      E             dE          RMSdq      gap      omega  full diag
   1    -40.7964796 -0.407965E+02  0.609E-02    2.24       0.0  T
   2    -40.7964848 -0.520048E-05  0.357E-02    2.24       1.0  T
   3    -40.7964834  0.142384E-05  0.150E-02    2.25       1.5  T
   4    -40.7964859 -0.251955E-05  0.337E-03    2.25       6.5  T
   5    -40.7964861 -0.187465E-06  0.134E-03    2.25      16.3  T
   6    -40.7964861 -0.823447E-08  0.766E-04    2.25      28.5  T
   7    -40.7964861 -0.203104E-08  0.447E-04    2.25      48.8  T
     SCC iter.                  ...        0 min,  0.005 sec
     gradient                   ...        0 min,  0.002 sec
 * total energy  :   -40.3471930 Eh     change       -0.1547057E-03 Eh
   gradient norm :     0.0038873 Eh/α   predicted    -0.1053107E-03 ( -31.93%)
   displ. norm   :     0.2055772 α      lambda       -0.3240037E-03
   maximum displ.:     0.1293412 α      in ANC's #7, #4, #3, ...

........................................................................
.............................. CYCLE   45 ..............................
........................................................................

 iter      E             dE          RMSdq      gap      omega  full diag
   1    -40.7973445 -0.407973E+02  0.160E-01    2.25       0.0  T
   2    -40.7973610 -0.164965E-04  0.922E-02    2.25       1.0  T
   3    -40.7973546  0.643439E-05  0.244E-02    2.26       1.0  T
   4    -40.7973631 -0.856653E-05  0.731E-03    2.26       3.0  T
   5    -40.7973641 -0.955420E-06  0.281E-03    2.26       7.8  T
   6    -40.7973641 -0.143329E-07  0.134E-03    2.26      16.3  T
   7    -40.7973641 -0.624542E-08  0.687E-04    2.26      31.8  T
   8    -40.7973641 -0.323349E-08  0.458E-04    2.26      47.7  T
     SCC iter.                  ...        0 min,  0.005 sec
     gradient                   ...        0 min,  0.002 sec
 * total energy  :   -40.3473468 Eh     change       -0.1538085E-03 Eh
   gradient norm :     0.0087525 Eh/α   predicted    -0.1688487E-03 (   9.78%)
   displ. norm   :     0.2769860 α      lambda       -0.3697717E-03
   maximum displ.:     0.1728965 α      in ANC's #7, #4, #3, ...

........................................................................
.............................. CYCLE   46 ..............................
........................................................................

 iter      E             dE          RMSdq      gap      omega  full diag
   1    -40.7941676 -0.407942E+02  0.216E-01    2.30       0.0  T
   2    -40.7941921 -0.245020E-04  0.127E-01    2.30       1.0  T
   3    -40.7941646  0.275290E-04  0.439E-02    2.30       1.0  T
   4    -40.7942008 -0.362098E-04  0.789E-03    2.30       2.8  T
   5    -40.7942016 -0.853826E-06  0.418E-03    2.30       5.2  T
   6    -40.7942017 -0.558395E-07  0.218E-03    2.30      10.0  T
   7    -40.7942017 -0.161646E-07  0.105E-03    2.30      20.8  T
   8    -40.7942017 -0.832491E-08  0.789E-04    2.30      27.7  T
   9    -40.7942017 -0.432352E-08  0.535E-04    2.30      40.8  T
     SCC iter.                  ...        0 min,  0.006 sec
     gradient                   ...        0 min,  0.002 sec
 * total energy  :   -40.3474668 Eh     change       -0.1199858E-03 Eh
   gradient norm :     0.0136248 Eh/α   predicted    -0.1990733E-03 (  65.91%)
   displ. norm   :     0.1036139 α      lambda       -0.2537620E-03
   maximum displ.:     0.0554891 α      in ANC's #7, #4, #3, ...

........................................................................
.............................. CYCLE   47 ..............................
........................................................................

 iter      E             dE          RMSdq      gap      omega  full diag
   1    -40.7971393 -0.407971E+02  0.834E-02    2.28       0.0  T
   2    -40.7971509 -0.115978E-04  0.493E-02    2.29       1.0  T
   3    -40.7971495  0.141530E-05  0.213E-02    2.29       1.0  T
   4    -40.7971532 -0.374371E-05  0.417E-03    2.29       5.2  T
   5    -40.7971535 -0.297654E-06  0.163E-03    2.29      13.4  T
   6    -40.7971535 -0.851680E-08  0.864E-04    2.29      25.2  T
   7    -40.7971535 -0.193243E-08  0.283E-04    2.29      77.0  T
     SCC iter.                  ...        0 min,  0.005 sec
     gradient                   ...        0 min,  0.002 sec
 * total energy  :   -40.3475784 Eh     change       -0.1116301E-03 Eh
   gradient norm :     0.0027750 Eh/α   predicted    -0.1282632E-03 (  14.90%)
   displ. norm   :     0.0901579 α      lambda       -0.9640233E-04
   maximum displ.:     0.0554881 α      in ANC's #7, #4, #9, ...

........................................................................
.............................. CYCLE   48 ..............................
........................................................................

 iter      E             dE          RMSdq      gap      omega  full diag
   1    -40.7971400 -0.407971E+02  0.650E-02    2.30       0.0  T
   2    -40.7971416 -0.155420E-05  0.381E-02    2.30       1.0  T
   3    -40.7971373  0.427673E-05  0.155E-02    2.30       1.4  T
   4    -40.7971427 -0.539956E-05  0.205E-03    2.31      10.6  T
   5    -40.7971427 -0.294123E-07  0.126E-03    2.31      17.3  T
   6    -40.7971427 -0.570269E-08  0.546E-04    2.31      39.9  T
   7    -40.7971427 -0.140452E-08  0.253E-04    2.31      86.3  T
     SCC iter.                  ...        0 min,  0.005 sec
     gradient                   ...        0 min,  0.002 sec
 * total energy  :   -40.3476599 Eh     change       -0.8144916E-04 Eh
   gradient norm :     0.0026324 Eh/α   predicted    -0.4859476E-04 ( -40.34%)
   displ. norm   :     0.2787821 α      lambda       -0.2146541E-03
   maximum displ.:     0.1671491 α      in ANC's #7, #4, #9, ...

........................................................................
.............................. CYCLE   49 ..............................
........................................................................

 iter      E             dE          RMSdq      gap      omega  full diag
   1    -40.7946458 -0.407946E+02  0.199E-01    2.35       0.0  T
   2    -40.7946691 -0.233662E-04  0.117E-01    2.37       1.0  T
   3    -40.7946329  0.362238E-04  0.499E-02    2.37       1.0  T
   4    -40.7946812 -0.482835E-04  0.809E-03    2.38       2.7  T
   5    -40.7946821 -0.915460E-06  0.437E-03    2.38       5.0  T
   6    -40.7946822 -0.618337E-07  0.212E-03    2.38      10.3  T
   7    -40.7946822 -0.209259E-07  0.126E-03    2.38      17.4  T
   8    -40.7946822 -0.884013E-08  0.928E-04    2.38      23.5  T
   9    -40.7946822 -0.617672E-08  0.621E-04    2.38      35.2  T
     SCC iter.                  ...        0 min,  0.006 sec
     gradient                   ...        0 min,  0.002 sec
 * total energy  :   -40.3477032 Eh     change       -0.4330425E-04 Eh
   gradient norm :     0.0126348 Eh/α   predicted    -0.1156547E-03 ( 167.07%)
   displ. norm   :     0.1003546 α      lambda       -0.1885649E-03
   maximum displ.:     0.0630571 α      in ANC's #7, #4, #3, ...

........................................................................
.............................. CYCLE   50 ..............................
........................................................................

 iter      E             dE          RMSdq      gap      omega  full diag
   1    -40.7971732 -0.407972E+02  0.807E-02    2.35       0.0  T
   2    -40.7971837 -0.105039E-04  0.479E-02    2.35       1.0  T
   3    -40.7971818  0.189517E-05  0.220E-02    2.35       1.0  T
   4    -40.7971863 -0.449919E-05  0.450E-03    2.35       4.8  T
   5    -40.7971867 -0.424553E-06  0.171E-03    2.35      12.8  T
   6    -40.7971867 -0.584252E-08  0.782E-04    2.35      27.9  T
   7    -40.7971867 -0.193746E-08  0.298E-04    2.35      73.3  T
     SCC iter.                  ...        0 min,  0.005 sec
     gradient                   ...        0 min,  0.002 sec
 * total energy  :   -40.3477809 Eh     change       -0.7769665E-04 Eh
   gradient norm :     0.0022883 Eh/α   predicted    -0.9526336E-04 (  22.61%)
   displ. norm   :     0.0648460 α      lambda       -0.3600484E-04
   maximum displ.:     0.0366984 α      in ANC's #1, #7, #4, ...

........................................................................
.............................. CYCLE   51 ..............................
........................................................................

 iter      E             dE          RMSdq      gap      omega  full diag
   1    -40.7971167 -0.407971E+02  0.391E-02    2.35       0.0  T
   2    -40.7971170 -0.348136E-06  0.228E-02    2.36       1.0  T
   3    -40.7971165  0.572392E-06  0.565E-03    2.36       3.9  T
   4    -40.7971172 -0.744589E-06  0.125E-03    2.36      17.5  T
   5    -40.7971172 -0.865241E-08  0.751E-04    2.36      29.1  T
   6    -40.7971172 -0.252224E-08  0.393E-04    2.36      55.5  T
     SCC iter.                  ...        0 min,  0.004 sec
     gradient                   ...        0 min,  0.002 sec
 * total energy  :   -40.3478131 Eh     change       -0.3218478E-04 Eh
   gradient norm :     0.0019147 Eh/α   predicted    -0.1807033E-04 ( -43.85%)
   displ. norm   :     0.3196448 α      lambda       -0.1001515E-03
   maximum displ.:     0.1818296 α      in ANC's #1, #7, #4, ...

........................................................................
.............................. CYCLE   52 ..............................
........................................................................

 iter      E             dE          RMSdq      gap      omega  full diag
   1    -40.7950464 -0.407950E+02  0.196E-01    2.39       0.0  T
   2    -40.7950595 -0.130353E-04  0.114E-01    2.41       1.0  T
   3    -40.7950472  0.122298E-04  0.291E-02    2.41       1.0  T
   4    -40.7950637 -0.164747E-04  0.703E-03    2.42       3.1  T
   5    -40.7950643 -0.545753E-06  0.420E-03    2.42       5.2  T
   6    -40.7950643 -0.908905E-07  0.211E-03    2.42      10.4  T
   7    -40.7950644 -0.195035E-07  0.128E-03    2.41      17.1  T
   8    -40.7950644 -0.906929E-08  0.970E-04    2.42      22.5  T
   9    -40.7950644 -0.660785E-08  0.654E-04    2.42      33.4  T
     SCC iter.                  ...        0 min,  0.026 sec
     gradient                   ...        0 min,  0.008 sec
 * total energy  :   -40.3478463 Eh     change       -0.3322634E-04 Eh
   gradient norm :     0.0087681 Eh/α   predicted    -0.5213830E-04 (  56.92%)
   displ. norm   :     0.0568321 α      lambda       -0.8518274E-04
   maximum displ.:     0.0350960 α      in ANC's #7, #4, #2, ...

........................................................................
.............................. CYCLE   53 ..............................
........................................................................

 iter      E             dE          RMSdq      gap      omega  full diag
   1    -40.7968733 -0.407969E+02  0.446E-02    2.40       0.0  T
   2    -40.7968778 -0.446983E-05  0.265E-02    2.39       1.0  T
   3    -40.7968776  0.122239E-06  0.132E-02    2.40       1.7  T
   4    -40.7968788 -0.119783E-05  0.298E-03    2.39       7.3  T
   5    -40.7968790 -0.194037E-06  0.103E-03    2.39      21.1  T
   6    -40.7968790 -0.207514E-08  0.510E-04    2.39      42.8  T
   7    -40.7968790 -0.109398E-08  0.219E-04    2.39      99.8  T
     SCC iter.                  ...        0 min,  0.007 sec
     gradient                   ...        0 min,  0.005 sec
 * total energy  :   -40.3478915 Eh     change       -0.4520307E-04 Eh
   gradient norm :     0.0022888 Eh/α   predicted    -0.4297353E-04 (  -4.93%)
   displ. norm   :     0.0348655 α      lambda       -0.1324500E-04
   maximum displ.:     0.0253774 α      in ANC's #1, #2, #7, ...

........................................................................
.............................. CYCLE   54 ..............................
........................................................................

 iter      E             dE          RMSdq      gap      omega  full diag
   1    -40.7972826 -0.407973E+02  0.177E-02    2.39       0.0  T
   2    -40.7972832 -0.596969E-06  0.103E-02    2.39       2.1  T
   3    -40.7972831  0.119322E-06  0.498E-03    2.39       4.4  T
   4    -40.7972833 -0.229098E-06  0.122E-03    2.39      17.9  T
   5    -40.7972833 -0.285688E-07  0.318E-04    2.39      68.6  T
   6    -40.7972833 -0.247631E-09  0.208E-04    2.39     104.8  T
     SCC iter.                  ...        0 min,  0.004 sec
     gradient                   ...        0 min,  0.002 sec
 * total energy  :   -40.3479012 Eh     change       -0.9686055E-05 Eh
   gradient norm :     0.0017316 Eh/α   predicted    -0.6547260E-05 ( -32.41%)
   displ. norm   :     0.1244620 α      lambda       -0.1908179E-04
   maximum displ.:     0.0848765 α      in ANC's #1, #7, #2, ...

........................................................................
.............................. CYCLE   55 ..............................
........................................................................

 iter      E             dE          RMSdq      gap      omega  full diag
   1    -40.7978395 -0.407978E+02  0.650E-02    2.38       0.0  T
   2    -40.7978408 -0.128191E-05  0.382E-02    2.39       1.0  T
   3    -40.7978376  0.314924E-05  0.131E-02    2.39       1.7  T
   4    -40.7978415 -0.392058E-05  0.182E-03    2.39      12.0  T
   5    -40.7978415 -0.104890E-07  0.923E-04    2.39      23.6  T
   6    -40.7978415 -0.230670E-08  0.460E-04    2.39      47.4  T
     SCC iter.                  ...        0 min,  0.004 sec
[...]
   maximum displ.:     0.0165846 α      in ANC's #5, #2, #6, ...

   *** GEOMETRY OPTIMIZATION CONVERGED AFTER 57 ITERATIONS ***

------------------------------------------------------------------------
 total energy gain   :        -0.0134960 Eh       -8.4689 kcal/mol
 total RMSD          :         1.3788219 a0        0.7296 Å
 total power (kW/mol):        -0.6216449 (step)  -46.1190 (real)
------------------------------------------------------------------------

 ANCopt (total)                0 d,  0 h,  0 min,  0.768 sec
 optimizer setup                ...        0 min,  0.000 sec (  0.009%)
 model hessian                  ...        0 min,  0.019 sec (  2.527%)
 ANC generation                 ...        0 min,  0.001 sec (  0.138%)
 coordinate transformation      ...        0 min,  0.000 sec (  0.054%)
 single point calculation       ...        0 min,  0.730 sec ( 95.061%)
 optimization log               ...        0 min,  0.004 sec (  0.495%)
 hessian update                 ...        0 min,  0.006 sec (  0.734%)
 rational function              ...        0 min,  0.006 sec (  0.724%)

================
 final structure:
================
21
 xtb: 6.7.1 (edcfbbe)
Cl           2.31493395146741        0.20147483834415        0.22850409700478
C            0.61104353662692       -0.12721734778034        0.11483407224787
C           -0.26700829806769        0.91594282294520       -0.11717530415510
C           -1.62924985396643        0.69677352788362       -0.23189545313420
C           -2.12052652474978       -0.61527160977032       -0.06695301296048
O           -3.38943878173484       -1.02806343174816       -0.30232824476989
C           -4.49168247502499       -0.33397189795702        0.26015498117316
C           -4.17968668109485        0.25689006570813        1.71282257204289
O           -5.08240928840554        0.96441399735055        2.16623157671750
O           -3.08300182118425       -0.06040813492420        2.17743872352342
C           -1.20186013300181       -1.65168217869853        0.14064911280583
C            0.15410377426174       -1.42429901504393        0.23695697383392
C           -2.52085708656714        1.86657393708106       -0.52687811399530
H            0.11958318774391        1.92028811015918       -0.22134962580419
H           -4.85066666243033        0.47237869347481       -0.38956932599306
H           -5.28770766664448       -1.07958201377090        0.35256114664072
H           -1.59354831256012       -2.65195059104630        0.24272511394053
H            0.84254048778411       -2.23760740687958        0.41300562436213
H           -3.17429519611239        2.06277560279728        0.32170727248802
H           -1.92456976023480        2.75749915866680       -0.71840339823410
H           -3.14059639610657        1.66865287320736       -1.40110878773480

 Bond Distances (Angstroems)
 ---------------------------
Cl1-C2=1.7390        C2-Cl1=1.7390        C2-C3=1.3831         C2-C12=1.3806        C3-C2=1.3831         C3-C4=1.3845         
C3-H14=1.0812        C4-C3=1.3845         C4-C5=1.4107         C4-C13=1.5001        C5-C4=1.4107         C5-O6=1.3550         
C5-C11=1.4004        O6-C5=1.3550         O6-C7=1.4188         C7-O6=1.4188         C7-C8=1.5990         C7-H15=1.0960        
C7-H16=1.0946        C8-C7=1.5990         C8-O9=1.2333         C8-O10=1.2326        O9-C8=1.2333         O10-C8=1.2326        
C11-C5=1.4004        C11-C12=1.3783       C11-H17=1.0791       C12-C2=1.3806        C12-C11=1.3783       C12-H18=1.0800       
C13-C4=1.5001        C13-H19=1.0888       C13-H20=1.0890       C13-H21=1.0897       H14-C3=1.0812        H15-C7=1.0960        
H16-C7=1.0946        H17-C11=1.0791       H18-C12=1.0800       H19-C13=1.0888       H20-C13=1.0890       H21-C13=1.0897       
 C  H  Rav=1.0873 sigma=0.0061  Rmin=1.0791  Rmax=1.0960     8
 C  C  Rav=1.4296 sigma=0.0742  Rmin=1.3783  Rmax=1.5990     8
 O  C  Rav=1.3099 sigma=0.0802  Rmin=1.2326  Rmax=1.4188     4
 Cl C  Rav=1.7390 sigma=0.0000  Rmin=1.7390  Rmax=1.7390     1

 selected bond angles (degree)
 --------------------
C3-C2-Cl1=119.37               C12-C2-Cl1=119.74              C12-C2-C3=120.88               C4-C3-C2=121.27                
H14-C3-C2=119.33               H14-C3-C4=119.40               C5-C4-C3=118.70                C13-C4-C3=118.53               
C13-C4-C5=122.77               O6-C5-C4=126.10                C11-C5-C4=118.50               C11-C5-O6=114.50               
C7-O6-C5=120.64                C8-C7-O6=112.91                H15-C7-O6=112.29               H15-C7-C8=109.31               
H16-C7-O6=105.38               H16-C7-C8=108.48               H16-C7-H15=108.24              O9-C8-C7=113.78                
O10-C8-C7=114.89               O10-C8-O9=131.33               

 selected dihedral angles (degree)
 ---------------------------------
C4-C3-C2-Cl1=179.16           C4-C3-C2-C12=  0.13           H14-C3-C2-Cl1=359.82          H14-C3-C2-C12=180.79          
C5-C4-C3-C2=  1.91            C5-C4-C3-H14=181.25           C13-C4-C3-C2=181.91           C13-C4-C3-H14=  1.25          
O6-C5-C4-C3=188.42            O6-C5-C4-C13=  8.41           C11-C5-C4-C3=356.90           C11-C5-C4-C13=176.89          
C7-O6-C5-C4=309.09            C7-O6-C5-C11=140.21           C8-C7-O6-C5=325.30            H15-C7-O6-C5= 89.44           
H16-C7-O6-C5=207.06           O9-C8-C7-O6=173.83            O9-C8-C7-H15= 48.07           O9-C8-C7-H16=290.24           
O10-C8-C7-O6=354.46           O10-C8-C7-H15=228.69          O10-C8-C7-H16=110.87          
           -------------------------------------------------
          |                Final Singlepoint                |
           -------------------------------------------------

          ...................................................
          :                      SETUP                      :
          :.................................................:
          :  # basis functions                  66          :
          :  # atomic orbitals                  65          :
          :  # shells                           35          :
          :  # electrons                        70          :
          :  max. iterations                   250          :
          :  Hamiltonian                  GFN2-xTB          :
          :  restarted?                      false          :
          :  GBSA solvation                  false          :
          :  PC potential                    false          :
          :  electronic temp.          300.0000000     K    :
          :  accuracy                    1.0000000          :
          :  -> integral cutoff          0.2500000E+02      :
          :  -> integral neglect         0.1000000E-07      :
          :  -> SCF convergence          0.1000000E-05 Eh   :
          :  -> wf. convergence          0.1000000E-03 e    :
          :  Broyden damping             0.4000000          :
          :  net charge                         -1          :
          :  unpaired electrons                  0          :
          ...................................................

 iter      E             dE          RMSdq      gap      omega  full diag
   1    -40.7973661 -0.407974E+02  0.766E-05    2.40       0.0  T
   2    -40.7973661 -0.247411E-10  0.569E-05    2.40     383.3  T
   3    -40.7973661 -0.120366E-10  0.455E-05    2.40     480.0  T

   *** convergence criteria satisfied after 3 iterations ***

         #    Occupation            Energy/Eh            Energy/eV
      -------------------------------------------------------------
         1        2.0000           -0.9525642             -25.9206
       ...           ...                  ...                  ...
        29        2.0000           -0.3086861              -8.3998
        30        2.0000           -0.2890855              -7.8664
        31        2.0000           -0.2875438              -7.8245
        32        2.0000           -0.2606791              -7.0934
        33        2.0000           -0.2333147              -6.3488
        34        2.0000           -0.2190785              -5.9614
        35        2.0000           -0.1977770              -5.3818 (HOMO)
        36                         -0.1096269              -2.9831 (LUMO)
        37                         -0.1023600              -2.7854
        38                         -0.0358547              -0.9757
        39                         -0.0041070              -0.1118
        40                          0.0163639               0.4453
       ...                                ...                  ...
        65                          0.8738353              23.7783
      -------------------------------------------------------------
                  HL-Gap            0.0881501 Eh            2.3987 eV
             Fermi-level           -0.1537020 Eh           -4.1824 eV

 SCC (total)                   0 d,  0 h,  0 min,  0.005 sec
 SCC setup                      ...        0 min,  0.000 sec (  1.199%)
 Dispersion                     ...        0 min,  0.000 sec (  1.437%)
 classical contributions        ...        0 min,  0.000 sec (  0.213%)
 integral evaluation            ...        0 min,  0.001 sec ( 15.614%)
 iterations                     ...        0 min,  0.002 sec ( 40.457%)
 molecular gradient             ...        0 min,  0.002 sec ( 39.333%)
 printout                       ...        0 min,  0.000 sec (  1.473%)

         :::::::::::::::::::::::::::::::::::::::::::::::::::::
         ::                     SUMMARY                     ::
         :::::::::::::::::::::::::::::::::::::::::::::::::::::
         :: total energy             -40.347922311692 Eh    ::
         :: gradient norm              0.000755514421 Eh/a0 ::
         :: HOMO-LUMO gap              2.398686851184 eV    ::
         ::.................................................::
         :: SCC energy               -40.797244732785 Eh    ::
         :: -> isotropic ES            0.194030426260 Eh    ::
         :: -> anisotropic ES          0.001924704511 Eh    ::
         :: -> anisotropic XC          0.004463076007 Eh    ::
         :: -> dispersion             -0.022535694953 Eh    ::
         :: repulsion energy           0.449322421093 Eh    ::
         :: add. restraining           0.000000000000 Eh    ::
         :: total charge              -1.000000000000 e     ::
         :::::::::::::::::::::::::::::::::::::::::::::::::::::

           -------------------------------------------------
          |                Property Printout                |
           -------------------------------------------------

    * Orbital Energies and Occupations

         #    Occupation            Energy/Eh            Energy/eV
      -------------------------------------------------------------
         1        2.0000           -0.9525642             -25.9206
       ...           ...                  ...                  ...
        23        2.0000           -0.3494333              -9.5086
        24        2.0000           -0.3393918              -9.2353
        25        2.0000           -0.3322784              -9.0418
        26        2.0000           -0.3249955              -8.8436
        27        2.0000           -0.3238799              -8.8132
        28        2.0000           -0.3189331              -8.6786
        29        2.0000           -0.3086861              -8.3998
        30        2.0000           -0.2890855              -7.8664
        31        2.0000           -0.2875438              -7.8245
        32        2.0000           -0.2606791              -7.0934
        33        2.0000           -0.2333147              -6.3488
        34        2.0000           -0.2190785              -5.9614
        35        2.0000           -0.1977770              -5.3818 (HOMO)
        36                         -0.1096269              -2.9831 (LUMO)
        37                         -0.1023600              -2.7854
        38                         -0.0358547              -0.9757
        39                         -0.0041070              -0.1118
        40                          0.0163639               0.4453
        41                          0.1242539               3.3811
        42                          0.1279960               3.4829
        43                          0.1281344               3.4867
        44                          0.1427572               3.8846
        45                          0.1660364               4.5181
        46                          0.2207049               6.0057
       ...                                ...                  ...
        65                          0.8738353              23.7783
      -------------------------------------------------------------
                  HL-Gap            0.0881501 Eh            2.3987 eV
             Fermi-level           -0.1537020 Eh           -4.1824 eV

     #   Z          covCN         q      C6AA      α(0)
     1  17 Cl       0.962    -0.240   106.774    15.809
     2   6 C        2.890     0.075    26.322     8.411
     3   6 C        2.959    -0.053    29.310     8.880
     4   6 C        2.965    -0.000    28.030     8.684
     5   6 C        2.856     0.168    24.374     8.092
     6   8 O        1.705    -0.289    18.795     5.853
     7   6 C        3.677     0.040    20.118     6.426
     8   6 C        2.675     0.367    20.778     7.459
     9   8 O        0.856    -0.579    25.600     6.784
    10   8 O        0.856    -0.553    24.997     6.703
    11   6 C        2.927    -0.054    29.351     8.885
    12   6 C        2.948    -0.048    29.194     8.862
    13   6 C        3.758    -0.092    22.310     6.734
    14   1 H        0.926     0.035     2.522     2.484
    15   1 H        0.924     0.004     2.990     2.704
    16   1 H        0.924     0.017     2.773     2.604
    17   1 H        0.926     0.043     2.408     2.427
    18   1 H        0.926     0.032     2.555     2.500
    19   1 H        0.925     0.069     2.099     2.266
    20   1 H        0.925     0.025     2.657     2.549
    21   1 H        0.925     0.033     2.543     2.494

 Mol. C6AA /au·bohr⁶  :       6837.568463
 Mol. C8AA /au·bohr⁸  :     175506.750047
 Mol. α(0) /au        :        127.608399


Wiberg/Mayer (AO) data.
largest (>0.10) Wiberg bond orders for each atom

 ---------------------------------------------------------------------------
     #   Z sym  total        # sym  WBO       # sym  WBO       # sym  WBO
 ---------------------------------------------------------------------------
     1  17 Cl   1.036 --     2 C    0.925
     2   6 C    3.887 --    12 C    1.398     3 C    1.390     1 Cl   0.925
     3   6 C    3.986 --     4 C    1.442     2 C    1.390    14 H    0.966
     4   6 C    3.987 --     3 C    1.442     5 C    1.303    13 C    1.026
     5   6 C    3.947 --    11 C    1.342     4 C    1.303     6 O    1.084
     6   8 O    2.210 --     5 C    1.084     7 C    0.945
     7   6 C    3.888 --    16 H    0.969    15 H    0.966     6 O    0.945
                             8 C    0.838
     8   6 C    3.948 --    10 O    1.542     9 O    1.539     7 C    0.838
     9   8 O    1.859 --     8 C    1.539    10 O    0.232
    10   8 O    1.927 --     8 C    1.542     9 O    0.232
    11   6 C    3.988 --    12 C    1.456     5 C    1.342    17 H    0.968
    12   6 C    3.988 --    11 C    1.456     2 C    1.398    18 H    0.969
    13   6 C    3.997 --     4 C    1.026    20 H    0.985    21 H    0.975
                            19 H    0.963
    14   1 H    0.999 --     3 C    0.966
    15   1 H    0.999 --     7 C    0.966
    16   1 H    0.999 --     7 C    0.969
    17   1 H    0.998 --    11 C    0.968
    18   1 H    0.998 --    12 C    0.969
    19   1 H    0.995 --    13 C    0.963
    20   1 H    0.999 --    13 C    0.985
    21   1 H    0.999 --    13 C    0.975
 ---------------------------------------------------------------------------

Topologies differ in total number of bonds
Writing topology from bond orders to xtbtopo.mol

molecular dipole:
                 x           y           z       tot (Debye)
 q only:        5.346      -0.456      -3.355
   full:        5.136      -0.466      -3.487      15.824
molecular quadrupole (traceless):
                xx          xy          yy          xz          yz          zz
 q only:      -48.007       7.002      34.836      37.385      -5.940      13.171
  q+dip:      -48.744       8.611      37.992      40.706      -7.993      10.752
   full:      -48.550       8.774      36.513      40.099      -7.655      12.037

           -------------------------------------------------
          |                Geometry Summary                 |
           -------------------------------------------------

      molecular mass/u    :      199.6113014
   center of mass at/Å    :       -1.5523991       0.0155001       0.4490487
  moments of inertia/u·Å² :        0.3118101E+03   0.1334220E+04   0.1393845E+04
rotational constants/cm⁻¹ :        0.5406377E-01   0.1263483E-01   0.1209434E-01

 * 19 selected distances

     #   Z          #   Z                                           value/Å
     1  17 Cl       2   6 C                                       1.7390234 (max)
     2   6 C        3   6 C                                       1.3831077
     3   6 C        4   6 C                                       1.3845210
     4   6 C        5   6 C                                       1.4106812
     5   6 C        6   8 O                                       1.3549676
     6   8 O        7   6 C                                       1.4188347
     8   6 C        9   8 O                                       1.2333200
     8   6 C       10   8 O                                       1.2325844
     5   6 C       11   6 C                                       1.4004263
     2   6 C       12   6 C                                       1.3806264
    11   6 C       12   6 C                                       1.3782659
     3   6 C       14   1 H                                       1.0812099
     7   6 C       15   1 H                                       1.0959985
     7   6 C       16   1 H                                       1.0945911
    11   6 C       17   1 H                                       1.0790627 (min)
    12   6 C       18   1 H                                       1.0800042
    13   6 C       19   1 H                                       1.0888406
    13   6 C       20   1 H                                       1.0890310
    13   6 C       21   1 H                                       1.0897381

 * 4 distinct bonds (by element types)

   Z      Z             #   av. dist./Å        max./Å        min./Å
   1 H    6 C           8     1.0873095     1.0959985     1.0790627
   6 C    6 C           6     1.3896047     1.4106812     1.3782659
   6 C    8 O           4     1.3099267     1.4188347     1.2325844
   6 C   17 Cl          1     1.7390234     1.7390234     1.7390234


optimized geometry written to: xtbopt.xyz


           -------------------------------------------------
          | TOTAL ENERGY              -40.347922311692 Eh   |
          | GRADIENT NORM               0.000755514421 Eh/α |
          | HOMO-LUMO GAP               2.398686851184 eV   |
           -------------------------------------------------

------------------------------------------------------------------------
 * finished run on 2024/12/20 at 01:52:51.473     
------------------------------------------------------------------------
 total:
 * wall-time:     0 d,  0 h,  0 min,  0.809 sec
 *  cpu-time:     0 d,  0 h,  0 min,  5.795 sec
 * ratio c/w:     7.161 speedup
 SCF:
 * wall-time:     0 d,  0 h,  0 min,  0.018 sec
 *  cpu-time:     0 d,  0 h,  0 min,  0.136 sec
 * ratio c/w:     7.665 speedup
 ANC optimizer:
 * wall-time:     0 d,  0 h,  0 min,  0.774 sec
 *  cpu-time:     0 d,  0 h,  0 min,  5.569 sec
 * ratio c/w:     7.194 speedup

