      -----------------------------------------------------------      
     |                   =====================                   |     
     |                           x T B                           |     
     |                   =====================                   |     
     |                         S. Grimme                         |     
     |          Mulliken Center for Theoretical Chemistry        |     
     |                    University of Bonn                     |     
      -----------------------------------------------------------      

   * xtb version 6.7.1 (edcfbbe) compiled by 'conda@3ef47c1a292c' on 2024-11-25

   xtb is free software: you can redistribute it and/or modify it under
   the terms of the GNU Lesser General Public License as published by
   the Free Software Foundation, either version 3 of the License, or
   (at your option) any later version.
   
   xtb is distributed in the hope that it will be useful,
   but WITHOUT ANY WARRANTY; without even the implied warranty of
   MERCHANTABILITY or FITNESS FOR A PARTICULAR PURPOSE.  See the
   GNU Lesser General Public License for more details.
   
   Cite this work as:
   * C. Bannwarth, E. Caldeweyher, S. Ehlert, A. Hansen, P. Pracht,
     J. Seibert, S. Spicher, S. Grimme, WIREs Comput. Mol. Sci., 2020, 11,
     e01493. DOI: 10.1002/wcms.1493
   
   for GFN2-xTB:
   * C. Bannwarth, S. Ehlert and S. Grimme., J. Chem. Theory Comput., 2019,
     15, 1652-1671. DOI: 10.1021/acs.jctc.8b01176
   for GFN1-xTB:
   * S. Grimme, C. Bannwarth, P. Shushkov, J. Chem. Theory Comput., 2017,
     13, 1989-2009. DOI: 10.1021/acs.jctc.7b00118
   for GFN0-xTB:
   * P. Pracht, E. Caldeweyher, S. Ehlert, S. Grimme, ChemRxiv, 2019, preprint.
     DOI: 10.26434/chemrxiv.8326202.v1
   for GFN-FF:
   * S. Spicher and S. Grimme, Angew. Chem. Int. Ed., 2020, 59, 15665-15673.
     DOI: 10.1002/anie.202004239
   
   for ALPB and GBSA implicit solvation:
   * S. Ehlert, M. Stahn, S. Spicher, S. Grimme, J. Chem. Theory Comput.,
     2021, 17, 4250-4261. DOI: 10.1021/acs.jctc.1c00471
   
   for ddCOSMO and CPCM-X implicit solvation:
   * M. Stahn, S. Ehlert, S. Grimme, J. Phys. Chem. A,
     2023, XX, XXXX-XXXX. DOI: 10.1021/acs.jpca.3c04382
   
   for DFT-D4:
   * E. Caldeweyher, C. Bannwarth and S. Grimme, J. Chem. Phys., 2017,
     147, 034112. DOI: 10.1063/1.4993215
   * E. Caldeweyher, S. Ehlert, A. Hansen, H. Neugebauer, S. Spicher,
     C. Bannwarth and S. Grimme, J. Chem. Phys., 2019, 150, 154122.
     DOI: 10.1063/1.5090222
   * E. Caldeweyher, J.-M. Mewes, S. Ehlert and S. Grimme, Phys. Chem. Chem. Phys.
     2020, 22, 8499-8512. DOI: 10.1039/D0CP00502A
   
   for sTDA-xTB:
   * S. Grimme and C. Bannwarth, J. Chem. Phys., 2016, 145, 054103.
     DOI: 10.1063/1.4959605
   
   in the mass-spec context:
   * V. Asgeirsson, C. Bauer and S. Grimme, Chem. Sci., 2017, 8, 4879.
     DOI: 10.1039/c7sc00601b
   * J. Koopman and S. Grimme, ACS Omega 2019, 4, 12, 15120-15133.
     DOI: 10.1021/acsomega.9b02011
   
   for metadynamics refer to:
   * S. Grimme, J. Chem. Theory Comput., 2019, 155, 2847-2862
     DOI: 10.1021/acs.jctc.9b00143
   
   for SPH calculations refer to:
   * S. Spicher and S. Grimme, J. Chem. Theory Comput., 2021, 17, 1701-1714
     DOI: 10.1021/acs.jctc.0c01306
   
   for ONIOM refer to:
   * C. Plett, A. Katbashev, S. Ehlert, S. Grimme, M. Bursch,
     Phys. Chem. Chem. Phys., 2023, 25, 17860-17868. DOI: 10.1039/D3CP02178E
   
   for DIPRO refer to:
   * J. Kohn, N. Gildemeister, S. Grimme, D. Fazzi, A. Hansen,
     J. Chem. Phys., 2023, just accepted.
   
   for PTB refer to:
   * S. Grimme, M. Mueller, A. Hansen, J. Chem. Phys., 2023, 158, 124111.
     DOI: 10.1063/5.0137838
   
   with help from (in alphabetical order)
   P. Atkinson, C. Bannwarth, F. Bohle, G. Brandenburg, E. Caldeweyher
   M. Checinski, S. Dohm, S. Ehlert, S. Ehrlich, I. Gerasimov, C. Hölzer
   A. Katbashev, J. Kohn, J. Koopman, C. Lavigne, S. Lehtola, F. März, M. Müller,
   F. Musil, H. Neugebauer, J. Pisarek, C. Plett, P. Pracht, F. Pultar,
   J. Seibert, P. Shushkov, S. Spicher, M. Stahn, M. Steiner, T. Strunk,
   J. Stückrath, T. Rose, and J. Unsleber
   
 * started run on 2024/12/20 at 01:52:51.546     
   ID    Z sym.   atoms
    1    6 C      1-3
    2   16 S      4
    3    8 O      5-7
    4    1 H      8-14

           -------------------------------------------------
          |                Calculation Setup                |
           -------------------------------------------------

          program call               : xtb A059.xyz --opt --namespace A059 --charge -1
          calculation namespace      : A059
          coordinate file            : A059.xyz
          omp threads                :                     8


           -------------------------------------------------
          |                 G F N 2 - x T B                 |
           -------------------------------------------------

        Reference                      10.1021/acs.jctc.8b01176
      * Hamiltonian:
        H0-scaling (s, p, d)           1.850000    2.230000    2.230000
        zeta-weighting                 0.500000
      * Dispersion:
        s8                             2.700000
        a1                             0.520000
        a2                             5.000000
        s9                             5.000000
      * Repulsion:
        kExp                           1.500000    1.000000
        rExp                           1.000000
      * Coulomb:
        alpha                          2.000000
        third order                    shell-resolved
        anisotropic                    true
        a3                             3.000000
        a5                             4.000000
        cn-shift                       1.200000
        cn-exp                         4.000000
        max-rad                        5.000000


          ...................................................
          :                      SETUP                      :
          :.................................................:
          :  # basis functions                  41          :
          :  # atomic orbitals                  40          :
          :  # shells                           22          :
          :  # electrons                        44          :
          :  max. iterations                   250          :
          :  Hamiltonian                  GFN2-xTB          :
          :  restarted?                      false          :
          :  GBSA solvation                  false          :
          :  PC potential                    false          :
          :  electronic temp.          300.0000000     K    :
          :  accuracy                    1.0000000          :
          :  -> integral cutoff          0.2500000E+02      :
          :  -> integral neglect         0.1000000E-07      :
          :  -> SCF convergence          0.1000000E-05 Eh   :
          :  -> wf. convergence          0.1000000E-03 e    :
          :  Broyden damping             0.4000000          :
          :  net charge                         -1          :
          :  unpaired electrons                  0          :
          ...................................................

 iter      E             dE          RMSdq      gap      omega  full diag
   1    -25.8246640 -0.258247E+02  0.628E+00    8.63       0.0  T
   2    -25.8826607 -0.579967E-01  0.375E+00    8.76       1.0  T
   3    -25.8853118 -0.265115E-02  0.142E+00    8.45       1.0  T
   4    -25.8873025 -0.199066E-02  0.418E-01    8.47       1.0  T
   5    -25.8875685 -0.265972E-03  0.228E-01    8.45       1.0  T
   6    -25.8876640 -0.954981E-04  0.914E-02    8.46       1.0  T
   7    -25.8876800 -0.160153E-04  0.366E-02    8.46       1.0  T
   8    -25.8876830 -0.305490E-05  0.110E-02    8.46       2.4  T
   9    -25.8876832 -0.213052E-06  0.511E-03    8.46       5.2  T
  10    -25.8876833 -0.183986E-07  0.117E-03    8.46      22.8  T
  11    -25.8876833 -0.129904E-08  0.318E-04    8.46      84.1  T
  12    -25.8876833 -0.804690E-10  0.170E-04    8.46     157.3  T

   *** convergence criteria satisfied after 12 iterations ***

         #    Occupation            Energy/Eh            Energy/eV
      -------------------------------------------------------------
         1        2.0000           -0.5527910             -15.0422
       ...           ...                  ...                  ...
        16        2.0000           -0.2978686              -8.1054
        17        2.0000           -0.2424254              -6.5967
        18        2.0000           -0.2422662              -6.5924
        19        2.0000           -0.2249687              -6.1217
        20        2.0000           -0.2243356              -6.1045
        21        2.0000           -0.2117105              -5.7609
        22        2.0000           -0.2076851              -5.6514 (HOMO)
        23                          0.1030822               2.8050 (LUMO)
        24                          0.1667042               4.5363
        25                          0.1868050               5.0832
        26                          0.2064493               5.6178
        27                          0.2310647               6.2876
       ...                                ...                  ...
        40                          1.3585402              36.9678
      -------------------------------------------------------------
                  HL-Gap            0.3107673 Eh            8.4564 eV
             Fermi-level           -0.0523014 Eh           -1.4232 eV

 SCC (total)                   0 d,  0 h,  0 min,  0.011 sec
 SCC setup                      ...        0 min,  0.000 sec (  1.462%)
 Dispersion                     ...        0 min,  0.000 sec (  1.179%)
 classical contributions        ...        0 min,  0.000 sec (  0.590%)
 integral evaluation            ...        0 min,  0.002 sec ( 15.165%)
 iterations                     ...        0 min,  0.007 sec ( 65.182%)
 molecular gradient             ...        0 min,  0.002 sec ( 15.562%)
 printout                       ...        0 min,  0.000 sec (  0.730%)

         :::::::::::::::::::::::::::::::::::::::::::::::::::::
         ::                     SUMMARY                     ::
         :::::::::::::::::::::::::::::::::::::::::::::::::::::
         :: total energy             -25.681503664135 Eh    ::
         :: gradient norm              0.039219501455 Eh/a0 ::
         :: HOMO-LUMO gap              8.456407875536 eV    ::
         ::.................................................::
         :: SCC energy               -25.887666725914 Eh    ::
         :: -> isotropic ES            0.217226640908 Eh    ::
         :: -> anisotropic ES         -0.009049445151 Eh    ::
         :: -> anisotropic XC         -0.000254735642 Eh    ::
         :: -> dispersion             -0.011426583278 Eh    ::
         :: repulsion energy           0.206163061779 Eh    ::
         :: add. restraining           0.000000000000 Eh    ::
         :: total charge              -1.000000000000 e     ::
         :::::::::::::::::::::::::::::::::::::::::::::::::::::

      ----------------------------------------------------------- 
     |                   =====================                   |
     |                        A N C O P T                        |
     |                   =====================                   |
     |               Approximate Normal Coordinate               |
     |                Rational Function Optimizer                |
      ----------------------------------------------------------- 
      ----------------------------------------------------------- 
     |                   =====================                   |
     |                        A N C O P T                        |
     |                   =====================                   |
     |               Approximate Normal Coordinate               |
     |                Rational Function Optimizer                |
      ----------------------------------------------------------- 

          ...................................................
          :                      SETUP                      :
          :.................................................:
          :   optimization level            normal          :
          :   max. optcycles                   200          :
          :   ANC micro-cycles                  20          :
          :   degrees of freedom                36          :
          :.................................................:
          :   RF solver                   davidson          :
          :   write xtbopt.log                true          :
          :   linear?                        false          :
          :   energy convergence         0.5000000E-05 Eh   :
          :   grad. convergence          0.1000000E-02 Eh/α :
          :   maxmium RF displ.          1.0000000          :
          :   Hlow (freq-cutoff)         0.1000000E-01      :
          :   Hmax (freq-cutoff)         5.0000000          :
          :   S6 in model hess.         20.0000000          :
          ...................................................

generating ANC from exact Hessian ...
Using Lindh-Hessian (1995)
 Shifting diagonal of input Hessian by    6.2959884820830876E-003
 Lowest  eigenvalues of input Hessian
    0.000000    0.000000    0.000000    0.000000    0.000000    0.000000
    0.010000    0.012924    0.014264    0.023189    0.029708    0.048396
    0.057586    0.060990    0.062432    0.068026    0.072977    0.074257
 Highest eigenvalues
    1.157850    1.229681    1.286606    1.740245    3.396668    3.422018


........................................................................
.............................. CYCLE    1 ..............................
........................................................................

 iter      E             dE          RMSdq      gap      omega  full diag
   1    -25.8876833 -0.258877E+02  0.174E-05    8.46       0.0  T
   2    -25.8876833 -0.238032E-12  0.104E-05    8.46    2580.3  T
   3    -25.8876833 -0.170530E-12  0.448E-06    8.46    5960.8  T
     SCC iter.                  ...        0 min,  0.002 sec
     gradient                   ...        0 min,  0.002 sec
 * total energy  :   -25.6815037 Eh     change       -0.5339729E-10 Eh
   gradient norm :     0.0392189 Eh/α   predicted     0.0000000E+00 (-100.00%)
   displ. norm   :     0.2758916 α      lambda       -0.4669494E-02
   maximum displ.:     0.2160535 α      in ANC's #2, #10, #6, ...

........................................................................
.............................. CYCLE    2 ..............................
........................................................................

 iter      E             dE          RMSdq      gap      omega  full diag
   1    -25.8916518 -0.258917E+02  0.213E-01    8.59       0.0  T
   2    -25.8916750 -0.232230E-04  0.117E-01    8.59       1.0  T
   3    -25.8916756 -0.521762E-06  0.340E-02    8.59       1.0  T
   4    -25.8916780 -0.245720E-05  0.143E-02    8.59       1.9  T
   5    -25.8916780  0.213435E-08  0.422E-03    8.59       6.3  T
   6    -25.8916780 -0.280344E-07  0.651E-04    8.59      41.1  T
   7    -25.8916780 -0.219842E-09  0.253E-04    8.59     105.5  T
     SCC iter.                  ...        0 min,  0.004 sec
     gradient                   ...        0 min,  0.002 sec
 * total energy  :   -25.6849667 Eh     change       -0.3463009E-02 Eh
   gradient norm :     0.0201942 Eh/α   predicted    -0.2512460E-02 ( -27.45%)
   displ. norm   :     0.3956247 α      lambda       -0.2843122E-02
   maximum displ.:     0.3520832 α      in ANC's #2, #3, #10, ...

........................................................................
.............................. CYCLE    3 ..............................
........................................................................

 iter      E             dE          RMSdq      gap      omega  full diag
   1    -25.8920195 -0.258920E+02  0.200E-01    8.35       0.0  T
   2    -25.8920497 -0.301785E-04  0.109E-01    8.35       1.0  T
   3    -25.8920507 -0.105234E-05  0.341E-02    8.35       1.0  T
   4    -25.8920533 -0.259222E-05  0.134E-02    8.35       2.0  T
   5    -25.8920533 -0.242801E-07  0.514E-03    8.35       5.2  T
   6    -25.8920534 -0.358134E-07  0.716E-04    8.35      37.3  T
   7    -25.8920534 -0.475080E-09  0.230E-04    8.35     116.4  T
     SCC iter.                  ...        0 min,  0.004 sec
     gradient                   ...        0 min,  0.002 sec
 * total energy  :   -25.6867682 Eh     change       -0.1801573E-02 Eh
   gradient norm :     0.0086526 Eh/α   predicted    -0.1644078E-02 (  -8.74%)
   displ. norm   :     0.2510153 α      lambda       -0.6466004E-03
   maximum displ.:     0.2258355 α      in ANC's #2, #3, #5, ...

........................................................................
.............................. CYCLE    4 ..............................
........................................................................

 iter      E             dE          RMSdq      gap      omega  full diag
   1    -25.8922225 -0.258922E+02  0.905E-02    8.20       0.0  T
   2    -25.8922313 -0.879874E-05  0.519E-02    8.21       1.0  T
   3    -25.8922318 -0.445719E-06  0.174E-02    8.20       1.5  T
   4    -25.8922323 -0.554428E-06  0.608E-03    8.21       4.4  T
   5    -25.8922324 -0.252164E-07  0.221E-03    8.21      12.1  T
   6    -25.8922324 -0.603136E-08  0.520E-04    8.21      51.4  T
   7    -25.8922324 -0.325628E-09  0.253E-04    8.21     105.6  T
     SCC iter.                  ...        0 min,  0.002 sec
     gradient                   ...        0 min,  0.001 sec
 * total energy  :   -25.6872204 Eh     change       -0.4521076E-03 Eh
   gradient norm :     0.0099874 Eh/α   predicted    -0.3436756E-03 ( -23.98%)
   displ. norm   :     0.2180243 α      lambda       -0.4492486E-03
   maximum displ.:     0.1692219 α      in ANC's #2, #3, #1, ...

........................................................................
.............................. CYCLE    5 ..............................
........................................................................

 iter      E             dE          RMSdq      gap      omega  full diag
   1    -25.8934288 -0.258934E+02  0.717E-02    8.16       0.0  T
   2    -25.8934349 -0.604008E-05  0.427E-02    8.16       1.0  T
   3    -25.8934352 -0.353432E-06  0.147E-02    8.16       1.8  T
   4    -25.8934355 -0.247259E-06  0.506E-03    8.16       5.3  T
   5    -25.8934355 -0.238614E-07  0.181E-03    8.16      14.7  T
   6    -25.8934355 -0.455402E-08  0.462E-04    8.16      57.9  T
   7    -25.8934355 -0.232074E-09  0.226E-04    8.16     118.3  T
     SCC iter.                  ...        0 min,  0.002 sec
     gradient                   ...        0 min,  0.001 sec
 * total energy  :   -25.6875473 Eh     change       -0.3269045E-03 Eh
   gradient norm :     0.0093641 Eh/α   predicted    -0.2353045E-03 ( -28.02%)
   displ. norm   :     0.2233317 α      lambda       -0.4131781E-03
   maximum displ.:     0.1495300 α      in ANC's #3, #2, #1, ...

........................................................................
.............................. CYCLE    6 ..............................
........................................................................

 iter      E             dE          RMSdq      gap      omega  full diag
   1    -25.8945997 -0.258946E+02  0.725E-02    8.21       0.0  T
   2    -25.8946049 -0.517147E-05  0.434E-02    8.21       1.0  T
   3    -25.8946051 -0.282210E-06  0.173E-02    8.21       1.5  T
   4    -25.8946052 -0.495823E-07  0.412E-03    8.21       6.5  T
   5    -25.8946052 -0.136471E-07  0.153E-03    8.21      17.5  T
   6    -25.8946052 -0.552239E-08  0.326E-04    8.21      81.9  T
   7    -25.8946052 -0.778186E-10  0.134E-04    8.21     199.0  T
     SCC iter.                  ...        0 min,  0.002 sec
     gradient                   ...        0 min,  0.001 sec
 * total energy  :   -25.6878469 Eh     change       -0.2996016E-03 Eh
   gradient norm :     0.0078257 Eh/α   predicted    -0.2168972E-03 ( -27.60%)
   displ. norm   :     0.1926234 α      lambda       -0.3114012E-03
   maximum displ.:     0.1320548 α      in ANC's #3, #1, #2, ...

........................................................................
.............................. CYCLE    7 ..............................
........................................................................

 iter      E             dE          RMSdq      gap      omega  full diag
   1    -25.8957519 -0.258958E+02  0.662E-02    8.29       0.0  T
   2    -25.8957553 -0.333695E-05  0.383E-02    8.29       1.0  T
   3    -25.8957554 -0.113067E-06  0.151E-02    8.29       1.8  T
   4    -25.8957554 -0.150567E-07  0.238E-03    8.29      11.2  T
   5    -25.8957554 -0.168940E-08  0.666E-04    8.29      40.1  T
   6    -25.8957554 -0.178717E-08  0.198E-04    8.29     135.1  T
     SCC iter.                  ...        0 min,  0.002 sec
     gradient                   ...        0 min,  0.001 sec
 * total energy  :   -25.6880633 Eh     change       -0.2164386E-03 Eh
   gradient norm :     0.0062886 Eh/α   predicted    -0.1614740E-03 ( -25.39%)
   displ. norm   :     0.1843989 α      lambda       -0.1708378E-03
   maximum displ.:     0.1283123 α      in ANC's #3, #1, #2, ...

........................................................................
.............................. CYCLE    8 ..............................
........................................................................

 iter      E             dE          RMSdq      gap      omega  full diag
   1    -25.8946998 -0.258947E+02  0.590E-02    8.34       0.0  T
   2    -25.8947006 -0.833532E-06  0.350E-02    8.34       1.0  T
   3    -25.8947007 -0.695083E-07  0.601E-03    8.34       4.4  T
   4    -25.8947007 -0.220131E-07  0.207E-03    8.34      12.9  T
   5    -25.8947007 -0.188330E-08  0.711E-04    8.34      37.6  T
   6    -25.8947007 -0.150207E-08  0.192E-04    8.34     138.9  T
     SCC iter.                  ...        0 min,  0.002 sec
     gradient                   ...        0 min,  0.001 sec
 * total energy  :   -25.6881641 Eh     change       -0.1008283E-03 Eh
   gradient norm :     0.0070204 Eh/α   predicted    -0.8832399E-04 ( -12.40%)
   displ. norm   :     0.1228908 α      lambda       -0.2142486E-03
   maximum displ.:     0.0668069 α      in ANC's #3, #1, #4, ...

........................................................................
.............................. CYCLE    9 ..............................
........................................................................

 iter      E             dE          RMSdq      gap      omega  full diag
   1    -25.8978521 -0.258979E+02  0.625E-02    8.42       0.0  T
   2    -25.8978558 -0.370455E-05  0.376E-02    8.42       1.0  T
   3    -25.8978561 -0.307085E-06  0.118E-02    8.42       2.3  T
   4    -25.8978563 -0.157634E-06  0.448E-03    8.42       6.0  T
   5    -25.8978563 -0.123508E-07  0.193E-03    8.42      13.8  T
   6    -25.8978563 -0.319884E-08  0.467E-04    8.42      57.3  T
   7    -25.8978563 -0.157776E-09  0.211E-04    8.42     126.7  T
     SCC iter.                  ...        0 min,  0.002 sec
     gradient                   ...        0 min,  0.001 sec
 * total energy  :   -25.6881839 Eh     change       -0.1977915E-04 Eh
   gradient norm :     0.0078348 Eh/α   predicted    -0.1087427E-03 ( 449.78%)
   displ. norm   :     0.0603894 α      lambda       -0.1279603E-03
   maximum displ.:     0.0455710 α      in ANC's #2, #3, #1, ...

........................................................................
.............................. CYCLE   10 ..............................
........................................................................

 iter      E             dE          RMSdq      gap      omega  full diag
   1    -25.8958726 -0.258959E+02  0.357E-02    8.37       0.0  T
   2    -25.8958735 -0.879102E-06  0.201E-02    8.37       1.3  T
   3    -25.8958736 -0.823403E-07  0.643E-03    8.37       4.2  T
   4    -25.8958736 -0.419386E-07  0.193E-03    8.37      13.9  T
   5    -25.8958736 -0.466596E-08  0.858E-04    8.37      31.1  T
   6    -25.8958736 -0.508887E-09  0.206E-04    8.37     129.9  T
     SCC iter.                  ...        0 min,  0.002 sec
     gradient                   ...        0 min,  0.001 sec
 * total energy  :   -25.6882530 Eh     change       -0.6905683E-04 Eh
   gradient norm :     0.0034918 Eh/α   predicted    -0.6421193E-04 (  -7.02%)
   displ. norm   :     0.0237248 α      lambda       -0.1766156E-04
   maximum displ.:     0.0146337 α      in ANC's #1, #3, #9, ...

........................................................................
.............................. CYCLE   11 ..............................
........................................................................

 iter      E             dE          RMSdq      gap      omega  full diag
   1    -25.8959435 -0.258959E+02  0.142E-02    8.34       0.0  T
   2    -25.8959438 -0.296815E-06  0.842E-03    8.34       3.2  T
   3    -25.8959438 -0.961896E-08  0.430E-03    8.34       6.2  T
   4    -25.8959438 -0.183267E-08  0.937E-04    8.34      28.5  T
   5    -25.8959438 -0.197462E-08  0.396E-04    8.34      67.5  T
     SCC iter.                  ...        0 min,  0.002 sec
     gradient                   ...        0 min,  0.001 sec
 * total energy  :   -25.6882643 Eh     change       -0.1138655E-04 Eh
   gradient norm :     0.0017801 Eh/α   predicted    -0.8834844E-05 ( -22.41%)
   displ. norm   :     0.0328871 α      lambda       -0.9114870E-05
   maximum displ.:     0.0188679 α      in ANC's #4, #1, #3, ...

........................................................................
.............................. CYCLE   12 ..............................
........................................................................

 iter      E             dE          RMSdq      gap      omega  full diag
   1    -25.8959092 -0.258959E+02  0.165E-02    8.31       0.0  T
   2    -25.8959096 -0.356380E-06  0.995E-03    8.31       2.7  T
   3    -25.8959096 -0.105829E-07  0.515E-03    8.31       5.2  T
   4    -25.8959096 -0.245934E-08  0.867E-04    8.31      30.8  T
   5    -25.8959096 -0.930811E-09  0.362E-04    8.31      73.8  T
     SCC iter.                  ...        0 min,  0.002 sec
     gradient                   ...        0 min,  0.001 sec
 * total energy  :   -25.6882698 Eh     change       -0.5500417E-05 Eh
   gradient norm :     0.0007668 Eh/α   predicted    -0.4559680E-05 ( -17.10%)
   displ. norm   :     0.0103764 α      lambda       -0.1973842E-05
   maximum displ.:     0.0072908 α      in ANC's #1, #4, #10, ...

........................................................................
.............................. CYCLE   13 ..............................
........................................................................

 iter      E             dE          RMSdq      gap      omega  full diag
   1    -25.8959584 -0.258960E+02  0.687E-03    8.31       0.0  T
   2    -25.8959584 -0.161725E-07  0.383E-03    8.31       7.0  T
   3    -25.8959584 -0.787239E-09  0.971E-04    8.31      27.5  T
   4    -25.8959584 -0.103103E-08  0.246E-04    8.31     108.7  T
     SCC iter.                  ...        0 min,  0.001 sec
     gradient                   ...        0 min,  0.001 sec
 * total energy  :   -25.6882714 Eh     change       -0.1502477E-05 Eh
   gradient norm :     0.0005267 Eh/α   predicted    -0.9852133E-06 ( -34.43%)
   displ. norm   :     0.0072992 α      lambda       -0.7260885E-06
   maximum displ.:     0.0041034 α      in ANC's #1, #5, #3, ...

   *** GEOMETRY OPTIMIZATION CONVERGED AFTER 13 ITERATIONS ***

------------------------------------------------------------------------
 total energy gain   :        -0.0067677 Eh       -4.2468 kcal/mol
 total RMSD          :         0.4342925 a0        0.2298 Å
 total power (kW/mol):        -1.3668125 (step) -300.8714 (real)
------------------------------------------------------------------------

 ANCopt (total)                0 d,  0 h,  0 min,  0.059 sec
 optimizer setup                ...        0 min,  0.000 sec (  0.118%)
 model hessian                  ...        0 min,  0.004 sec (  6.208%)
 ANC generation                 ...        0 min,  0.000 sec (  0.349%)
 coordinate transformation      ...        0 min,  0.000 sec (  0.111%)
 single point calculation       ...        0 min,  0.052 sec ( 88.845%)
 optimization log               ...        0 min,  0.001 sec (  1.062%)
 hessian update                 ...        0 min,  0.000 sec (  0.473%)
 rational function              ...        0 min,  0.001 sec (  2.032%)

================
 final structure:
================
14
 xtb: 6.7.1 (edcfbbe)
C            1.15147203287783        0.11098582651240       -0.08710438043201
C            0.54563675306393        1.43263086313290        0.31617060474144
C            1.08671976527353        2.55867647844082       -0.55502369311233
S            0.39121012074324       -0.39785081508332       -1.68684729351439
O            0.78227077611404       -1.79985234492076       -1.83646655341133
O           -1.04662359832441       -0.20800069770987       -1.49749675935945
O            0.96603321243228        0.47382897628115       -2.71433695266742
H            0.90579011177450       -0.69308962309325        0.60013337265880
H            2.22384030895296        0.15701293469107       -0.24961055580694
H           -0.53049546882443        1.33911489057894        0.15345168867239
H            0.72229598229436        1.65212821371538        1.37898854256230
H            1.00006488810698        2.24702818347229       -1.59394660545328
H            0.52869370996241        3.48196472405699       -0.40047335575367
H            2.13719140555283        2.74725238992522       -0.33287805912415

 Bond Distances (Angstroems)
 ---------------------------
C1-C2=1.5088         C1-S4=1.8428         C1-H8=1.0859         C1-H9=1.0856         C2-C1=1.5088         C2-C3=1.5231         
C2-H10=1.0924        C2-H11=1.0995        C3-C2=1.5231         C3-H12=1.0881        C3-H13=1.0898        C3-H14=1.0901        
S4-C1=1.8428         S4-O5=1.4632         S4-O6=1.4626         S4-O7=1.4649         O5-S4=1.4632         O6-S4=1.4626         
O7-S4=1.4649         H8-C1=1.0859         H9-C1=1.0856         H10-C2=1.0924        H11-C2=1.0995        H12-C3=1.0881        
H13-C3=1.0898        H14-C3=1.0901        
 C  H  Rav=1.0902 sigma=0.0044  Rmin=1.0856  Rmax=1.0995     7
 C  C  Rav=1.5159 sigma=0.0071  Rmin=1.5088  Rmax=1.5231     2
 S  C  Rav=1.8428 sigma=0.0000  Rmin=1.8428  Rmax=1.8428     1
 S  O  Rav=1.4636 sigma=0.0010  Rmin=1.4626  Rmax=1.4649     3

 selected bond angles (degree)
 --------------------
S4-C1-C2=107.95                H8-C1-C2=112.87                H8-C1-S4=104.57                H9-C1-C2=113.55                
H9-C1-S4=106.82                H9-C1-H8=110.46                C3-C2-C1=110.62                H10-C2-C1=106.31               
H10-C2-C3=109.15               H11-C2-C1=111.64               H11-C2-C3=110.38               H11-C2-H10=108.62              
H12-C3-C2=107.82               H13-C3-C2=111.30               H13-C3-H12=109.71              H14-C3-C2=110.71               
H14-C3-H12=108.71              H14-C3-H13=108.54              O5-S4-C1=104.07                O6-S4-C1=104.91                
O6-S4-O5=113.60                O7-S4-C1=106.42                O7-S4-O5=113.18                O7-S4-O6=113.53                

 selected dihedral angles (degree)
 ---------------------------------
C3-C2-C1-S4=286.60            C3-C2-C1-H8=171.53            C3-C2-C1-H9= 44.82            H10-C2-C1-S4= 44.97           
H10-C2-C1-H8=289.91           H10-C2-C1-H9=163.20           H11-C2-C1-S4=163.27           H11-C2-C1-H8= 48.20           
H11-C2-C1-H9=281.49           H12-C3-C2-C1= 49.23           H12-C3-C2-H10=292.60          H12-C3-C2-H11=173.28          
H13-C3-C2-C1=169.60           H13-C3-C2-H10= 52.98          H13-C3-C2-H11=293.66          H14-C3-C2-C1=290.42           
H14-C3-C2-H10=173.79          H14-C3-C2-H11= 54.48          O5-S4-C1-C2=193.02            O5-S4-C1-H8=313.44            
O5-S4-C1-H9= 70.56            O6-S4-C1-C2=312.61            O6-S4-C1-H8= 73.03            O6-S4-C1-H9=190.16            
O7-S4-C1-C2= 73.23            O7-S4-C1-H8=193.65            O7-S4-C1-H9=310.77            
           -------------------------------------------------
          |                Final Singlepoint                |
           -------------------------------------------------

          ...................................................
          :                      SETUP                      :
          :.................................................:
          :  # basis functions                  41          :
          :  # atomic orbitals                  40          :
          :  # shells                           22          :
          :  # electrons                        44          :
          :  max. iterations                   250          :
          :  Hamiltonian                  GFN2-xTB          :
          :  restarted?                      false          :
          :  GBSA solvation                  false          :
          :  PC potential                    false          :
          :  electronic temp.          300.0000000     K    :
          :  accuracy                    1.0000000          :
          :  -> integral cutoff          0.2500000E+02      :
          :  -> integral neglect         0.1000000E-07      :
          :  -> SCF convergence          0.1000000E-05 Eh   :
          :  -> wf. convergence          0.1000000E-03 e    :
          :  Broyden damping             0.4000000          :
          :  net charge                         -1          :
          :  unpaired electrons                  0          :
          ...................................................

 iter      E             dE          RMSdq      gap      omega  full diag
   1    -25.8959584 -0.258960E+02  0.109E-04    8.31       0.0  T
   2    -25.8959584 -0.121574E-10  0.494E-05    8.31     540.7  T
   3    -25.8959584 -0.132161E-11  0.274E-05    8.31     977.1  T

   *** convergence criteria satisfied after 3 iterations ***

         #    Occupation            Energy/Eh            Energy/eV
      -------------------------------------------------------------
         1        2.0000           -0.5553180             -15.1110
       ...           ...                  ...                  ...
        16        2.0000           -0.2971500              -8.0859
        17        2.0000           -0.2469128              -6.7188
        18        2.0000           -0.2454108              -6.6780
        19        2.0000           -0.2267382              -6.1699
        20        2.0000           -0.2257690              -6.1435
        21        2.0000           -0.2149734              -5.8497
        22        2.0000           -0.2116624              -5.7596 (HOMO)
        23                          0.0938187               2.5529 (LUMO)
        24                          0.1493888               4.0651
        25                          0.1793617               4.8807
        26                          0.1937715               5.2728
        27                          0.2430426               6.6135
       ...                                ...                  ...
        40                          1.3515794              36.7783
      -------------------------------------------------------------
                  HL-Gap            0.3054810 Eh            8.3126 eV
             Fermi-level           -0.0589219 Eh           -1.6033 eV

 SCC (total)                   0 d,  0 h,  0 min,  0.003 sec
 SCC setup                      ...        0 min,  0.000 sec (  2.140%)
 Dispersion                     ...        0 min,  0.000 sec (  1.366%)
 classical contributions        ...        0 min,  0.000 sec (  0.283%)
 integral evaluation            ...        0 min,  0.000 sec ( 17.093%)
 iterations                     ...        0 min,  0.001 sec ( 41.577%)
 molecular gradient             ...        0 min,  0.001 sec ( 34.638%)
 printout                       ...        0 min,  0.000 sec (  2.364%)

         :::::::::::::::::::::::::::::::::::::::::::::::::::::
         ::                     SUMMARY                     ::
         :::::::::::::::::::::::::::::::::::::::::::::::::::::
         :: total energy             -25.688271352305 Eh    ::
         :: gradient norm              0.000526370206 Eh/a0 ::
         :: HOMO-LUMO gap              8.312562474025 eV    ::
         ::.................................................::
         :: SCC energy               -25.895942756363 Eh    ::
         :: -> isotropic ES            0.215189459520 Eh    ::
         :: -> anisotropic ES         -0.012723469807 Eh    ::
         :: -> anisotropic XC         -0.000389060226 Eh    ::
         :: -> dispersion             -0.011577864742 Eh    ::
         :: repulsion energy           0.207671404058 Eh    ::
         :: add. restraining           0.000000000000 Eh    ::
         :: total charge              -1.000000000000 e     ::
         :::::::::::::::::::::::::::::::::::::::::::::::::::::

           -------------------------------------------------
          |                Property Printout                |
           -------------------------------------------------

    * Orbital Energies and Occupations

         #    Occupation            Energy/Eh            Energy/eV
      -------------------------------------------------------------
         1        2.0000           -0.5553180             -15.1110
       ...           ...                  ...                  ...
        10        2.0000           -0.3493533              -9.5064
        11        2.0000           -0.3225976              -8.7783
        12        2.0000           -0.3196381              -8.6978
        13        2.0000           -0.3130943              -8.5197
        14        2.0000           -0.3100246              -8.4362
        15        2.0000           -0.3045644              -8.2876
        16        2.0000           -0.2971500              -8.0859
        17        2.0000           -0.2469128              -6.7188
        18        2.0000           -0.2454108              -6.6780
        19        2.0000           -0.2267382              -6.1699
        20        2.0000           -0.2257690              -6.1435
        21        2.0000           -0.2149734              -5.8497
        22        2.0000           -0.2116624              -5.7596 (HOMO)
        23                          0.0938187               2.5529 (LUMO)
        24                          0.1493888               4.0651
        25                          0.1793617               4.8807
        26                          0.1937715               5.2728
        27                          0.2430426               6.6135
        28                          0.2685934               7.3088
        29                          0.2869402               7.8080
        30                          0.2972210               8.0878
        31                          0.3179182               8.6510
        32                          0.3379801               9.1969
        33                          0.3743915              10.1877
       ...                                ...                  ...
        40                          1.3515794              36.7783
      -------------------------------------------------------------
                  HL-Gap            0.3054810 Eh            8.3126 eV
             Fermi-level           -0.0589219 Eh           -1.6033 eV

     #   Z          covCN         q      C6AA      α(0)
     1   6 C        3.797    -0.139    23.178     6.855
     2   6 C        3.852    -0.050    21.429     6.584
     3   6 C        3.753    -0.110    22.656     6.787
     4  16 S        3.598     1.114   103.436    17.117
     5   8 O        0.860    -0.671    27.934     7.086
     6   8 O        0.860    -0.672    27.960     7.089
     7   8 O        0.859    -0.672    27.964     7.090
     8   1 H        0.925     0.022     2.697     2.568
     9   1 H        0.925     0.024     2.667     2.554
    10   1 H        0.924     0.049     2.337     2.391
    11   1 H        0.923     0.001     3.041     2.727
    12   1 H        0.925     0.078     2.000     2.212
    13   1 H        0.925     0.012     2.865     2.647
    14   1 H        0.925     0.014     2.825     2.629

 Mol. C6AA /au·bohr⁶  :       2635.895492
 Mol. C8AA /au·bohr⁸  :      66067.007484
 Mol. α(0) /au        :         76.336257


Wiberg/Mayer (AO) data.
largest (>0.10) Wiberg bond orders for each atom

 ---------------------------------------------------------------------------
     #   Z sym  total        # sym  WBO       # sym  WBO       # sym  WBO
 ---------------------------------------------------------------------------
     1   6 C    3.987 --     2 C    1.024     8 H    0.982     9 H    0.981
                             4 S    0.730
     2   6 C    3.997 --     1 C    1.024     3 C    1.019    11 H    0.975
                            10 H    0.971
     3   6 C    3.992 --     2 C    1.019    14 H    0.989    13 H    0.989
                            12 H    0.971
     4  16 S    5.151 --     5 O    1.478     6 O    1.471     7 O    1.458
                             1 C    0.730
     5   8 O    1.782 --     4 S    1.478     7 O    0.105     6 O    0.105
     6   8 O    1.783 --     4 S    1.471     7 O    0.106     5 O    0.105
     7   8 O    1.785 --     4 S    1.458     6 O    0.106     5 O    0.105
     8   1 H    0.999 --     1 C    0.982
     9   1 H    0.999 --     1 C    0.981
    10   1 H    0.998 --     2 C    0.971
    11   1 H    1.000 --     2 C    0.975
    12   1 H    0.994 --     3 C    0.971
    13   1 H    1.000 --     3 C    0.989
    14   1 H    1.000 --     3 C    0.989
 ---------------------------------------------------------------------------

Topologies differ in total number of bonds
Writing topology from bond orders to xtbtopo.mol

molecular dipole:
                 x           y           z       tot (Debye)
 q only:       -0.336       0.997       4.015
   full:       -0.230       1.043       4.247      11.130
molecular quadrupole (traceless):
                xx          xy          yy          xz          yz          zz
 q only:        7.805       1.049       4.457       4.654      -5.287     -12.262
  q+dip:        9.164       1.271       3.576       5.408      -5.284     -12.740
   full:        8.808       1.291       3.841       5.453      -5.204     -12.650

           -------------------------------------------------
          |                Geometry Summary                 |
           -------------------------------------------------

      molecular mass/u    :      123.1507951
   center of mass at/Å    :        0.5217119       0.1866760      -1.2604098
  moments of inertia/u·Å² :        0.1255015E+03   0.2928951E+03   0.3089129E+03
rotational constants/cm⁻¹ :        0.1343222E+00   0.5755519E-01   0.5457082E-01

 * 13 selected distances

     #   Z          #   Z                                           value/Å
     1   6 C        2   6 C                                       1.5087787
     2   6 C        3   6 C                                       1.5230658
     1   6 C        4  16 S                                       1.8428486 (max)
     4  16 S        5   8 O                                       1.4631893
     4  16 S        6   8 O                                       1.4626219
     4  16 S        7   8 O                                       1.4649173
     1   6 C        8   1 H                                       1.0859065
     1   6 C        9   1 H                                       1.0855877 (min)
     2   6 C       10   1 H                                       1.0923751
     2   6 C       11   1 H                                       1.0995316
     3   6 C       12   1 H                                       1.0881152
     3   6 C       13   1 H                                       1.0898350
     3   6 C       14   1 H                                       1.0901378

 * 4 distinct bonds (by element types)

   Z      Z             #   av. dist./Å        max./Å        min./Å
   1 H    6 C           7     1.0902127     1.0995316     1.0855877
   6 C    6 C           2     1.5159223     1.5230658     1.5087787
   6 C   16 S           1     1.8428486     1.8428486     1.8428486
   8 O   16 S           3     1.4635762     1.4649173     1.4626219


optimized geometry written to: xtbopt.xyz


           -------------------------------------------------
          | TOTAL ENERGY              -25.688271352305 Eh   |
          | GRADIENT NORM               0.000526370206 Eh/α |
          | HOMO-LUMO GAP               8.312562474025 eV   |
           -------------------------------------------------

------------------------------------------------------------------------
 * finished run on 2024/12/20 at 01:52:51.635     
------------------------------------------------------------------------
 total:
 * wall-time:     0 d,  0 h,  0 min,  0.089 sec
 *  cpu-time:     0 d,  0 h,  0 min,  0.652 sec
 * ratio c/w:     7.327 speedup
 SCF:
 * wall-time:     0 d,  0 h,  0 min,  0.011 sec
 *  cpu-time:     0 d,  0 h,  0 min,  0.079 sec
 * ratio c/w:     6.923 speedup
 ANC optimizer:
 * wall-time:     0 d,  0 h,  0 min,  0.062 sec
 *  cpu-time:     0 d,  0 h,  0 min,  0.474 sec
 * ratio c/w:     7.621 speedup

