      -----------------------------------------------------------      
     |                   =====================                   |     
     |                           x T B                           |     
     |                   =====================                   |     
     |                         S. Grimme                         |     
     |          Mulliken Center for Theoretical Chemistry        |     
     |                    University of Bonn                     |     
      -----------------------------------------------------------      

   * xtb version 6.7.1 (edcfbbe) compiled by 'conda@3ef47c1a292c' on 2024-11-25

   xtb is free software: you can redistribute it and/or modify it under
   the terms of the GNU Lesser General Public License as published by
   the Free Software Foundation, either version 3 of the License, or
   (at your option) any later version.
   
   xtb is distributed in the hope that it will be useful,
   but WITHOUT ANY WARRANTY; without even the implied warranty of
   MERCHANTABILITY or FITNESS FOR A PARTICULAR PURPOSE.  See the
   GNU Lesser General Public License for more details.
   
   Cite this work as:
   * C. Bannwarth, E. Caldeweyher, S. Ehlert, A. Hansen, P. Pracht,
     J. Seibert, S. Spicher, S. Grimme, WIREs Comput. Mol. Sci., 2020, 11,
     e01493. DOI: 10.1002/wcms.1493
   
   for GFN2-xTB:
   * C. Bannwarth, S. Ehlert and S. Grimme., J. Chem. Theory Comput., 2019,
     15, 1652-1671. DOI: 10.1021/acs.jctc.8b01176
   for GFN1-xTB:
   * S. Grimme, C. Bannwarth, P. Shushkov, J. Chem. Theory Comput., 2017,
     13, 1989-2009. DOI: 10.1021/acs.jctc.7b00118
   for GFN0-xTB:
   * P. Pracht, E. Caldeweyher, S. Ehlert, S. Grimme, ChemRxiv, 2019, preprint.
     DOI: 10.26434/chemrxiv.8326202.v1
   for GFN-FF:
   * S. Spicher and S. Grimme, Angew. Chem. Int. Ed., 2020, 59, 15665-15673.
     DOI: 10.1002/anie.202004239
   
   for ALPB and GBSA implicit solvation:
   * S. Ehlert, M. Stahn, S. Spicher, S. Grimme, J. Chem. Theory Comput.,
     2021, 17, 4250-4261. DOI: 10.1021/acs.jctc.1c00471
   
   for ddCOSMO and CPCM-X implicit solvation:
   * M. Stahn, S. Ehlert, S. Grimme, J. Phys. Chem. A,
     2023, XX, XXXX-XXXX. DOI: 10.1021/acs.jpca.3c04382
   
   for DFT-D4:
   * E. Caldeweyher, C. Bannwarth and S. Grimme, J. Chem. Phys., 2017,
     147, 034112. DOI: 10.1063/1.4993215
   * E. Caldeweyher, S. Ehlert, A. Hansen, H. Neugebauer, S. Spicher,
     C. Bannwarth and S. Grimme, J. Chem. Phys., 2019, 150, 154122.
     DOI: 10.1063/1.5090222
   * E. Caldeweyher, J.-M. Mewes, S. Ehlert and S. Grimme, Phys. Chem. Chem. Phys.
     2020, 22, 8499-8512. DOI: 10.1039/D0CP00502A
   
   for sTDA-xTB:
   * S. Grimme and C. Bannwarth, J. Chem. Phys., 2016, 145, 054103.
     DOI: 10.1063/1.4959605
   
   in the mass-spec context:
   * V. Asgeirsson, C. Bauer and S. Grimme, Chem. Sci., 2017, 8, 4879.
     DOI: 10.1039/c7sc00601b
   * J. Koopman and S. Grimme, ACS Omega 2019, 4, 12, 15120-15133.
     DOI: 10.1021/acsomega.9b02011
   
   for metadynamics refer to:
   * S. Grimme, J. Chem. Theory Comput., 2019, 155, 2847-2862
     DOI: 10.1021/acs.jctc.9b00143
   
   for SPH calculations refer to:
   * S. Spicher and S. Grimme, J. Chem. Theory Comput., 2021, 17, 1701-1714
     DOI: 10.1021/acs.jctc.0c01306
   
   for ONIOM refer to:
   * C. Plett, A. Katbashev, S. Ehlert, S. Grimme, M. Bursch,
     Phys. Chem. Chem. Phys., 2023, 25, 17860-17868. DOI: 10.1039/D3CP02178E
   
   for DIPRO refer to:
   * J. Kohn, N. Gildemeister, S. Grimme, D. Fazzi, A. Hansen,
     J. Chem. Phys., 2023, just accepted.
   
   for PTB refer to:
   * S. Grimme, M. Mueller, A. Hansen, J. Chem. Phys., 2023, 158, 124111.
     DOI: 10.1063/5.0137838
   
   with help from (in alphabetical order)
   P. Atkinson, C. Bannwarth, F. Bohle, G. Brandenburg, E. Caldeweyher
   M. Checinski, S. Dohm, S. Ehlert, S. Ehrlich, I. Gerasimov, C. Hölzer
   A. Katbashev, J. Kohn, J. Koopman, C. Lavigne, S. Lehtola, F. März, M. Müller,
   F. Musil, H. Neugebauer, J. Pisarek, C. Plett, P. Pracht, F. Pultar,
   J. Seibert, P. Shushkov, S. Spicher, M. Stahn, M. Steiner, T. Strunk,
   J. Stückrath, T. Rose, and J. Unsleber
   
 * started run on 2024/12/20 at 01:52:51.642     
   ID    Z sym.   atoms
    1    6 C      1
    2    8 O      2-4
    3    1 H      5

           -------------------------------------------------
          |                Calculation Setup                |
           -------------------------------------------------

          program call               : xtb A060.xyz --opt --namespace A060 --charge -1
          calculation namespace      : A060
          coordinate file            : A060.xyz
          omp threads                :                     8


           -------------------------------------------------
          |                 G F N 2 - x T B                 |
           -------------------------------------------------

        Reference                      10.1021/acs.jctc.8b01176
      * Hamiltonian:
        H0-scaling (s, p, d)           1.850000    2.230000    2.230000
        zeta-weighting                 0.500000
      * Dispersion:
        s8                             2.700000
        a1                             0.520000
        a2                             5.000000
        s9                             5.000000
      * Repulsion:
        kExp                           1.500000    1.000000
        rExp                           1.000000
      * Coulomb:
        alpha                          2.000000
        third order                    shell-resolved
        anisotropic                    true
        a3                             3.000000
        a5                             4.000000
        cn-shift                       1.200000
        cn-exp                         4.000000
        max-rad                        5.000000


          ...................................................
          :                      SETUP                      :
          :.................................................:
          :  # basis functions                  17          :
          :  # atomic orbitals                  17          :
          :  # shells                            9          :
          :  # electrons                        24          :
          :  max. iterations                   250          :
          :  Hamiltonian                  GFN2-xTB          :
          :  restarted?                      false          :
          :  GBSA solvation                  false          :
          :  PC potential                    false          :
          :  electronic temp.          300.0000000     K    :
          :  accuracy                    1.0000000          :
          :  -> integral cutoff          0.2500000E+02      :
          :  -> integral neglect         0.1000000E-07      :
          :  -> SCF convergence          0.1000000E-05 Eh   :
          :  -> wf. convergence          0.1000000E-03 e    :
          :  Broyden damping             0.4000000          :
          :  net charge                         -1          :
          :  unpaired electrons                  0          :
          ...................................................

 iter      E             dE          RMSdq      gap      omega  full diag
   1    -15.1162235 -0.151162E+02  0.695E+00    7.50       0.0  T
   2    -15.1676826 -0.514591E-01  0.336E+00    6.04       1.0  T
   3    -15.1697096 -0.202695E-02  0.182E+00    6.36       1.0  T
   4    -15.1708419 -0.113234E-02  0.278E-01    6.11       1.0  T
   5    -15.1709685 -0.126642E-03  0.915E-02    6.20       1.0  T
   6    -15.1709774 -0.886377E-05  0.458E-02    6.16       1.0  T
   7    -15.1709850 -0.754740E-05  0.116E-02    6.18       3.9  T
   8    -15.1709851 -0.144124E-06  0.537E-03    6.18       8.3  T
   9    -15.1709852 -0.113741E-06  0.532E-04    6.18      84.0  T
  10    -15.1709852 -0.167049E-10  0.874E-05    6.18     511.5  T

   *** convergence criteria satisfied after 10 iterations ***

         #    Occupation            Energy/Eh            Energy/eV
      -------------------------------------------------------------
         1        2.0000           -0.5267460             -14.3335
       ...           ...                  ...                  ...
         6        2.0000           -0.3492892              -9.5046
         7        2.0000           -0.3284209              -8.9368
         8        2.0000           -0.2698587              -7.3432
         9        2.0000           -0.2460570              -6.6956
        10        2.0000           -0.1912842              -5.2051
        11        2.0000           -0.1840112              -5.0072
        12        2.0000           -0.1773014              -4.8246 (HOMO)
        13                          0.0497438               1.3536 (LUMO)
        14                          0.3088790               8.4050
        15                          0.4675681              12.7232
        16                          0.5785052              15.7419
        17                          0.8620904              23.4587
      -------------------------------------------------------------
                  HL-Gap            0.2270453 Eh            6.1782 eV
             Fermi-level           -0.0637788 Eh           -1.7355 eV

 SCC (total)                   0 d,  0 h,  0 min,  0.004 sec
 SCC setup                      ...        0 min,  0.000 sec (  5.978%)
 Dispersion                     ...        0 min,  0.000 sec (  0.540%)
 classical contributions        ...        0 min,  0.000 sec (  5.522%)
 integral evaluation            ...        0 min,  0.000 sec (  9.948%)
 iterations                     ...        0 min,  0.003 sec ( 65.972%)
 molecular gradient             ...        0 min,  0.000 sec (  9.354%)
 printout                       ...        0 min,  0.000 sec (  2.323%)

         :::::::::::::::::::::::::::::::::::::::::::::::::::::
         ::                     SUMMARY                     ::
         :::::::::::::::::::::::::::::::::::::::::::::::::::::
         :: total energy             -15.090554361388 Eh    ::
         :: gradient norm              0.099679605313 Eh/a0 ::
         :: HOMO-LUMO gap              6.178216100220 eV    ::
         ::.................................................::
         :: SCC energy               -15.170985179312 Eh    ::
         :: -> isotropic ES            0.246352267856 Eh    ::
         :: -> anisotropic ES         -0.007653823659 Eh    ::
         :: -> anisotropic XC         -0.006540323467 Eh    ::
         :: -> dispersion             -0.001953783218 Eh    ::
         :: repulsion energy           0.080430817924 Eh    ::
         :: add. restraining           0.000000000000 Eh    ::
         :: total charge              -1.000000000000 e     ::
         :::::::::::::::::::::::::::::::::::::::::::::::::::::

      ----------------------------------------------------------- 
     |                   =====================                   |
     |                        A N C O P T                        |
     |                   =====================                   |
     |               Approximate Normal Coordinate               |
     |                Rational Function Optimizer                |
      ----------------------------------------------------------- 
      ----------------------------------------------------------- 
     |                   =====================                   |
     |                        A N C O P T                        |
     |                   =====================                   |
     |               Approximate Normal Coordinate               |
     |                Rational Function Optimizer                |
      ----------------------------------------------------------- 

          ...................................................
          :                      SETUP                      :
          :.................................................:
          :   optimization level            normal          :
          :   max. optcycles                   200          :
          :   ANC micro-cycles                  20          :
          :   degrees of freedom                 9          :
          :.................................................:
          :   RF solver                   davidson          :
          :   write xtbopt.log                true          :
          :   linear?                        false          :
          :   energy convergence         0.5000000E-05 Eh   :
          :   grad. convergence          0.1000000E-02 Eh/α :
          :   maxmium RF displ.          1.0000000          :
          :   Hlow (freq-cutoff)         0.1000000E-01      :
          :   Hmax (freq-cutoff)         5.0000000          :
          :   S6 in model hess.         20.0000000          :
          ...................................................

generating ANC from exact Hessian ...
Using Lindh-Hessian (1995)
 Shifting diagonal of input Hessian by    0.0000000000000000     
 Lowest  eigenvalues of input Hessian
    0.000000    0.000000    0.000000    0.000000    0.000000    0.000000
    0.052253    0.072865    0.202345    0.328201    0.513836    0.933918
    1.328287    2.145289    2.548095
 Highest eigenvalues
    0.328201    0.513836    0.933918    1.328287    2.145289    2.548095


........................................................................
.............................. CYCLE    1 ..............................
........................................................................

 iter      E             dE          RMSdq      gap      omega  full diag
   1    -15.1709852 -0.151710E+02  0.169E-05    6.18       0.0  T
   2    -15.1709852 -0.781597E-13  0.103E-05    6.18    4355.5  T
   3    -15.1709852 -0.142109E-13  0.299E-06    6.18   14954.8  T
     SCC iter.                  ...        0 min,  0.001 sec
     gradient                   ...        0 min,  0.000 sec
 * total energy  :   -15.0905544 Eh     change       -0.2673239E-10 Eh
   gradient norm :     0.0996809 Eh/α   predicted     0.0000000E+00 (-100.00%)
   displ. norm   :     0.1702302 α      lambda       -0.1039338E-01
   maximum displ.:     0.1531607 α      in ANC's #3, #5, #4, ...

........................................................................
.............................. CYCLE    2 ..............................
........................................................................

 iter      E             dE          RMSdq      gap      omega  full diag
   1    -15.1790648 -0.151791E+02  0.305E-01    6.14       0.0  T
   2    -15.1793247 -0.259895E-03  0.164E-01    6.22       1.0  T
   3    -15.1793396 -0.149615E-04  0.970E-02    6.21       1.0  T
   4    -15.1793409 -0.127948E-05  0.360E-02    6.22       1.2  T
   5    -15.1793421 -0.122526E-05  0.724E-03    6.22       6.2  T
   6    -15.1793422 -0.212185E-07  0.367E-03    6.22      12.2  T
   7    -15.1793422 -0.615573E-08  0.116E-03    6.22      38.6  T
   8    -15.1793422 -0.399240E-09  0.879E-05    6.22     508.6  T
   9    -15.1793422 -0.165734E-11  0.291E-05    6.22    1538.2  T
     SCC iter.                  ...        0 min,  0.001 sec
     gradient                   ...        0 min,  0.001 sec
 * total energy  :   -15.0986003 Eh     change       -0.8045939E-02 Eh
   gradient norm :     0.0551762 Eh/α   predicted    -0.5347281E-02 ( -33.54%)
   displ. norm   :     0.2375674 α      lambda       -0.8048046E-02
   maximum displ.:     0.2225382 α      in ANC's #3, #8, #4, ...

........................................................................
.............................. CYCLE    3 ..............................
........................................................................

 iter      E             dE          RMSdq      gap      omega  full diag
   1    -15.1878763 -0.151879E+02  0.392E-01    6.24       0.0  T
   2    -15.1883178 -0.441495E-03  0.200E-01    6.31       1.0  T
   3    -15.1883420 -0.241867E-04  0.120E-01    6.31       1.0  T
   4    -15.1883431 -0.108983E-05  0.407E-02    6.33       1.1  T
   5    -15.1883453 -0.220288E-05  0.942E-03    6.32       4.7  T
   6    -15.1883453 -0.413239E-07  0.241E-03    6.32      18.5  T
   7    -15.1883453 -0.197262E-08  0.509E-04    6.32      87.8  T
   8    -15.1883453 -0.469496E-09  0.938E-05    6.32     476.8  T
     SCC iter.                  ...        0 min,  0.001 sec
     gradient                   ...        0 min,  0.000 sec
 * total energy  :   -15.1036100 Eh     change       -0.5009659E-02 Eh
   gradient norm :     0.0224904 Eh/α   predicted    -0.4251132E-02 ( -15.14%)
   displ. norm   :     0.1138082 α      lambda       -0.1396226E-02
   maximum displ.:     0.1092264 α      in ANC's #3, #8, #7, ...

........................................................................
.............................. CYCLE    4 ..............................
........................................................................

 iter      E             dE          RMSdq      gap      omega  full diag
   1    -15.1895350 -0.151895E+02  0.198E-01    6.30       0.0  T
   2    -15.1896437 -0.108703E-03  0.101E-01    6.35       1.0  T
   3    -15.1896484 -0.468380E-05  0.588E-02    6.34       1.0  T
   4    -15.1896487 -0.227370E-06  0.207E-02    6.35       2.2  T
   5    -15.1896491 -0.409427E-06  0.391E-03    6.35      11.4  T
   6    -15.1896491 -0.709330E-08  0.210E-03    6.35      21.3  T
   7    -15.1896491 -0.182576E-08  0.531E-04    6.35      84.2  T
   8    -15.1896491 -0.901821E-10  0.472E-05    6.35     946.5  T
     SCC iter.                  ...        0 min,  0.001 sec
     gradient                   ...        0 min,  0.000 sec
 * total energy  :   -15.1045578 Eh     change       -0.9478301E-03 Eh
   gradient norm :     0.0125440 Eh/α   predicted    -0.7071546E-03 ( -25.39%)
   displ. norm   :     0.0724060 α      lambda       -0.4825780E-03
   maximum displ.:     0.0666699 α      in ANC's #3, #5, #8, ...

........................................................................
.............................. CYCLE    5 ..............................
........................................................................

 iter      E             dE          RMSdq      gap      omega  full diag
   1    -15.1902434 -0.151902E+02  0.122E-01    6.36       0.0  T
   2    -15.1902822 -0.387270E-04  0.623E-02    6.38       1.0  T
   3    -15.1902834 -0.128474E-05  0.359E-02    6.38       1.2  T
   4    -15.1902835 -0.661513E-07  0.990E-03    6.38       4.5  T
   5    -15.1902836 -0.864784E-07  0.228E-03    6.38      19.6  T
   6    -15.1902836 -0.445375E-08  0.116E-03    6.38      38.6  T
   7    -15.1902836 -0.465032E-09  0.238E-04    6.38     187.9  T
   8    -15.1902836 -0.158380E-10  0.224E-05    6.38    1997.2  T
     SCC iter.                  ...        0 min,  0.001 sec
     gradient                   ...        0 min,  0.000 sec
 * total energy  :   -15.1048607 Eh     change       -0.3029560E-03 Eh
   gradient norm :     0.0057250 Eh/α   predicted    -0.2425528E-03 ( -19.94%)
   displ. norm   :     0.0294527 α      lambda       -0.1076480E-03
   maximum displ.:     0.0199008 α      in ANC's #3, #4, #5, ...

........................................................................
.............................. CYCLE    6 ..............................
........................................................................

 iter      E             dE          RMSdq      gap      omega  full diag
   1    -15.1908584 -0.151909E+02  0.448E-02    6.40       0.0  T
   2    -15.1908604 -0.203662E-05  0.251E-02    6.40       1.8  T
   3    -15.1908605 -0.600352E-07  0.114E-02    6.40       3.9  T
   4    -15.1908605 -0.109814E-07  0.195E-03    6.40      23.0  T
   5    -15.1908605 -0.619644E-08  0.771E-04    6.40      58.0  T
   6    -15.1908605 -0.416282E-09  0.362E-04    6.40     123.7  T
     SCC iter.                  ...        0 min,  0.001 sec
     gradient                   ...        0 min,  0.000 sec
 * total energy  :   -15.1049176 Eh     change       -0.5681127E-04 Eh
   gradient norm :     0.0039635 Eh/α   predicted    -0.5386941E-04 (  -5.18%)
   displ. norm   :     0.0385264 α      lambda       -0.1033907E-03
   maximum displ.:     0.0197866 α      in ANC's #1, #2, #4, ...

........................................................................
.............................. CYCLE    7 ..............................
........................................................................

 iter      E             dE          RMSdq      gap      omega  full diag
   1    -15.1914266 -0.151914E+02  0.671E-02    6.43       0.0  T
   2    -15.1914276 -0.106612E-05  0.405E-02    6.43       1.1  T
   3    -15.1914275  0.800224E-07  0.116E-02    6.43       3.8  T
   4    -15.1914277 -0.190325E-06  0.139E-03    6.43      32.2  T
   5    -15.1914277 -0.156365E-08  0.830E-04    6.43      53.9  T
   6    -15.1914277 -0.172989E-09  0.899E-05    6.43     497.2  T
     SCC iter.                  ...        0 min,  0.001 sec
     gradient                   ...        0 min,  0.000 sec
 * total energy  :   -15.1048765 Eh     change        0.4104891E-04 Eh
   gradient norm :     0.0065913 Eh/α   predicted    -0.5177417E-04 (-226.13%)
   displ. norm   :     0.0264463 α      lambda       -0.1302362E-03
   maximum displ.:     0.0141384 α      in ANC's #3, #1, #2, ...

........................................................................
.............................. CYCLE    8 ..............................
........................................................................

 iter      E             dE          RMSdq      gap      omega  full diag
   1    -15.1912404 -0.151912E+02  0.476E-02    6.42       0.0  T
   2    -15.1912420 -0.162342E-05  0.276E-02    6.42       1.6  T
   3    -15.1912420 -0.511041E-07  0.103E-02    6.42       4.4  T
   4    -15.1912420 -0.651440E-08  0.131E-03    6.42      34.0  T
   5    -15.1912420 -0.109400E-08  0.490E-04    6.42      91.3  T
   6    -15.1912420 -0.466684E-10  0.149E-04    6.42     300.6  T
     SCC iter.                  ...        0 min,  0.001 sec
     gradient                   ...        0 min,  0.000 sec
 * total energy  :   -15.1049441 Eh     change       -0.6759368E-04 Eh
   gradient norm :     0.0019341 Eh/α   predicted    -0.6516400E-04 (  -3.59%)
   displ. norm   :     0.0029544 α      lambda       -0.2866653E-05
   maximum displ.:     0.0020776 α      in ANC's #8, #3, #6, ...

........................................................................
.............................. CYCLE    9 ..............................
........................................................................

 iter      E             dE          RMSdq      gap      omega  full diag
   1    -15.1911700 -0.151912E+02  0.136E-02    6.42       0.0  T
   2    -15.1911706 -0.630103E-06  0.611E-03    6.41       7.3  T
   3    -15.1911707 -0.295176E-07  0.369E-03    6.41      12.1  T
   4    -15.1911707 -0.838746E-09  0.174E-03    6.41      25.6  T
   5    -15.1911707 -0.212371E-08  0.206E-04    6.41     216.8  T
   6    -15.1911707 -0.114877E-10  0.731E-05    6.41     611.6  T
     SCC iter.                  ...        0 min,  0.001 sec
     gradient                   ...        0 min,  0.000 sec
 * total energy  :   -15.1049472 Eh     change       -0.3115700E-05 Eh
   gradient norm :     0.0011439 Eh/α   predicted    -0.1432674E-05 ( -54.02%)
   displ. norm   :     0.0047506 α      lambda       -0.2544610E-05
   maximum displ.:     0.0036278 α      in ANC's #3, #8, #6, ...

........................................................................
.............................. CYCLE   10 ..............................
........................................................................

 iter      E             dE          RMSdq      gap      omega  full diag
   1    -15.1911194 -0.151911E+02  0.135E-02    6.41       0.0  T
   2    -15.1911200 -0.614120E-06  0.609E-03    6.41       7.3  T
   3    -15.1911201 -0.316267E-07  0.372E-03    6.41      12.0  T
   4    -15.1911201 -0.129830E-08  0.187E-03    6.41      24.0  T
   5    -15.1911201 -0.193009E-08  0.221E-04    6.41     202.8  T
   6    -15.1911201 -0.156390E-10  0.500E-05    6.41     894.2  T
     SCC iter.                  ...        0 min,  0.000 sec
     gradient                   ...        0 min,  0.000 sec
 * total energy  :   -15.1049494 Eh     change       -0.2162465E-05 Eh
   gradient norm :     0.0003114 Eh/α   predicted    -0.1272102E-05 ( -41.17%)
   displ. norm   :     0.0020296 α      lambda       -0.2283239E-06
   maximum displ.:     0.0018989 α      in ANC's #3, #7, #5, ...

   *** GEOMETRY OPTIMIZATION CONVERGED AFTER 10 ITERATIONS ***

------------------------------------------------------------------------
 total energy gain   :        -0.0143950 Eh       -9.0330 kcal/mol
 total RMSD          :         0.2662474 a0        0.1409 Å
 total power (kW/mol):        -3.7794115 (step)-2953.3161 (real)
------------------------------------------------------------------------

 ANCopt (total)                0 d,  0 h,  0 min,  0.013 sec
 optimizer setup                ...        0 min,  0.000 sec (  0.452%)
 model hessian                  ...        0 min,  0.000 sec (  0.841%)
 ANC generation                 ...        0 min,  0.000 sec (  0.492%)
 coordinate transformation      ...        0 min,  0.000 sec (  0.329%)
 single point calculation       ...        0 min,  0.011 sec ( 88.373%)
 optimization log               ...        0 min,  0.000 sec (  2.274%)
 hessian update                 ...        0 min,  0.000 sec (  0.376%)
 rational function              ...        0 min,  0.001 sec (  3.995%)

================
 final structure:
================
5
 xtb: 6.7.1 (edcfbbe)
C            1.00796626707323       -0.14249953369714        0.00182853569066
O            0.23826398666189       -1.00778552723223        0.41391740343917
O            0.32888225437605        1.02113608377702       -0.55218065132244
O            2.22447707521173       -0.07601419847925       -0.02974710784167
H           -0.61156958332291        0.82731317563161       -0.45989817996572

 Bond Distances (Angstroems)
 ---------------------------
C1-O2=1.2292         C1-O3=1.4568         C1-O4=1.2187         O2-C1=1.2292         O3-C1=1.4568         O3-H5=0.9646         
O4-C1=1.2187         H5-O3=0.9646         
 O  H  Rav=0.9646 sigma=0.0000  Rmin=0.9646  Rmax=0.9646     1
 O  C  Rav=1.3016 sigma=0.1098  Rmin=1.2187  Rmax=1.4568     3

 selected bond angles (degree)
 --------------------
O3-C1-O2=113.45                O4-C1-O2=132.23                O4-C1-O3=114.32                H5-O3-C1=104.93                

 selected dihedral angles (degree)
 ---------------------------------
H5-O3-C1-O2=  0.00            H5-O3-C1-O4=180.00            
           -------------------------------------------------
          |                Final Singlepoint                |
           -------------------------------------------------

          ...................................................
          :                      SETUP                      :
          :.................................................:
          :  # basis functions                  17          :
          :  # atomic orbitals                  17          :
          :  # shells                            9          :
          :  # electrons                        24          :
          :  max. iterations                   250          :
          :  Hamiltonian                  GFN2-xTB          :
          :  restarted?                      false          :
          :  GBSA solvation                  false          :
          :  PC potential                    false          :
          :  electronic temp.          300.0000000     K    :
          :  accuracy                    1.0000000          :
          :  -> integral cutoff          0.2500000E+02      :
          :  -> integral neglect         0.1000000E-07      :
          :  -> SCF convergence          0.1000000E-05 Eh   :
          :  -> wf. convergence          0.1000000E-03 e    :
          :  Broyden damping             0.4000000          :
          :  net charge                         -1          :
          :  unpaired electrons                  0          :
          ...................................................

 iter      E             dE          RMSdq      gap      omega  full diag
   1    -15.1911201 -0.151911E+02  0.203E-05    6.41       0.0  T
   2    -15.1911201 -0.959233E-13  0.123E-05    6.41    3644.0  T
   3    -15.1911201 -0.159872E-13  0.335E-06    6.41   13359.3  T

   *** convergence criteria satisfied after 3 iterations ***

         #    Occupation            Energy/Eh            Energy/eV
      -------------------------------------------------------------
         1        2.0000           -0.4988857             -13.5754
       ...           ...                  ...                  ...
         6        2.0000           -0.3356907              -9.1346
         7        2.0000           -0.3317875              -9.0284
         8        2.0000           -0.2803205              -7.6279
         9        2.0000           -0.2465135              -6.7080
        10        2.0000           -0.2014777              -5.4825
        11        2.0000           -0.1943372              -5.2882
        12        2.0000           -0.1871143              -5.0916 (HOMO)
        13                          0.0483963               1.3169 (LUMO)
        14                          0.2815934               7.6625
        15                          0.3484425               9.4816
        16                          0.6325540              17.2127
        17                          0.9434141              25.6716
      -------------------------------------------------------------
                  HL-Gap            0.2355106 Eh            6.4086 eV
             Fermi-level           -0.0693590 Eh           -1.8874 eV

 SCC (total)                   0 d,  0 h,  0 min,  0.001 sec
 SCC setup                      ...        0 min,  0.000 sec (  4.498%)
 Dispersion                     ...        0 min,  0.000 sec (  1.334%)
 classical contributions        ...        0 min,  0.000 sec (  0.627%)
 integral evaluation            ...        0 min,  0.000 sec ( 18.174%)
 iterations                     ...        0 min,  0.000 sec ( 31.338%)
 molecular gradient             ...        0 min,  0.000 sec ( 37.291%)
 printout                       ...        0 min,  0.000 sec (  5.268%)

         :::::::::::::::::::::::::::::::::::::::::::::::::::::
         ::                     SUMMARY                     ::
         :::::::::::::::::::::::::::::::::::::::::::::::::::::
         :: total energy             -15.104949379625 Eh    ::
         :: gradient norm              0.000311951576 Eh/a0 ::
         :: HOMO-LUMO gap              6.408568837846 eV    ::
         ::.................................................::
         :: SCC energy               -15.191120033242 Eh    ::
         :: -> isotropic ES            0.236623524390 Eh    ::
         :: -> anisotropic ES         -0.005888465438 Eh    ::
         :: -> anisotropic XC         -0.005476984757 Eh    ::
         :: -> dispersion             -0.001949603828 Eh    ::
         :: repulsion energy           0.086170653618 Eh    ::
         :: add. restraining           0.000000000000 Eh    ::
         :: total charge              -1.000000000000 e     ::
         :::::::::::::::::::::::::::::::::::::::::::::::::::::

           -------------------------------------------------
          |                Property Printout                |
           -------------------------------------------------

    * Orbital Energies and Occupations

         #    Occupation            Energy/Eh            Energy/eV
      -------------------------------------------------------------
         1        2.0000           -0.4988857             -13.5754
         2        2.0000           -0.4750323             -12.9263
         3        2.0000           -0.4665925             -12.6966
         4        2.0000           -0.3961429             -10.7796
         5        2.0000           -0.3519978              -9.5783
         6        2.0000           -0.3356907              -9.1346
         7        2.0000           -0.3317875              -9.0284
         8        2.0000           -0.2803205              -7.6279
         9        2.0000           -0.2465135              -6.7080
        10        2.0000           -0.2014777              -5.4825
        11        2.0000           -0.1943372              -5.2882
        12        2.0000           -0.1871143              -5.0916 (HOMO)
        13                          0.0483963               1.3169 (LUMO)
        14                          0.2815934               7.6625
        15                          0.3484425               9.4816
        16                          0.6325540              17.2127
        17                          0.9434141              25.6716
      -------------------------------------------------------------
                  HL-Gap            0.2355106 Eh            6.4086 eV
             Fermi-level           -0.0693590 Eh           -1.8874 eV

     #   Z          covCN         q      C6AA      α(0)
     1   6 C        2.555     0.484    19.021     7.129
     2   8 O        0.856    -0.620    26.625     6.918
     3   8 O        1.649    -0.541    23.806     6.586
     4   8 O        0.856    -0.581    25.645     6.790
     5   1 H        0.805     0.258     0.862     1.458

 Mol. C6AA /au·bohr⁶  :        413.371856
 Mol. C8AA /au·bohr⁸  :       8880.293438
 Mol. α(0) /au        :         28.880883


Wiberg/Mayer (AO) data.
largest (>0.10) Wiberg bond orders for each atom

 ---------------------------------------------------------------------------
     #   Z sym  total        # sym  WBO       # sym  WBO       # sym  WBO
 ---------------------------------------------------------------------------
     1   6 C    3.920 --     4 O    1.554     2 O    1.511     3 O    0.855
     2   8 O    1.823 --     1 C    1.511     4 O    0.209
     3   8 O    1.967 --     5 H    0.918     1 C    0.855
     4   8 O    1.867 --     1 C    1.554     2 O    0.209
     5   1 H    0.933 --     3 O    0.918
 ---------------------------------------------------------------------------

Topologies differ in total number of bonds
Writing topology from bond orders to xtbtopo.mol

molecular dipole:
                 x           y           z       tot (Debye)
 q only:       -2.432       0.493      -0.110
   full:       -2.692       0.555      -0.140       6.995
molecular quadrupole (traceless):
                xx          xy          yy          xz          yz          zz
 q only:       -6.297      -0.723       1.021       0.798       2.488       5.276
  q+dip:       -7.360      -1.148       0.795       1.049       3.403       6.565
   full:       -7.471      -1.260       0.701       1.103       3.587       6.770

           -------------------------------------------------
          |                Geometry Summary                 |
           -------------------------------------------------

      molecular mass/u    :       61.0168914
   center of mass at/Å    :        0.9203076      -0.0308148      -0.0512916
  moments of inertia/u·Å² :        0.4020587E+02   0.4409037E+02   0.8429624E+02
rotational constants/cm⁻¹ :        0.4192829E+00   0.3823427E+00   0.1999808E+00

 * 3 selected distances

     #   Z          #   Z                                           value/Å
     1   6 C        2   8 O                                       1.2292188 (max)
     1   6 C        4   8 O                                       1.2187355
     3   8 O        5   1 H                                       0.9646415 (min)

 * 2 distinct bonds (by element types)

   Z      Z             #   av. dist./Å        max./Å        min./Å
   1 H    8 O           1     0.9646415     0.9646415     0.9646415
   6 C    8 O           2     1.2239772     1.2292188     1.2187355


optimized geometry written to: xtbopt.xyz


           -------------------------------------------------
          | TOTAL ENERGY              -15.104949379625 Eh   |
          | GRADIENT NORM               0.000311951576 Eh/α |
          | HOMO-LUMO GAP               6.408568837846 eV   |
           -------------------------------------------------

------------------------------------------------------------------------
 * finished run on 2024/12/20 at 01:52:51.674     
------------------------------------------------------------------------
 total:
 * wall-time:     0 d,  0 h,  0 min,  0.032 sec
 *  cpu-time:     0 d,  0 h,  0 min,  0.240 sec
 * ratio c/w:     7.547 speedup
 SCF:
 * wall-time:     0 d,  0 h,  0 min,  0.004 sec
 *  cpu-time:     0 d,  0 h,  0 min,  0.030 sec
 * ratio c/w:     7.651 speedup
 ANC optimizer:
 * wall-time:     0 d,  0 h,  0 min,  0.014 sec
 *  cpu-time:     0 d,  0 h,  0 min,  0.112 sec
 * ratio c/w:     7.955 speedup

