5
 energy: -15.090554361415 gnorm: 0.099680907332 xtb: 6.7.1 (edcfbbe)
C            0.97274000000000       -0.05521000000000       -0.03968000000000
O            0.12836000000000       -0.89293000000000        0.35921000000000
O            0.37273000000000        1.01189000000000       -0.54779000000000
O            2.22394000000000       -0.07114000000000       -0.03209000000000
H           -0.50975000000000        0.62954000000000       -0.36573000000000
5
 energy: -15.098600300872 gnorm: 0.055176190508 xtb: 6.7.1 (edcfbbe)
C            0.98670099727808       -0.07237630483168       -0.03149933937793
O            0.16661017809849       -0.92564013289942        0.37478330630258
O            0.35603363598729        1.02650498699395       -0.55475016284641
O            2.22040539859813       -0.08507108648718       -0.02545943074268
H           -0.54173020996200        0.67873253722434       -0.38915437333557
5
 energy: -15.103609959376 gnorm: 0.022492483480 xtb: 6.7.1 (edcfbbe)
C            1.00382633080051       -0.10289135257797       -0.01701179541864
O            0.21665344281966       -0.96748077265078        0.39471958231310
O            0.33321415955469        1.03529413895827       -0.55892660887804
O            2.22042515144076       -0.09684691541015       -0.01983508335693
H           -0.58609908461563        0.75407490168062       -0.42502609465950
5
 energy: -15.104557789443 gnorm: 0.012547820697 xtb: 6.7.1 (edcfbbe)
C            1.00911436840586       -0.12233780585659       -0.00754483982891
O            0.23291520944930       -0.98854799881330        0.40468736877293
O            0.32538719612642        1.03393300535712       -0.55831648220709
O            2.22593002101218       -0.09378088742259       -0.02138044264424
H           -0.60532679499377        0.79288368673536       -0.44352560409269
5
 energy: -15.104860745420 gnorm: 0.005727029068 xtb: 6.7.1 (edcfbbe)
C            1.01062805996066       -0.13753685502821       -0.00140370013460
O            0.23902607958491       -1.00206691753567        0.41145562519978
O            0.32395476010000        1.02953459455848       -0.55603226540025
O            2.22798833690184       -0.08544238711000       -0.02489440303105
H           -0.61357723654741        0.81766156511540       -0.45520525663389
5
 energy: -15.104917556687 gnorm: 0.003963992120 xtb: 6.7.1 (edcfbbe)
C            1.01004253028900       -0.14127834706888        0.00553750694095
O            0.23907450432733       -1.00728377563679        0.41239784024326
O            0.32574795443917        1.02541308462745       -0.55492605834648
O            2.22667644821034       -0.08015041356852       -0.02957940264396
H           -0.61352143726585        0.82544945164674       -0.45950988619377
5
 energy: -15.104876507780 gnorm: 0.006593136775 xtb: 6.7.1 (edcfbbe)
C            1.00875178363624       -0.15157475714148       -0.00361414161913
O            0.23789128079640       -1.00937802581022        0.41758007698392
O            0.32883155464034        1.02150994156657       -0.55076773518234
O            2.22427230247334       -0.07077750744700       -0.02813056291440
H           -0.61172692154632        0.83237034883213       -0.46114763726806
5
 energy: -15.104944101459 gnorm: 0.001934108700 xtb: 6.7.1 (edcfbbe)
C            1.00891369817153       -0.14370083412157        0.00227486310074
O            0.23765890546766       -1.00726876137152        0.41371008435696
O            0.32801830839177        1.02299995422334       -0.55304466068745
O            2.22487784302380       -0.07621008945439       -0.02960222950233
H           -0.61144875505476        0.82632973072415       -0.45941805726792
5
 energy: -15.104947217159 gnorm: 0.001143888480 xtb: 6.7.1 (edcfbbe)
C            1.00848604599786       -0.14270259610519        0.00223710079765
O            0.23753886490832       -1.00706196049549        0.41348006271882
O            0.32853275025592        1.02231585197971       -0.55279330757681
O            2.22467141416799       -0.07628071864562       -0.02975144766991
H           -0.61120907533009        0.82587942326658       -0.45925240826975
5
 energy: -15.104949379624 gnorm: 0.000311587154 xtb: 6.7.1 (edcfbbe)
C            1.00796626707323       -0.14249953369714        0.00182853569066
O            0.23826398666189       -1.00778552723223        0.41391740343917
O            0.32888225437605        1.02113608377702       -0.55218065132244
O            2.22447707521173       -0.07601419847925       -0.02974710784167
H           -0.61156958332291        0.82731317563161       -0.45989817996572
