14
 energy: -23.591766523807 gnorm: 0.081913468888 xtb: 6.7.1 (edcfbbe)
N            1.58095000000000       -1.09143000000000        0.00041000000000
C            2.33100000000000        0.02819000000000        0.00055000000000
N            1.55382000000000        1.12913000000000        0.00089000000000
C            0.26232000000000        0.71223000000000        0.00058000000000
C            0.27966000000000       -0.70621000000000        0.00047000000000
C           -0.91033000000000       -1.44196000000000        0.00041000000000
C           -2.11242000000000       -0.72803000000000       -0.00002000000000
C           -2.12956000000000        0.67566000000000       -0.00033000000000
C           -0.94524000000000        1.41869000000000        0.00027000000000
H            3.41295000000000        0.04144000000000        0.00038000000000
H           -0.85875000000000       -2.52048000000000        0.00061000000000
H           -3.05045000000000       -1.27555000000000       -0.00015000000000
H           -3.08065000000000        1.20014000000000       -0.00105000000000
H           -0.91998000000000        2.49815000000000        0.00038000000000
14
 energy: -23.599011005000 gnorm: 0.030248219299 xtb: 6.7.1 (edcfbbe)
N            1.58282553494882       -1.12242919417036        0.00049862016816
C            2.27733691748981        0.02752611565703        0.00062226022079
N            1.55494532438903        1.16016273982048        0.00065131332750
C            0.27320525356238        0.71989412852047        0.00053440346933
C            0.29072143065320       -0.71359940749832        0.00044379263320
C           -0.89939598368168       -1.43659548652386        0.00033240843980
C           -2.08575261830138       -0.72496473960272       -0.00005102564681
C           -2.10283089738984        0.67324692520448       -0.00021996231685
C           -0.93419220089790        1.41361679786248        0.00021390147970
H            3.35389805981799        0.04069386273395        0.00055554118116
H           -0.87471170765440       -2.51874471991488        0.00053715219586
H           -3.02841324999296       -1.26547469028718       -0.00021051375463
H           -3.05839668261841        1.19058913404221       -0.00073615102792
H           -0.93591918032465        2.49604853415624        0.00022825963070
14
 energy: -23.599630527104 gnorm: 0.010468815923 xtb: 6.7.1 (edcfbbe)
N            1.59021000353250       -1.12705483109509        0.00060633861632
C            2.26329585096038        0.02735029353449        0.00061231088939
N            1.56221987065131        1.16497001419705        0.00057379821061
C            0.27789283995484        0.72165630407858        0.00041320039254
C            0.29544422046183       -0.71523786983512        0.00045035657791
C           -0.89620886246520       -1.43179312126642        0.00029141730227
C           -2.08029577149097       -0.72407082997402       -0.00003834439467
C           -2.09735306851169        0.67248549802856       -0.00015160271568
C           -0.93089561527352        1.40890587283580        0.00009641323727
H            3.34324822268393        0.04054545362832        0.00073624953890
H           -0.88605158474814       -2.51586394014519        0.00038946371921
H           -3.02555369843057       -1.26069626770167       -0.00021839953771
H           -3.05543039935738        1.18587069615121       -0.00043669091212
H           -0.94720200796732        2.49290272756349        0.00007548907577
14
 energy: -23.599693424474 gnorm: 0.003270487136 xtb: 6.7.1 (edcfbbe)
N            1.59421351295559       -1.12617738491083        0.00062255331779
C            2.26275275769934        0.02734288391819        0.00069825703440
N            1.56624531854847        1.16419335601938        0.00049309419627
C            0.27855145063918        0.72198655469784        0.00033883232459
C            0.29610737158235       -0.71554729903673        0.00040882680147
C           -0.89567123186374       -1.43043710149059        0.00023543429387
C           -2.08100479027026       -0.72424416745235       -0.00001855645549
C           -2.09806371025210        0.67264054420588       -0.00009786109466
C           -0.93032615002701        1.40756588111695        0.00006540091200
H            3.34538967743135        0.04056491663381        0.00084319282925
H           -0.89042710156511       -2.51502815127272        0.00030548219336
H           -3.02651112103639       -1.26013536747269       -0.00016331304809
H           -3.05637378546789        1.18528346876587       -0.00032030389406
H           -0.95156219837379        2.49196186627798       -0.00001103941068
14
 energy: -23.599700195679 gnorm: 0.000860645785 xtb: 6.7.1 (edcfbbe)
N            1.59541440559664       -1.12553925962262        0.00065161813570
C            2.26347822229238        0.02735181116204        0.00066139427735
N            1.56746185038851        1.16358585957835        0.00051481274410
C            0.27830028129666        0.72202488912059        0.00030581220727
C            0.29585560173475       -0.71558980068339        0.00039785083848
C           -0.89546796471344       -1.43023248079698        0.00023067319217
C           -2.08172526501586       -0.72436153226513       -0.00001652854632
C           -2.09878539636564        0.67273973721600       -0.00010474042790
C           -0.93011760461263        1.40736612677652        0.00004944062907
H            3.34702888322446        0.04058319530236        0.00087375257381
H           -0.89172113609612       -2.51485878810358        0.00028973524752
H           -3.02683859286764       -1.26051961426674       -0.00014658296004
H           -3.05670920668634        1.18565940913030       -0.00029327004813
H           -0.95285407817572        2.49176044745226       -0.00001396786307
14
 energy: -23.599700618406 gnorm: 0.000248141471 xtb: 6.7.1 (edcfbbe)
N            1.59546588030720       -1.12548287344037        0.00062317743857
C            2.26371929181904        0.02735469319975        0.00073089386258
N            1.56751488475872        1.16353091713852        0.00047365386674
C            0.27811031935184        0.72202107826170        0.00030203910235
C            0.29566490819479       -0.71558980357158        0.00038701433487
C           -0.89529863395495       -1.43028833025085        0.00022643496432
C           -2.08187939866908       -0.72430501891244       -0.00001133757144
C           -2.09893769769964        0.67267920360085       -0.00009221905814
C           -0.92994940943848        1.40742576801831        0.00006099630186
H            3.34727280644552        0.04058578704274        0.00086984381955
H           -0.89202785485201       -2.51485340581012        0.00028958036152
H           -3.02664735387073       -1.26087252864344       -0.00014477115909
H           -3.05652594103695        1.18601721009420       -0.00029572816651
H           -0.95316180135527        2.49174730327273       -0.00001957809718
