11
 energy: -21.407203112717 gnorm: 0.063568680452 xtb: 6.7.1 (edcfbbe)
O            1.02406000000000       -0.02105000000000       -0.09836000000000
C            0.65626000000000        1.08850000000000       -0.95660000000000
C            1.24320000000000        2.41086000000000       -0.37329000000000
O            1.12350000000000        3.44621000000000       -1.08231000000000
O            1.76295000000000        2.25852000000000        0.77779000000000
C            1.17187000000000        0.81182000000000       -2.35316000000000
H            1.45670000000000        0.45223000000000        0.65661000000000
H           -0.43633000000000        1.15595000000000       -0.95164000000000
H            0.80434000000000       -0.15431000000000       -2.71493000000000
H            0.86301000000000        1.58924000000000       -3.05857000000000
H            2.26631000000000        0.75823000000000       -2.36101000000000
11
 energy: -21.410377747584 gnorm: 0.025203949486 xtb: 6.7.1 (edcfbbe)
O            1.01404853094816        0.00071213125311       -0.08078426771613
C            0.65903635767636        1.07091509425138       -0.96233103895999
C            1.24417038357277        2.39841850838145       -0.36436312574037
O            1.12176157533728        3.41957825412873       -1.05556971896660
O            1.76811710925467        2.25779201449477        0.76507530262181
C            1.17404716597789        0.79950571461550       -2.36404941288843
H            1.46811579556463        0.49735637229881        0.64337720284028
H           -0.43799246417765        1.15075858544160       -0.97142835307335
H            0.79261335005359       -0.15522199878855       -2.73713021425274
H            0.86738995642360        1.60108780525324       -3.03616867003386
H            2.26456223936869        0.75529751866996       -2.35209770383060
11
 energy: -21.411118200621 gnorm: 0.009928463371 xtb: 6.7.1 (edcfbbe)
O            1.00344948781820        0.00989665157321       -0.06664914270819
C            0.65431122450123        1.05279998908884       -0.95841260200427
C            1.24400578792661        2.39647525341834       -0.36902095859077
O            1.10423292369662        3.41889086403935       -1.04065567783151
O            1.78368733341123        2.24818986488435        0.74217125151759
C            1.17953873021944        0.79288687216984       -2.36393307509955
H            1.47907956295988        0.52461631299144        0.63486388440016
H           -0.44630494347166        1.14522915959106       -0.98408302865364
H            0.78379503441424       -0.14611492183102       -2.75629979944743
H            0.88341099201633        1.61649075164488       -3.01090372454405
H            2.26666386650787        0.73683920242970       -2.34254712703834
11
 energy: -21.411335296798 gnorm: 0.006282320957 xtb: 6.7.1 (edcfbbe)
O            0.99399461896459        0.01748956096802       -0.05588685608717
C            0.64511012650268        1.04219657512679       -0.95503737651710
C            1.23287180238944        2.39773665982578       -0.36857033988179
O            1.07675205031230        3.42177966680586       -1.03303388738146
O            1.82300989660261        2.23552165315535        0.71826050622731
C            1.18325694535338        0.78990024492894       -2.36105341683423
H            1.48413451886352        0.54420237696368        0.63179341063817
H           -0.45648424179558        1.13680889544271       -0.99486555256746
H            0.77685377562524       -0.13506716748700       -2.77548067584703
H            0.90761772994552        1.63059106750718       -2.99475307755074
H            2.26875277723629        0.71504046676270       -2.32684273419849
11
 energy: -21.411285379353 gnorm: 0.013892611324 xtb: 6.7.1 (edcfbbe)
O            0.97920661436000        0.02757462154408       -0.04345017464669
C            0.63683554454993        1.03383136321444       -0.95242141655464
C            1.24221853743294        2.39683439163252       -0.37823635479343
O            1.01651182649488        3.43477226099676       -1.01049283298375
O            1.85164006405532        2.22370780371048        0.69945511865373
C            1.18773890355167        0.78288335441430       -2.35748266510577
H            1.50856173403011        0.56466667638298        0.61832558778683
H           -0.46413530141950        1.13838410324954       -1.00718931362699
H            0.75489885948730       -0.11922994077744       -2.79918374864286
H            0.95173976265830        1.64690804729247       -2.97814280623257
H            2.27065345479903        0.66586731833988       -2.30665139385385
11
 energy: -21.411480998919 gnorm: 0.003455287108 xtb: 6.7.1 (edcfbbe)
O            0.98557432484735        0.02201355752932       -0.04984405155491
C            0.63816607234695        1.04031428917666       -0.95283498194107
C            1.23300099377522        2.39860885365145       -0.37426481121693
O            1.04086384594834        3.42826889593989       -1.02269406605760
O            1.84011326387620        2.22984373406058        0.70412391537483
C            1.18582182963487        0.78791824311535       -2.35615812850219
H            1.50345520352554        0.55128232707060        0.62154456931323
H           -0.46156543899767        1.13658481282355       -1.00084370970022
H            0.76181422242664       -0.12129406932002       -2.78764800373446
H            0.93944887127207        1.64093078229784       -2.98508462310247
H            2.26917681134447        0.68172857365478       -2.31176610887820
11
 energy: -21.411506150379 gnorm: 0.003026402458 xtb: 6.7.1 (edcfbbe)
O            0.98502859408692        0.02212222779424       -0.04912272110425
C            0.63696321886027        1.04117118130915       -0.95256989040249
C            1.23057829255615        2.39919253975730       -0.37526368490402
O            1.02963383520027        3.42929422071610       -1.02077927169780
O            1.84849932320949        2.23026579234817        0.69733547910175
C            1.18657830062312        0.78806437412720       -2.35459287174488
H            1.50483453605507        0.55089629385646        0.62043881829002
H           -0.46191847516378        1.13458596792034       -1.00121775725473
H            0.75608704353096       -0.11616382391179       -2.79061357362298
H            0.95057920024182        1.64516725898491       -2.98256067236840
H            2.26900613079969        0.67160396709792       -2.30652385429221
11
 energy: -21.411544164528 gnorm: 0.002687678220 xtb: 6.7.1 (edcfbbe)
O            0.98228431548951        0.02338473166438       -0.04577177648391
C            0.63304698956845        1.04305041620105       -0.95164986065565
C            1.22450433824919        2.40047538917872       -0.37778237763883
O            1.00075757379341        3.43149986118385       -1.01460007136737
O            1.86371875465233        2.23340281916825        0.68167684169408
C            1.18862097973636        0.78734492823851       -2.35027742114284
H            1.51803252779248        0.55033528151815        0.61244996858823
H           -0.46410557028570        1.13076990115209       -1.00342667246871
H            0.73858126647042       -0.10080623903716       -2.80038778818425
H            0.98300170952157        1.65652579745956       -2.97365679977823
H            2.26742711501197        0.64021711327259       -2.29204404256249
11
 energy: -21.411552527017 gnorm: 0.001402384658 xtb: 6.7.1 (edcfbbe)
O            0.98161511346081        0.02419140673239       -0.04432849862713
C            0.63226646143894        1.04275753127440       -0.95147025436443
C            1.22398830093484        2.40062087187992       -0.37880585215886
O            0.99235320524698        3.43251443637883       -1.01157421486346
O            1.87005412534390        2.23411291044810        0.67613645261892
C            1.18956928843857        0.78691285069063       -2.34973729630783
H            1.51827209326116        0.55060507625955        0.61163589599452
H           -0.46515832494774        1.12951070208308       -1.00399242037775
H            0.73556969833492       -0.09642098757439       -2.80343169029598
H            0.99090494486720        1.65833673332682       -2.97060463175741
H            2.26643509362042        0.63305846850067       -2.28929748986059
11
 energy: -21.411555077053 gnorm: 0.000686584986 xtb: 6.7.1 (edcfbbe)
O            0.97940496217293        0.02501901422838       -0.04199339460671
C            0.63065932414779        1.04127750592815       -0.95086560287327
C            1.22129660591146        2.40145751234063       -0.37980719623936
O            0.98325658680982        3.43335042922839       -1.00920301283421
O            1.87528319175210        2.23599267381372        0.66983705658028
C            1.19076716053391        0.78576439494709       -2.34895698516718
H            1.52459197511473        0.55048727987024        0.60748690113602
H           -0.46748112582616        1.12883879248092       -1.00489247891802
H            0.73039777716674       -0.09078721619222       -2.80848396421091
H            1.00225683420033        1.66247449053304       -2.96492670778596
H            2.26543670801635        0.62232512282165       -2.28366461508067
