      -----------------------------------------------------------      
     |                   =====================                   |     
     |                           x T B                           |     
     |                   =====================                   |     
     |                         S. Grimme                         |     
     |          Mulliken Center for Theoretical Chemistry        |     
     |                    University of Bonn                     |     
      -----------------------------------------------------------      

   * xtb version 6.7.1 (edcfbbe) compiled by 'conda@3ef47c1a292c' on 2024-11-25

   xtb is free software: you can redistribute it and/or modify it under
   the terms of the GNU Lesser General Public License as published by
   the Free Software Foundation, either version 3 of the License, or
   (at your option) any later version.
   
   xtb is distributed in the hope that it will be useful,
   but WITHOUT ANY WARRANTY; without even the implied warranty of
   MERCHANTABILITY or FITNESS FOR A PARTICULAR PURPOSE.  See the
   GNU Lesser General Public License for more details.
   
   Cite this work as:
   * C. Bannwarth, E. Caldeweyher, S. Ehlert, A. Hansen, P. Pracht,
     J. Seibert, S. Spicher, S. Grimme, WIREs Comput. Mol. Sci., 2020, 11,
     e01493. DOI: 10.1002/wcms.1493
   
   for GFN2-xTB:
   * C. Bannwarth, S. Ehlert and S. Grimme., J. Chem. Theory Comput., 2019,
     15, 1652-1671. DOI: 10.1021/acs.jctc.8b01176
   for GFN1-xTB:
   * S. Grimme, C. Bannwarth, P. Shushkov, J. Chem. Theory Comput., 2017,
     13, 1989-2009. DOI: 10.1021/acs.jctc.7b00118
   for GFN0-xTB:
   * P. Pracht, E. Caldeweyher, S. Ehlert, S. Grimme, ChemRxiv, 2019, preprint.
     DOI: 10.26434/chemrxiv.8326202.v1
   for GFN-FF:
   * S. Spicher and S. Grimme, Angew. Chem. Int. Ed., 2020, 59, 15665-15673.
     DOI: 10.1002/anie.202004239
   
   for ALPB and GBSA implicit solvation:
   * S. Ehlert, M. Stahn, S. Spicher, S. Grimme, J. Chem. Theory Comput.,
     2021, 17, 4250-4261. DOI: 10.1021/acs.jctc.1c00471
   
   for ddCOSMO and CPCM-X implicit solvation:
   * M. Stahn, S. Ehlert, S. Grimme, J. Phys. Chem. A,
     2023, XX, XXXX-XXXX. DOI: 10.1021/acs.jpca.3c04382
   
   for DFT-D4:
   * E. Caldeweyher, C. Bannwarth and S. Grimme, J. Chem. Phys., 2017,
     147, 034112. DOI: 10.1063/1.4993215
   * E. Caldeweyher, S. Ehlert, A. Hansen, H. Neugebauer, S. Spicher,
     C. Bannwarth and S. Grimme, J. Chem. Phys., 2019, 150, 154122.
     DOI: 10.1063/1.5090222
   * E. Caldeweyher, J.-M. Mewes, S. Ehlert and S. Grimme, Phys. Chem. Chem. Phys.
     2020, 22, 8499-8512. DOI: 10.1039/D0CP00502A
   
   for sTDA-xTB:
   * S. Grimme and C. Bannwarth, J. Chem. Phys., 2016, 145, 054103.
     DOI: 10.1063/1.4959605
   
   in the mass-spec context:
   * V. Asgeirsson, C. Bauer and S. Grimme, Chem. Sci., 2017, 8, 4879.
     DOI: 10.1039/c7sc00601b
   * J. Koopman and S. Grimme, ACS Omega 2019, 4, 12, 15120-15133.
     DOI: 10.1021/acsomega.9b02011
   
   for metadynamics refer to:
   * S. Grimme, J. Chem. Theory Comput., 2019, 155, 2847-2862
     DOI: 10.1021/acs.jctc.9b00143
   
   for SPH calculations refer to:
   * S. Spicher and S. Grimme, J. Chem. Theory Comput., 2021, 17, 1701-1714
     DOI: 10.1021/acs.jctc.0c01306
   
   for ONIOM refer to:
   * C. Plett, A. Katbashev, S. Ehlert, S. Grimme, M. Bursch,
     Phys. Chem. Chem. Phys., 2023, 25, 17860-17868. DOI: 10.1039/D3CP02178E
   
   for DIPRO refer to:
   * J. Kohn, N. Gildemeister, S. Grimme, D. Fazzi, A. Hansen,
     J. Chem. Phys., 2023, just accepted.
   
   for PTB refer to:
   * S. Grimme, M. Mueller, A. Hansen, J. Chem. Phys., 2023, 158, 124111.
     DOI: 10.1063/5.0137838
   
   with help from (in alphabetical order)
   P. Atkinson, C. Bannwarth, F. Bohle, G. Brandenburg, E. Caldeweyher
   M. Checinski, S. Dohm, S. Ehlert, S. Ehrlich, I. Gerasimov, C. Hölzer
   A. Katbashev, J. Kohn, J. Koopman, C. Lavigne, S. Lehtola, F. März, M. Müller,
   F. Musil, H. Neugebauer, J. Pisarek, C. Plett, P. Pracht, F. Pultar,
   J. Seibert, P. Shushkov, S. Spicher, M. Stahn, M. Steiner, T. Strunk,
   J. Stückrath, T. Rose, and J. Unsleber
   
 * started run on 2024/12/20 at 01:52:52.967     
   ID    Z sym.   atoms
    1    6 C      1-3
    2    5 B      4
    3    9 F      5-7
    4    1 H      8-14

           -------------------------------------------------
          |                Calculation Setup                |
           -------------------------------------------------

          program call               : xtb A069.xyz --opt --namespace A069 --charge -1
          calculation namespace      : A069
          coordinate file            : A069.xyz
          omp threads                :                     8


           -------------------------------------------------
          |                 G F N 2 - x T B                 |
           -------------------------------------------------

        Reference                      10.1021/acs.jctc.8b01176
      * Hamiltonian:
        H0-scaling (s, p, d)           1.850000    2.230000    2.230000
        zeta-weighting                 0.500000
      * Dispersion:
        s8                             2.700000
        a1                             0.520000
        a2                             5.000000
        s9                             5.000000
      * Repulsion:
        kExp                           1.500000    1.000000
        rExp                           1.000000
      * Coulomb:
        alpha                          2.000000
        third order                    shell-resolved
        anisotropic                    true
        a3                             3.000000
        a5                             4.000000
        cn-shift                       1.200000
        cn-exp                         4.000000
        max-rad                        5.000000


          ...................................................
          :                      SETUP                      :
          :.................................................:
          :  # basis functions                  35          :
          :  # atomic orbitals                  35          :
          :  # shells                           21          :
          :  # electrons                        44          :
          :  max. iterations                   250          :
          :  Hamiltonian                  GFN2-xTB          :
          :  restarted?                      false          :
          :  GBSA solvation                  false          :
          :  PC potential                    false          :
          :  electronic temp.          300.0000000     K    :
          :  accuracy                    1.0000000          :
          :  -> integral cutoff          0.2500000E+02      :
          :  -> integral neglect         0.1000000E-07      :
          :  -> SCF convergence          0.1000000E-05 Eh   :
          :  -> wf. convergence          0.1000000E-03 e    :
          :  Broyden damping             0.4000000          :
          :  net charge                         -1          :
          :  unpaired electrons                  0          :
          ...................................................

 iter      E             dE          RMSdq      gap      omega  full diag
   1    -25.7056968 -0.257057E+02  0.586E+00   13.21       0.0  T
   2    -25.9779763 -0.272280E+00  0.366E+00   13.23       1.0  T
   3    -25.9882496 -0.102733E-01  0.180E+00   13.17       1.0  T
   4    -25.9910882 -0.283860E-02  0.432E-01   13.30       1.0  T
   5    -25.9937239 -0.263568E-02  0.152E-01   13.27       1.0  T
   6    -25.9937305 -0.659394E-05  0.428E-02   13.29       1.0  T
   7    -25.9937344 -0.391809E-05  0.784E-03   13.29       3.4  T
   8    -25.9937346 -0.170866E-06  0.290E-03   13.29       9.2  T
   9    -25.9937346 -0.499842E-08  0.844E-04   13.29      31.6  T
  10    -25.9937346 -0.370189E-08  0.733E-04   13.29      36.5  T

   *** convergence criteria satisfied after 10 iterations ***

         #    Occupation            Energy/Eh            Energy/eV
      -------------------------------------------------------------
         1        2.0000           -0.5714717             -15.5505
       ...           ...                  ...                  ...
        16        2.0000           -0.2658682              -7.2346
        17        2.0000           -0.2623612              -7.1392
        18        2.0000           -0.2600804              -7.0771
        19        2.0000           -0.2556622              -6.9569
        20        2.0000           -0.2544291              -6.9234
        21        2.0000           -0.2486562              -6.7663
        22        2.0000           -0.1947665              -5.2999 (HOMO)
        23                          0.2936634               7.9910 (LUMO)
        24                          0.2979204               8.1068
        25                          0.3250540               8.8452
        26                          0.3426645               9.3244
        27                          0.3774466              10.2708
       ...                                ...                  ...
        35                          0.5593500              15.2207
      -------------------------------------------------------------
                  HL-Gap            0.4884300 Eh           13.2909 eV
             Fermi-level            0.0494484 Eh            1.3456 eV

 SCC (total)                   0 d,  0 h,  0 min,  0.006 sec
 SCC setup                      ...        0 min,  0.000 sec (  1.898%)
 Dispersion                     ...        0 min,  0.000 sec (  0.852%)
 classical contributions        ...        0 min,  0.000 sec (  0.488%)
 integral evaluation            ...        0 min,  0.000 sec (  6.081%)
 iterations                     ...        0 min,  0.005 sec ( 76.529%)
 molecular gradient             ...        0 min,  0.001 sec ( 12.628%)
 printout                       ...        0 min,  0.000 sec (  1.292%)

         :::::::::::::::::::::::::::::::::::::::::::::::::::::
         ::                     SUMMARY                     ::
         :::::::::::::::::::::::::::::::::::::::::::::::::::::
         :: total energy             -25.796800482287 Eh    ::
         :: gradient norm              0.062558041137 Eh/a0 ::
         :: HOMO-LUMO gap             13.290856516807 eV    ::
         ::.................................................::
         :: SCC energy               -25.993724466773 Eh    ::
         :: -> isotropic ES            0.214736109991 Eh    ::
         :: -> anisotropic ES         -0.000812721173 Eh    ::
         :: -> anisotropic XC         -0.003100680516 Eh    ::
         :: -> dispersion             -0.008363064268 Eh    ::
         :: repulsion energy           0.196923984486 Eh    ::
         :: add. restraining           0.000000000000 Eh    ::
         :: total charge              -1.000000000000 e     ::
         :::::::::::::::::::::::::::::::::::::::::::::::::::::

      ----------------------------------------------------------- 
     |                   =====================                   |
     |                        A N C O P T                        |
     |                   =====================                   |
     |               Approximate Normal Coordinate               |
     |                Rational Function Optimizer                |
      ----------------------------------------------------------- 
      ----------------------------------------------------------- 
     |                   =====================                   |
     |                        A N C O P T                        |
     |                   =====================                   |
     |               Approximate Normal Coordinate               |
     |                Rational Function Optimizer                |
      ----------------------------------------------------------- 

          ...................................................
          :                      SETUP                      :
          :.................................................:
          :   optimization level            normal          :
          :   max. optcycles                   200          :
          :   ANC micro-cycles                  20          :
          :   degrees of freedom                36          :
          :.................................................:
          :   RF solver                   davidson          :
          :   write xtbopt.log                true          :
          :   linear?                        false          :
          :   energy convergence         0.5000000E-05 Eh   :
          :   grad. convergence          0.1000000E-02 Eh/α :
          :   maxmium RF displ.          1.0000000          :
          :   Hlow (freq-cutoff)         0.1000000E-01      :
          :   Hmax (freq-cutoff)         5.0000000          :
          :   S6 in model hess.         20.0000000          :
          ...................................................

generating ANC from exact Hessian ...
Using Lindh-Hessian (1995)
 Shifting diagonal of input Hessian by    4.6419927290600287E-003
 Lowest  eigenvalues of input Hessian
    0.000000    0.000000    0.000000    0.000000    0.000000    0.000000
    0.010000    0.012593    0.019729    0.025274    0.030062    0.044963
    0.051690    0.055745    0.059190    0.063142    0.067102    0.068814
 Highest eigenvalues
    1.192818    1.272692    1.282448    1.286670    1.413171    1.415590


........................................................................
.............................. CYCLE    1 ..............................
........................................................................

 iter      E             dE          RMSdq      gap      omega  full diag
   1    -25.9937346 -0.259937E+02  0.263E-04   13.29       0.0  T
   2    -25.9937346 -0.105882E-08  0.813E-05   13.29     328.7  T
   3    -25.9937346 -0.119734E-09  0.232E-05   13.29    1150.7  T
     SCC iter.                  ...        0 min,  0.001 sec
     gradient                   ...        0 min,  0.001 sec
 * total energy  :   -25.7968005 Eh     change       -0.7558171E-08 Eh
   gradient norm :     0.0622232 Eh/α   predicted     0.0000000E+00 (-100.00%)
   displ. norm   :     0.4986971 α      lambda       -0.2148444E-01
   maximum displ.:     0.1873042 α      in ANC's #14, #7, #5, ...

........................................................................
.............................. CYCLE    2 ..............................
........................................................................

 iter      E             dE          RMSdq      gap      omega  full diag
   1    -25.9847992 -0.259848E+02  0.413E-01   12.71       0.0  T
   2    -25.9848900 -0.908295E-04  0.241E-01   12.67       1.0  T
   3    -25.9848892  0.791729E-06  0.484E-02   12.67       1.0  T
   4    -25.9848978 -0.862215E-05  0.134E-02   12.66       2.0  T
   5    -25.9848984 -0.588869E-06  0.529E-03   12.66       5.0  T
   6    -25.9848985 -0.632749E-07  0.132E-03   12.66      20.2  T
   7    -25.9848985 -0.927955E-09  0.563E-04   12.66      47.5  T
   8    -25.9848985 -0.210719E-09  0.949E-05   12.66     281.6  T
     SCC iter.                  ...        0 min,  0.002 sec
     gradient                   ...        0 min,  0.001 sec
 * total energy  :   -25.8080031 Eh     change       -0.1120260E-01 Eh
   gradient norm :     0.0217575 Eh/α   predicted    -0.1341379E-01 (  19.74%)
   displ. norm   :     0.3589316 α      lambda       -0.5381588E-02
   maximum displ.:     0.1593982 α      in ANC's #5, #3, #9, ...

........................................................................
.............................. CYCLE    3 ..............................
........................................................................

 iter      E             dE          RMSdq      gap      omega  full diag
   1    -25.9790564 -0.259791E+02  0.277E-01   12.52       0.0  T
   2    -25.9790850 -0.286134E-04  0.162E-01   12.50       1.0  T
   3    -25.9790830  0.197314E-05  0.313E-02   12.49       1.0  T
   4    -25.9790887 -0.570405E-05  0.919E-03   12.49       2.9  T
   5    -25.9790890 -0.210692E-06  0.325E-03   12.49       8.2  T
   6    -25.9790890 -0.131456E-07  0.944E-04   12.49      28.3  T
   7    -25.9790890 -0.180894E-09  0.192E-04   12.49     139.6  T
     SCC iter.                  ...        0 min,  0.004 sec
     gradient                   ...        0 min,  0.001 sec
 * total energy  :   -25.8108754 Eh     change       -0.2872268E-02 Eh
   gradient norm :     0.0092194 Eh/α   predicted    -0.3037451E-02 (   5.75%)
   displ. norm   :     0.1824374 α      lambda       -0.8103802E-03
   maximum displ.:     0.1076523 α      in ANC's #5, #1, #3, ...

........................................................................
.............................. CYCLE    4 ..............................
........................................................................

 iter      E             dE          RMSdq      gap      omega  full diag
   1    -25.9800347 -0.259800E+02  0.959E-02   12.50       0.0  T
   2    -25.9800366 -0.195799E-05  0.582E-02   12.50       1.0  T
   3    -25.9800367 -0.117253E-06  0.691E-03   12.50       3.9  T
   4    -25.9800369 -0.186842E-06  0.270E-03   12.50       9.9  T
   5    -25.9800369 -0.216060E-07  0.934E-04   12.50      28.6  T
   6    -25.9800369 -0.208311E-08  0.250E-04   12.50     106.7  T
     SCC iter.                  ...        0 min,  0.002 sec
     gradient                   ...        0 min,  0.001 sec
 * total energy  :   -25.8114865 Eh     change       -0.6111802E-03 Eh
   gradient norm :     0.0063863 Eh/α   predicted    -0.4186783E-03 ( -31.50%)
   displ. norm   :     0.2303637 α      lambda       -0.5902891E-03
   maximum displ.:     0.1316277 α      in ANC's #5, #1, #2, ...

........................................................................
.............................. CYCLE    5 ..............................
........................................................................

 iter      E             dE          RMSdq      gap      omega  full diag
   1    -25.9811686 -0.259812E+02  0.950E-02   12.48       0.0  T
   2    -25.9811707 -0.215941E-05  0.582E-02   12.48       1.0  T
   3    -25.9811709 -0.193430E-06  0.796E-03   12.47       3.4  T
   4    -25.9811711 -0.205518E-06  0.314E-03   12.47       8.5  T
   5    -25.9811712 -0.280632E-07  0.916E-04   12.47      29.2  T
   6    -25.9811712 -0.225670E-08  0.268E-04   12.47      99.9  T
     SCC iter.                  ...        0 min,  0.002 sec
     gradient                   ...        0 min,  0.001 sec
 * total energy  :   -25.8118679 Eh     change       -0.3813443E-03 Eh
   gradient norm :     0.0045736 Eh/α   predicted    -0.3108058E-03 ( -18.50%)
   displ. norm   :     0.1408275 α      lambda       -0.1728499E-03
   maximum displ.:     0.0836246 α      in ANC's #2, #5, #1, ...

........................................................................
.............................. CYCLE    6 ..............................
........................................................................

 iter      E             dE          RMSdq      gap      omega  full diag
   1    -25.9817550 -0.259818E+02  0.446E-02   12.46       0.0  T
   2    -25.9817553 -0.353938E-06  0.273E-02   12.46       1.0  T
   3    -25.9817554 -0.611922E-07  0.358E-03   12.46       7.5  T
   4    -25.9817554 -0.397005E-07  0.150E-03   12.46      17.8  T
   5    -25.9817554 -0.554933E-08  0.293E-04   12.46      91.3  T
   6    -25.9817554 -0.159680E-09  0.130E-04   12.46     205.1  T
     SCC iter.                  ...        0 min,  0.002 sec
     gradient                   ...        0 min,  0.001 sec
 * total energy  :   -25.8119950 Eh     change       -0.1271548E-03 Eh
   gradient norm :     0.0035219 Eh/α   predicted    -0.8813820E-04 ( -30.68%)
   displ. norm   :     0.1550336 α      lambda       -0.1332938E-03
   maximum displ.:     0.1135542 α      in ANC's #2, #5, #1, ...

........................................................................
.............................. CYCLE    7 ..............................
........................................................................

 iter      E             dE          RMSdq      gap      omega  full diag
   1    -25.9820940 -0.259821E+02  0.397E-02   12.44       0.0  T
   2    -25.9820942 -0.233471E-06  0.239E-02   12.44       1.1  T
   3    -25.9820943 -0.839276E-07  0.262E-03   12.44      10.2  T
   4    -25.9820943 -0.844851E-08  0.111E-03   12.44      24.0  T
   5    -25.9820943 -0.271932E-08  0.242E-04   12.44     110.3  T
   6    -25.9820943 -0.137860E-09  0.110E-04   12.44     242.2  T
     SCC iter.                  ...        0 min,  0.002 sec
     gradient                   ...        0 min,  0.001 sec
 * total energy  :   -25.8120871 Eh     change       -0.9207573E-04 Eh
   gradient norm :     0.0022375 Eh/α   predicted    -0.6824940E-04 ( -25.88%)
   displ. norm   :     0.1069048 α      lambda       -0.5668591E-04
   maximum displ.:     0.0870746 α      in ANC's #2, #1, #5, ...

........................................................................
.............................. CYCLE    8 ..............................
........................................................................

 iter      E             dE          RMSdq      gap      omega  full diag
   1    -25.9821965 -0.259822E+02  0.270E-02   12.43       0.0  T
   2    -25.9821967 -0.139517E-06  0.161E-02   12.43       1.7  T
   3    -25.9821967 -0.445197E-07  0.165E-03   12.43      16.2  T
   4    -25.9821967 -0.192597E-08  0.725E-04   12.43      36.8  T
   5    -25.9821967 -0.337366E-09  0.189E-04   12.43     141.7  T
     SCC iter.                  ...        0 min,  0.001 sec
     gradient                   ...        0 min,  0.001 sec
 * total energy  :   -25.8121277 Eh     change       -0.4062271E-04 Eh
   gradient norm :     0.0014862 Eh/α   predicted    -0.2866695E-04 ( -29.43%)
   displ. norm   :     0.1058713 α      lambda       -0.2765482E-04
   maximum displ.:     0.0876738 α      in ANC's #2, #3, #1, ...

........................................................................
.............................. CYCLE    9 ..............................
........................................................................

 iter      E             dE          RMSdq      gap      omega  full diag
   1    -25.9823182 -0.259823E+02  0.310E-02   12.43       0.0  T
   2    -25.9823185 -0.242892E-06  0.188E-02   12.43       1.4  T
   3    -25.9823185 -0.612459E-07  0.252E-03   12.43      10.6  T
   4    -25.9823185 -0.479643E-08  0.953E-04   12.43      28.0  T
   5    -25.9823185 -0.111930E-08  0.234E-04   12.43     114.3  T
     SCC iter.                  ...        0 min,  0.001 sec
     gradient                   ...        0 min,  0.001 sec
 * total energy  :   -25.8121537 Eh     change       -0.2595489E-04 Eh
   gradient norm :     0.0012274 Eh/α   predicted    -0.1389846E-04 ( -46.45%)
   displ. norm   :     0.0428972 α      lambda       -0.9678972E-05
   maximum displ.:     0.0351804 α      in ANC's #2, #3, #1, ...

........................................................................
.............................. CYCLE   10 ..............................
........................................................................

 iter      E             dE          RMSdq      gap      omega  full diag
   1    -25.9823828 -0.259824E+02  0.161E-02   12.44       0.0  T
   2    -25.9823829 -0.471593E-07  0.981E-03   12.44       2.7  T
   3    -25.9823829 -0.124647E-07  0.127E-03   12.44      21.1  T
   4    -25.9823829 -0.274359E-08  0.511E-04   12.44      52.3  T
   5    -25.9823829 -0.822567E-09  0.952E-05   12.44     280.6  T
     SCC iter.                  ...        0 min,  0.001 sec
     gradient                   ...        0 min,  0.001 sec
 * total energy  :   -25.8121641 Eh     change       -0.1039989E-04 Eh
   gradient norm :     0.0008905 Eh/α   predicted    -0.4842833E-05 ( -53.43%)
   displ. norm   :     0.0365782 α      lambda       -0.5255164E-05
   maximum displ.:     0.0278617 α      in ANC's #2, #1, #3, ...

........................................................................
.............................. CYCLE   11 ..............................
........................................................................

 iter      E             dE          RMSdq      gap      omega  full diag
   1    -25.9824763 -0.259825E+02  0.119E-02   12.45       0.0  T
   2    -25.9824764 -0.276656E-07  0.731E-03   12.45       3.7  T
   3    -25.9824764 -0.909153E-08  0.912E-04   12.45      29.3  T
   4    -25.9824764 -0.152074E-08  0.379E-04   12.45      70.6  T
     SCC iter.                  ...        0 min,  0.001 sec
     gradient                   ...        0 min,  0.001 sec
 * total energy  :   -25.8121695 Eh     change       -0.5396587E-05 Eh
   gradient norm :     0.0006494 Eh/α   predicted    -0.2628445E-05 ( -51.29%)
   displ. norm   :     0.0311118 α      lambda       -0.2767915E-05
   maximum displ.:     0.0232149 α      in ANC's #2, #1, #4, ...

........................................................................
.............................. CYCLE   12 ..............................
........................................................................

 iter      E             dE          RMSdq      gap      omega  full diag
   1    -25.9824398 -0.259824E+02  0.788E-03   12.45       0.0  T
   2    -25.9824398 -0.231593E-07  0.480E-03   12.45       5.6  T
   3    -25.9824398 -0.825541E-08  0.794E-04   12.45      33.7  T
   4    -25.9824398 -0.461668E-09  0.118E-04   12.45     226.8  T
     SCC iter.                  ...        0 min,  0.001 sec
     gradient                   ...        0 min,  0.001 sec
 * total energy  :   -25.8121727 Eh     change       -0.3263154E-05 Eh
   gradient norm :     0.0005460 Eh/α   predicted    -0.1382987E-05 ( -57.62%)
   displ. norm   :     0.0446610 α      lambda       -0.3245910E-05
   maximum displ.:     0.0312501 α      in ANC's #2, #1, #4, ...

   *** GEOMETRY OPTIMIZATION CONVERGED AFTER 12 ITERATIONS ***

------------------------------------------------------------------------
 total energy gain   :        -0.0153723 Eh       -9.6462 kcal/mol
 total RMSD          :         0.3926655 a0        0.2078 Å
 total power (kW/mol):        -3.3633231 (step) -965.7300 (real)
------------------------------------------------------------------------

 ANCopt (total)                0 d,  0 h,  0 min,  0.042 sec
 optimizer setup                ...        0 min,  0.000 sec (  0.158%)
 model hessian                  ...        0 min,  0.005 sec ( 11.378%)
 ANC generation                 ...        0 min,  0.000 sec (  0.504%)
 coordinate transformation      ...        0 min,  0.000 sec (  0.146%)
 single point calculation       ...        0 min,  0.034 sec ( 82.371%)
 optimization log               ...        0 min,  0.001 sec (  1.382%)
 hessian update                 ...        0 min,  0.000 sec (  0.343%)
 rational function              ...        0 min,  0.001 sec (  2.701%)

================
 final structure:
================
14
 xtb: 6.7.1 (edcfbbe)
C            1.00686695338820       -0.12568287006967        0.03212644031489
C            0.47200936112260       -1.49732066880560       -0.38001677349710
C            1.00027633810386       -2.60814496202861        0.51926041232736
B            0.39611086055005        0.46266453604252        1.44763930087495
F            0.74764199299734        1.82453931858219        1.60265526995412
F           -1.01374846650701        0.38894730589013        1.48084268892406
F            0.87560217710242       -0.21663976186832        2.58840045151267
H            0.76163898514279        0.59457938935751       -0.75509661444641
H            2.09889608031103       -0.16737820200843        0.09093991610020
H           -0.61861444305458       -1.47627829987215       -0.31804039406881
H            0.74247211115271       -1.71942120030076       -1.42309226360082
H            0.75806694554388       -2.37895969323245        1.55195524865657
H            0.56285355401348       -3.57338594894912        0.25519209518821
H            2.08420755013323       -2.68423894273729        0.43292422176009

 Bond Distances (Angstroems)
 ---------------------------
C1-C2=1.5288         C1-B4=1.6501         C1-H8=1.0948         C1-H9=1.0944         C2-C1=1.5288         C2-C3=1.5237         
C2-H10=1.0926        C2-H11=1.1002        C3-C2=1.5237         C3-H12=1.0852        C3-H13=1.0921        C3-H14=1.0900        
B4-C1=1.6501         B4-F5=1.4150         B4-F6=1.4122         B4-F7=1.4116         F5-B4=1.4150         F6-B4=1.4122         
F7-B4=1.4116         H8-C1=1.0948         H9-C1=1.0944         H10-C2=1.0926        H11-C2=1.1002        H12-C3=1.0852        
H13-C3=1.0921        H14-C3=1.0900        
 C  H  Rav=1.0928 sigma=0.0043  Rmin=1.0852  Rmax=1.1002     7
 C  B  Rav=1.6501 sigma=0.0000  Rmin=1.6501  Rmax=1.6501     1
 C  C  Rav=1.5263 sigma=0.0026  Rmin=1.5237  Rmax=1.5288     2
 F  B  Rav=1.4129 sigma=0.0015  Rmin=1.4116  Rmax=1.4150     3

 selected bond angles (degree)
 --------------------
B4-C1-C2=114.94                H8-C1-C2=108.54                H8-C1-B4=107.42                H9-C1-C2=109.23                
H9-C1-B4=109.68                H9-C1-H8=106.69                C3-C2-C1=111.94                H10-C2-C1=108.46               
H10-C2-C3=109.06               H11-C2-C1=110.53               H11-C2-C3=109.10               H11-C2-H10=107.64              
H12-C3-C2=109.29               H13-C3-C2=111.27               H13-C3-H12=109.11              H14-C3-C2=110.42               
H14-C3-H12=108.18              H14-C3-H13=108.51              F5-B4-C1=110.19                F6-B4-C1=111.78                
F6-B4-F5=107.20                F7-B4-C1=113.32                F7-B4-F5=106.87                F7-B4-F6=107.16                

 selected dihedral angles (degree)
 ---------------------------------
C3-C2-C1-B4=289.13            C3-C2-C1-H8=168.85            C3-C2-C1-H9= 52.88            H10-C2-C1-B4= 49.51           
H10-C2-C1-H8=289.23           H10-C2-C1-H9=173.26           H11-C2-C1-B4=167.29           H11-C2-C1-H8= 47.01           
H11-C2-C1-H9=291.05           H12-C3-C2-C1= 55.86           H12-C3-C2-H10=295.83          H12-C3-C2-H11=178.51          
H13-C3-C2-C1=176.42           H13-C3-C2-H10= 56.39          H13-C3-C2-H11=299.07          H14-C3-C2-C1=296.97           
H14-C3-C2-H10=176.95          H14-C3-C2-H11= 59.63          F5-B4-C1-C2=191.35            F5-B4-C1-H8=312.25            
F5-B4-C1-H9= 67.84            F6-B4-C1-C2=310.45            F6-B4-C1-H8= 71.34            F6-B4-C1-H9=186.93            
F7-B4-C1-C2= 71.66            F7-B4-C1-H8=192.56            F7-B4-C1-H9=308.15            
           -------------------------------------------------
          |                Final Singlepoint                |
           -------------------------------------------------

          ...................................................
          :                      SETUP                      :
          :.................................................:
          :  # basis functions                  35          :
          :  # atomic orbitals                  35          :
          :  # shells                           21          :
          :  # electrons                        44          :
          :  max. iterations                   250          :
          :  Hamiltonian                  GFN2-xTB          :
          :  restarted?                      false          :
          :  GBSA solvation                  false          :
          :  PC potential                    false          :
          :  electronic temp.          300.0000000     K    :
          :  accuracy                    1.0000000          :
          :  -> integral cutoff          0.2500000E+02      :
          :  -> integral neglect         0.1000000E-07      :
          :  -> SCF convergence          0.1000000E-05 Eh   :
          :  -> wf. convergence          0.1000000E-03 e    :
          :  Broyden damping             0.4000000          :
          :  net charge                         -1          :
          :  unpaired electrons                  0          :
          ...................................................

 iter      E             dE          RMSdq      gap      omega  full diag
   1    -25.9824398 -0.259824E+02  0.450E-05   12.45       0.0  T
   2    -25.9824398 -0.165912E-11  0.260E-05   12.45    1027.0  T
   3    -25.9824398 -0.206057E-12  0.764E-06   12.45    3500.2  T

   *** convergence criteria satisfied after 3 iterations ***

         #    Occupation            Energy/Eh            Energy/eV
      -------------------------------------------------------------
         1        2.0000           -0.5680838             -15.4583
       ...           ...                  ...                  ...
        16        2.0000           -0.2706371              -7.3644
        17        2.0000           -0.2599972              -7.0749
        18        2.0000           -0.2597825              -7.0690
        19        2.0000           -0.2525791              -6.8730
        20        2.0000           -0.2500451              -6.8041
        21        2.0000           -0.2499009              -6.8002
        22        2.0000           -0.2018700              -5.4932 (HOMO)
        23                          0.2556955               6.9578 (LUMO)
        24                          0.2705626               7.3624
        25                          0.2901189               7.8945
        26                          0.2999052               8.1608
        27                          0.3166595               8.6167
       ...                                ...                  ...
        35                          0.5774136              15.7122
      -------------------------------------------------------------
                  HL-Gap            0.4575655 Eh           12.4510 eV
             Fermi-level            0.0269127 Eh            0.7323 eV

 SCC (total)                   0 d,  0 h,  0 min,  0.002 sec
 SCC setup                      ...        0 min,  0.000 sec (  2.747%)
 Dispersion                     ...        0 min,  0.000 sec (  1.515%)
 classical contributions        ...        0 min,  0.000 sec (  0.380%)
 integral evaluation            ...        0 min,  0.000 sec ( 13.680%)
 iterations                     ...        0 min,  0.001 sec ( 42.079%)
 molecular gradient             ...        0 min,  0.001 sec ( 36.128%)
 printout                       ...        0 min,  0.000 sec (  2.839%)

         :::::::::::::::::::::::::::::::::::::::::::::::::::::
         ::                     SUMMARY                     ::
         :::::::::::::::::::::::::::::::::::::::::::::::::::::
         :: total energy             -25.812172747681 Eh    ::
         :: gradient norm              0.000546516663 Eh/a0 ::
         :: HOMO-LUMO gap             12.450991801804 eV    ::
         ::.................................................::
         :: SCC energy               -25.982427704362 Eh    ::
         :: -> isotropic ES            0.214613771672 Eh    ::
         :: -> anisotropic ES          0.000960251220 Eh    ::
         :: -> anisotropic XC         -0.002755115535 Eh    ::
         :: -> dispersion             -0.008056078128 Eh    ::
         :: repulsion energy           0.170254956681 Eh    ::
         :: add. restraining           0.000000000000 Eh    ::
         :: total charge              -1.000000000000 e     ::
         :::::::::::::::::::::::::::::::::::::::::::::::::::::

           -------------------------------------------------
          |                Property Printout                |
           -------------------------------------------------

    * Orbital Energies and Occupations

         #    Occupation            Energy/Eh            Energy/eV
      -------------------------------------------------------------
         1        2.0000           -0.5680838             -15.4583
       ...           ...                  ...                  ...
        10        2.0000           -0.3199653              -8.7067
        11        2.0000           -0.3011835              -8.1956
        12        2.0000           -0.2988754              -8.1328
        13        2.0000           -0.2975297              -8.0962
        14        2.0000           -0.2887209              -7.8565
        15        2.0000           -0.2764098              -7.5215
        16        2.0000           -0.2706371              -7.3644
        17        2.0000           -0.2599972              -7.0749
        18        2.0000           -0.2597825              -7.0690
        19        2.0000           -0.2525791              -6.8730
        20        2.0000           -0.2500451              -6.8041
        21        2.0000           -0.2499009              -6.8002
        22        2.0000           -0.2018700              -5.4932 (HOMO)
        23                          0.2556955               6.9578 (LUMO)
        24                          0.2705626               7.3624
        25                          0.2901189               7.8945
        26                          0.2999052               8.1608
        27                          0.3166595               8.6167
        28                          0.3512439               9.5578
        29                          0.3722818              10.1303
        30                          0.3862033              10.5091
        31                          0.4048884              11.0176
        32                          0.4455987              12.1254
        33                          0.5074881              13.8095
       ...                                ...                  ...
        35                          0.5774136              15.7122
      -------------------------------------------------------------
                  HL-Gap            0.4575655 Eh           12.4510 eV
             Fermi-level            0.0269127 Eh            0.7323 eV

     #   Z          covCN         q      C6AA      α(0)
     1   6 C        3.711    -0.149    23.523     6.931
     2   6 C        3.798    -0.038    21.248     6.563
     3   6 C        3.751    -0.094    22.362     6.744
     4   5 B        3.044     0.571    13.776     6.191
     5   9 F        0.720    -0.444    14.102     4.435
     6   9 F        0.720    -0.441    14.063     4.428
     7   9 F        0.720    -0.440    14.051     4.427
     8   1 H        0.924    -0.014     3.317     2.848
     9   1 H        0.924    -0.014     3.316     2.848
    10   1 H        0.924     0.018     2.759     2.597
    11   1 H        0.923    -0.019     3.402     2.885
    12   1 H        0.925     0.055     2.258     2.350
    13   1 H        0.924    -0.004     3.124     2.764
    14   1 H        0.925     0.013     2.850     2.640

 Mol. C6AA /au·bohr⁶  :       1676.533622
 Mol. C8AA /au·bohr⁸  :      34977.749539
 Mol. α(0) /au        :         58.649830


Wiberg/Mayer (AO) data.
largest (>0.10) Wiberg bond orders for each atom

 ---------------------------------------------------------------------------
     #   Z sym  total        # sym  WBO       # sym  WBO       # sym  WBO
 ---------------------------------------------------------------------------
     1   6 C    3.932 --     2 C    1.012     9 H    0.982     8 H    0.982
                             4 B    0.887
     2   6 C    3.995 --     3 C    1.019     1 C    1.012    10 H    0.980
                            11 H    0.978
     3   6 C    3.996 --     2 C    1.019    14 H    0.989    13 H    0.989
                            12 H    0.985
     4   5 B    3.303 --     1 C    0.887     6 F    0.801     7 F    0.801
                             5 F    0.797
     5   9 F    0.871 --     4 B    0.797
     6   9 F    0.875 --     4 B    0.801
     7   9 F    0.877 --     4 B    0.801
     8   1 H    1.000 --     1 C    0.982
     9   1 H    1.000 --     1 C    0.982
    10   1 H    1.000 --     2 C    0.980
    11   1 H    1.000 --     2 C    0.978
    12   1 H    0.997 --     3 C    0.985
    13   1 H    1.000 --     3 C    0.989
    14   1 H    1.000 --     3 C    0.989
 ---------------------------------------------------------------------------

Topologies differ in total number of bonds
Writing topology from bond orders to xtbtopo.mol

molecular dipole:
                 x           y           z       tot (Debye)
 q only:       -0.578      -0.857      -3.019
   full:       -0.499      -0.975      -3.224       8.656
molecular quadrupole (traceless):
                xx          xy          yy          xz          yz          zz
 q only:        5.814      -0.401       2.351      -2.588      -5.684      -8.165
  q+dip:        6.408      -0.877       1.749      -3.581      -5.197      -8.157
   full:        6.284      -0.762       2.188      -3.279      -5.453      -8.472

           -------------------------------------------------
          |                Geometry Summary                 |
           -------------------------------------------------

      molecular mass/u    :      110.8940305
   center of mass at/Å    :        0.4696242      -0.1747260       1.1299007
  moments of inertia/u·Å² :        0.1269902E+03   0.3040434E+03   0.3198417E+03
rotational constants/cm⁻¹ :        0.1327475E+00   0.5544482E-01   0.5270617E-01

 * 12 selected distances

     #   Z          #   Z                                           value/Å
     1   6 C        2   6 C                                       1.5288314 (max)
     2   6 C        3   6 C                                       1.5237114
     4   5 B        5   9 F                                       1.4150291
     4   5 B        6   9 F                                       1.4121758
     4   5 B        7   9 F                                       1.4116312
     1   6 C        8   1 H                                       1.0948218
     1   6 C        9   1 H                                       1.0944064
     2   6 C       10   1 H                                       1.0925861
     2   6 C       11   1 H                                       1.1002206
     3   6 C       12   1 H                                       1.0851959 (min)
     3   6 C       13   1 H                                       1.0921361
     3   6 C       14   1 H                                       1.0900235

 * 3 distinct bonds (by element types)

   Z      Z             #   av. dist./Å        max./Å        min./Å
   1 H    6 C           7     1.0927701     1.1002206     1.0851959
   6 C    6 C           2     1.5262714     1.5288314     1.5237114
   5 B    9 F           3     1.4129454     1.4150291     1.4116312


optimized geometry written to: xtbopt.xyz


           -------------------------------------------------
          | TOTAL ENERGY              -25.812172747681 Eh   |
          | GRADIENT NORM               0.000546516663 Eh/α |
          | HOMO-LUMO GAP              12.450991801804 eV   |
           -------------------------------------------------

------------------------------------------------------------------------
 * finished run on 2024/12/20 at 01:52:53.033     
------------------------------------------------------------------------
 total:
 * wall-time:     0 d,  0 h,  0 min,  0.066 sec
 *  cpu-time:     0 d,  0 h,  0 min,  0.509 sec
 * ratio c/w:     7.773 speedup
 SCF:
 * wall-time:     0 d,  0 h,  0 min,  0.006 sec
 *  cpu-time:     0 d,  0 h,  0 min,  0.051 sec
 * ratio c/w:     7.860 speedup
 ANC optimizer:
 * wall-time:     0 d,  0 h,  0 min,  0.045 sec
 *  cpu-time:     0 d,  0 h,  0 min,  0.354 sec
 * ratio c/w:     7.955 speedup

