22
 energy: -84.881375550352 gnorm: 0.000893515958 xtb: 6.7.1 (edcfbbe)
F            1.28090030506074        0.26372702130991        0.63072514704368
C            2.49663185799111       -0.20011682175788        0.19660879298261
C            2.59233238970639       -2.01489576374771        0.19004244333753
O            3.71132044588161       -2.34389454432748       -0.07709580862079
O            1.51981155148654       -2.47554203888626        0.44633449164202
C            2.76729369574180        0.40431530582386       -1.18393441983812
C            2.34326814171224        1.89732989137480       -1.41846473153201
C            2.92973403081614        2.99015714582755       -0.48456574969798
C            4.46916069802961        3.23145749746736       -0.51225141380234
C            5.09220626107345        3.59714622270074       -1.89382218390877
F            4.35281979083733        4.47947931768486       -2.56262180929095
F            6.28297228244248        4.16728394258976       -1.68888241094220
F            5.28907907841452        2.54396010483419       -2.66757888808792
F            4.69894410956762        4.29751762450726        0.29462167254687
F            5.15845738558094        2.21250468511377        0.00547183505695
F            2.36372625067846        4.17029616003181       -0.85764580372250
F            2.55864865258944        2.80270417271113        0.78547794171096
F            2.69438993533192        2.25506128406308       -2.68599986770756
F            1.00559720123646        2.01346184127694       -1.37289942936559
F            4.08281865471726        0.33313774735204       -1.49177077899383
F            2.11947648191946       -0.29197990262844       -2.14685906898314
F            3.41515079918462        0.35085910667882        1.06080004017281
