29
 energy: -67.978613263254 gnorm: 0.142629267823 xtb: 6.7.1 (edcfbbe)
C            1.91676000000000        0.35126000000000        0.02259000000000
C            0.79060000000000        0.24822000000000       -1.01165000000000
C            1.38222000000000        0.23145000000000       -2.42899000000000
C            0.01189000000000       -1.06306000000000       -0.80065000000000
C           -0.18636000000000        1.41130000000000       -0.78426000000000
O           -1.03982000000000        1.38860000000000        0.10172000000000
C           -0.08852000000000        2.62445000000000       -1.60886000000000
C           -1.25724000000000        3.44070000000000       -2.00301000000000
O           -1.03639000000000        4.59789000000000       -2.35755000000000
C           -2.64071000000000        2.79504000000000       -1.96626000000000
F           -2.54372000000000        1.45971000000000       -2.25258000000000
F           -3.19504000000000        2.87965000000000       -0.72518000000000
C           -3.55090000000000        3.44951000000000       -2.98162000000000
F           -3.74649000000000        4.76791000000000       -2.69712000000000
F           -2.98292000000000        3.40464000000000       -4.22438000000000
C           -4.88023000000000        2.72200000000000       -2.99758000000000
F           -4.75283000000000        1.42206000000000       -3.35758000000000
F           -5.50551000000000        2.74535000000000       -1.79849000000000
F           -5.73434000000000        3.28322000000000       -3.89212000000000
H            2.61283000000000       -0.49051000000000       -0.06423000000000
H            1.51983000000000        0.35409000000000        1.04437000000000
H            2.48868000000000        1.27721000000000       -0.10524000000000
H            1.97607000000000       -0.67402000000000       -2.59853000000000
H            0.59327000000000        0.26060000000000       -3.18935000000000
H            2.04430000000000        1.08657000000000       -2.60387000000000
H           -0.38720000000000       -1.13556000000000        0.21777000000000
H           -0.84022000000000       -1.12618000000000       -1.48814000000000
H            0.64824000000000       -1.93854000000000       -0.96927000000000
H            0.88745000000000        2.99813000000000       -1.88331000000000
29
 energy: -67.997948218637 gnorm: 0.063408132560 xtb: 6.7.1 (edcfbbe)
C            1.91599427176291        0.35370102220607        0.02064077795334
C            0.79011037361201        0.25243248842640       -1.01416192839360
C            1.38113159007100        0.24043264669350       -2.42614793212780
C            0.01585680241530       -1.05741633476080       -0.79982016495756
C           -0.20170592523243        1.41449601046728       -0.79647465330441
O           -1.05340048659785        1.33253406748967        0.09070183156688
C           -0.09874967330178        2.60182411729489       -1.61245261056371
C           -1.18627471658377        3.44303277100013       -1.95581562328602
O           -1.03561761361962        4.59940792489142       -2.39813313403581
C           -2.58358071603533        2.80018604107169       -1.93852034950231
F           -2.53635464777782        1.46667606108695       -2.23905720801620
F           -3.19392411134196        2.88797555730221       -0.72420604774747
C           -3.53530241699778        3.43824823944902       -2.96374456515552
F           -3.76110148840762        4.74695256073836       -2.69453246079302
F           -2.99632351247589        3.39110618107038       -4.21140265221973
C           -4.89027789231220        2.72385800600440       -3.00697493648355
F           -4.77466562080409        1.43606266739794       -3.36950273977233
F           -5.51647995770016        2.74837596255479       -1.82187760076364
F           -5.73866384040857        3.28632395399543       -3.89560213383537
H            2.60747620546067       -0.48826857720571       -0.06884718021464
H            1.50730733194775        0.35580009720043        1.03217630357521
H            2.48036491387512        1.27770445334402       -0.11317803681857
H            1.96890667213236       -0.66808864704710       -2.58361544751147
H            0.58882534087190        0.26792677060301       -3.17435656568418
H            2.03564730371458        1.09467705190595       -2.59514822040428
H           -0.38233635823752       -1.11048627886679        0.21391039650828
H           -0.82857196054276       -1.11236272865353       -1.48830336538978
H            0.65690184280103       -1.92675744111737       -0.96628484069569
H            0.86850828971252        2.97533535545739       -1.90263891192702
29
 energy: -68.002730457108 gnorm: 0.030794344448 xtb: 6.7.1 (edcfbbe)
C            1.91320285733574        0.36504138955487        0.01984437581207
C            0.79072560188626        0.25837799691614       -1.01758505191513
C            1.38013987771733        0.25197428787610       -2.42720711482795
C            0.01940617271089       -1.04954393417110       -0.80055216905198
C           -0.21841520471224        1.41522436173019       -0.79772016999853
O           -1.08065557316418        1.27215567758933        0.07326911201173
C           -0.09986995721313        2.58721743905950       -1.59709385213770
C           -1.12731134944936        3.41732243337132       -1.96135945575817
O           -1.04364160810997        4.57013232887654       -2.44364168630264
C           -2.55184896996040        2.79572506259417       -1.91637208155866
F           -2.54700437441795        1.46375448310344       -2.22431609309419
F           -3.18151977964823        2.89685558139579       -0.71334923460970
C           -3.52131116474613        3.43613092483374       -2.95092182061150
F           -3.76873212721764        4.73572634615397       -2.68920146492476
F           -3.00603420666291        3.38078721480739       -4.20223838790554
C           -4.89460452789725        2.72394216546864       -3.00540214816616
F           -4.79842125901073        1.44794021252293       -3.38066697880431
F           -5.53105445094767        2.75214614698342       -1.83638542981481
F           -5.71977582790027        3.30555510512566       -3.89289671144473
H            2.59919579284257       -0.47831426111825       -0.07307122247597
H            1.49474961348499        0.36477318549494        1.02370499688649
H            2.47444262823757        1.28670213001575       -0.11897019785507
H            1.96570990981241       -0.65642240215919       -2.57878625742735
H            0.58417097360932        0.27815266233948       -3.16677175953716
H            2.02923280177375        1.10666078042395       -2.59077271359391
H           -0.38008711246610       -1.08284515388276        0.20952513732955
H           -0.81751238519230       -1.10342734499316       -1.49280716762203
H            0.66701987633973       -1.91289712190789       -0.95788508112925
H            0.87350377296588        2.94284230199522       -1.89373937147266
29
 energy: -68.003778583567 gnorm: 0.018782578188 xtb: 6.7.1 (edcfbbe)
C            1.91161725815770        0.37652181817870        0.02183185179850
C            0.79335385522966        0.25346694876930       -1.01755972168178
C            1.38254140992813        0.25865825152390       -2.42709595700554
C            0.02999581347499       -1.05672397109273       -0.79970224586593
C           -0.23507721964616        1.39554338133164       -0.80424229956988
O           -1.10037767743476        1.24170511254162        0.05768703697000
C           -0.09692169316544        2.57004158599309       -1.59499020228893
C           -1.11913142620058        3.41533068618442       -1.96663612895715
O           -1.03848241270913        4.55167886388540       -2.47761531185366
C           -2.55616428239512        2.80023566623608       -1.90275770209664
F           -2.56260805494124        1.46601171830665       -2.20160612344526
F           -3.17885323835818        2.91798284936551       -0.69947437945959
C           -3.52093551140819        3.44022221945578       -2.94474052281081
F           -3.77381266967372        4.73785946432431       -2.68649357164725
F           -3.00483923298589        3.37728020053542       -4.19381888197765
C           -4.89841803880400        2.72759963134938       -3.00521743622855
F           -4.81140518283830        1.45471015537453       -3.38945948153090
F           -5.54579266872698        2.75583598409162       -1.84322402467922
F           -5.70613409383811        3.32566623911895       -3.89763308608664
H            2.60372889923445       -0.46212116439012       -0.06555712012635
H            1.48787915780323        0.37819730957601        1.02331248871107
H            2.46561984510159        1.30221692592260       -0.12031953739768
H            1.97355374063778       -0.64489026440100       -2.58231027725676
H            0.58513848584899        0.28422524847863       -3.16548920666946
H            2.02638330300359        1.11860226971991       -2.58702025582531
H           -0.37812301455960       -1.07916666876362        0.20721961813379
H           -0.80074972960837       -1.11557661468389       -1.49912485311990
H            0.68394850747071       -1.91688141725041       -0.94518937142462
H            0.88776587140292        2.89745757031866       -1.89614329660790
29
 energy: -68.004531053106 gnorm: 0.007032740102 xtb: 6.7.1 (edcfbbe)
C            1.90835860453478        0.39573894927303        0.02557002369155
C            0.79628623090860        0.24913876607432       -1.01645305846145
C            1.38743991143757        0.26261624433017       -2.42583402713098
C            0.05370309339605       -1.07216352962017       -0.79847090226657
C           -0.25047780344063        1.37770859359457       -0.80311553498462
O           -1.13788936733071        1.19951654193829        0.02942605581145
C           -0.09714516290196        2.55090588912000       -1.59247809180761
C           -1.11118004691409        3.40417100322413       -1.98676343960630
O           -1.03195243921008        4.51765712586490       -2.52455029559215
C           -2.56722835240974        2.80228158861774       -1.88679933254923
F           -2.59960987307461        1.46475921287102       -2.17256460273635
F           -3.17115559339595        2.94963930141257       -0.67995778512148
C           -3.52218398271536        3.44732148464573       -2.93484633732510
F           -3.77632879964130        4.74307131056789       -2.67736861612764
F           -3.00308815148932        3.37579097518968       -4.18035498620705
C           -4.90650467667764        2.73939776056406       -3.00647311933565
F           -4.83427152956761        1.47155544746740       -3.40793360839393
F           -5.56649469302489        2.76302810645302       -1.85203570374029
F           -5.69037855971508        3.36652974219329       -3.90271383091665
H            2.61275558297395       -0.43398921394957       -0.05100747862185
H            1.47957810924424        0.40155861473926        1.02499790950223
H            2.45000937469744        1.32828969743333       -0.12236160126300
H            1.98437929155232       -0.63570227768001       -2.58802175834091
H            0.58986100534719        0.29022335487136       -3.16467560370316
H            2.02755732640832        1.12661154958337       -2.58189219700230
H           -0.37193196556772       -1.08418316023764        0.20155349746203
H           -0.76571540041144       -1.14842356731404       -1.51054113400531
H            0.71927831861162       -1.92699579713579       -0.92181808218840
H            0.89802954837600        2.84563628590883       -1.89588635903925
29
 energy: -68.004836651955 gnorm: 0.007149058704 xtb: 6.7.1 (edcfbbe)
C            1.90635319395441        0.41053059602874        0.02879850858040
C            0.79920189340562        0.24443192464141       -1.01601836106785
C            1.39322528572083        0.25979457948103       -2.42456496328828
C            0.07386509255928       -1.08656616595105       -0.79572523962046
C           -0.26386823416454        1.36242699645965       -0.81215306142302
O           -1.15355239512379        1.17683874219710        0.01271807039664
C           -0.10340085955630        2.54142292912343       -1.59176035595524
C           -1.11265845462760        3.39468950299647       -1.99370698569110
O           -1.03105544761925        4.49341329963012       -2.55648817737693
C           -2.57858113876477        2.80269841778259       -1.87842814730299
F           -2.63038389761014        1.46360583942066       -2.15467152292508
F           -3.17072390787052        2.97076952554085       -0.66937840862414
C           -3.52488060860630        3.45363876827424       -2.92857350642324
F           -3.77415176672522        4.74980294254938       -2.66886688100185
F           -3.00075092932060        3.38049060489085       -4.17138747345559
C           -4.91352500713602        2.75390677806993       -3.01033718841832
F           -4.84953780813660        1.48998167604699       -3.42521031661328
F           -5.57774657984563        2.77001878248063       -1.85815269409163
F           -5.68764823344189        3.39881644382245       -3.90424659491335
H            2.62222552334711       -0.41070556954952       -0.03823908538647
H            1.47490140345645        0.41789007303445        1.02741698066521
H            2.43740242202052        1.34896647208718       -0.12262048923183
H            1.99149974342469       -0.63761462710274       -2.58733290776121
H            0.59743406762132        0.28810641779130       -3.16565635326800
H            2.03414937325239        1.12363791162608       -2.57956215491324
H           -0.36664380863203       -1.09826109477036        0.19804984795250
H           -0.73444452571833       -1.18357209845543       -1.51933346199602
H            0.75397885920620       -1.93278387460975       -0.90217496083533
H            0.89301674493065        2.82531420646439       -1.89576411601025
29
 energy: -68.005157398897 gnorm: 0.007965814169 xtb: 6.7.1 (edcfbbe)
C            1.90466256505181        0.42772419620330        0.03280503814450
C            0.80414883373153        0.23777985522840       -1.01490989646824
C            1.40160376739665        0.25329703725598       -2.42239239917246
C            0.10016725225563       -1.10437548376272       -0.79064733796756
C           -0.27203778230315        1.34598468438111       -0.81726680662723
O           -1.17171375700013        1.14705616601326       -0.00617223063059
C           -0.11231072594733        2.53025556598560       -1.59000510977428
C           -1.11854045534173        3.37812821174567       -2.00419234527528
O           -1.03180352274436        4.46396442521746       -2.58826138978466
C           -2.59353809608190        2.80228361243783       -1.87532031446490
F           -2.67015730545724        1.46240319824233       -2.14006022724713
F           -3.17039219911041        2.99288405377338       -0.66239921969666
C           -3.53093195822550        3.46266299714533       -2.92412541013798
F           -3.76950663785577        4.76055298957585       -2.65827733097462
F           -3.00231452401329        3.39160242372082       -4.16539882677841
C           -4.92374836977832        2.77597078349676       -3.01666152361238
F           -4.86760860062224        1.51757136758958       -3.45002575819751
F           -5.58662727523933        2.77843930019335       -1.86329820439193
F           -5.69497443967255        3.43881844724456       -3.90058012722791
H            2.63446657977977       -0.38226763795782       -0.02527701198814
H            1.47039304358749        0.43487183431508        1.03060725238738
H            2.42153358952283        1.37372785152233       -0.12252089328668
H            1.99776787266370       -0.64582779607884       -2.58461678388128
H            0.60816591760919        0.28372443237764       -3.16619631706323
H            2.04603400962505        1.11491611407702       -2.57643032815570
H           -0.35825870894796       -1.11767239419352        0.19526471133059
H           -0.69291143857387       -1.22934751985558       -1.52827703800440
H            0.80048865485191       -1.93740399614338       -0.87588935852857
H            0.88164371083938        2.81396528025075       -1.89284481252464
29
 energy: -68.005480629157 gnorm: 0.009004385405 xtb: 6.7.1 (edcfbbe)
C            1.90320728855403        0.44663367371097        0.03736240737196
C            0.80965226457919        0.22927093956378       -1.01242314606139
C            1.41174746601305        0.24460032386493       -2.41824631227493
C            0.13270507415825       -1.12572249306518       -0.78262693780539
C           -0.28265705465492        1.32391938797507       -0.82465571058483
O           -1.18902731660106        1.11394324349543       -0.02433971210183
C           -0.12488975818021        2.51365069486521       -1.58953779446832
C           -1.12807222484023        3.35637034656290       -2.01570958471647
O           -1.03153545854389        4.43345180820825       -2.61274029465396
C           -2.60961626491124        2.80190630515440       -1.87906526447089
F           -2.71366894976561        1.46281535701439       -2.13263718905867
F           -3.17085635288440        3.01208905500283       -0.66153591584865
C           -3.54016242885279        3.47544796419805       -2.92302962409359
F           -3.76403906853515        4.77548984792073       -2.64619466590836
F           -3.01061271101238        3.41102596879520       -4.16510438630561
C           -4.93656564948681        2.80422048898387       -3.02416566171259
F           -4.88720247601406        1.55355892018382       -3.48246960129922
F           -5.59184819697722        2.78577231965943       -1.86584728533706
F           -5.71257199740660        3.48525534053445       -3.88916568625960
H            2.65016300486952       -0.34846249387347       -0.01344015709494
H            1.46601971533588        0.45020220395024        1.03403732640016
H            2.40121800128472        1.40232142646188       -0.12135109107809
H            2.00556154123446       -0.65662081924962       -2.57906848919697
H            0.62139642056447        0.27724544921617       -3.16521576848470
H            2.05942233551108        1.10433382232411       -2.56993682395901
H           -0.34479408952570       -1.13963652314591        0.19424119272531
H           -0.64205437684730       -1.28170417832063       -1.53419197144740
H            0.85589603064842       -1.94207370470801       -0.84363948157179
H            0.86688523228634        2.80238532471883       -1.89267237070308
29
 energy: -68.005803850326 gnorm: 0.008395751643 xtb: 6.7.1 (edcfbbe)
C            1.90197799875250        0.46709844163143        0.04315869083090
C            0.81691843200381        0.21916432174784       -1.00906626910046
C            1.42424586157886        0.23571039121059       -2.41306499907289
C            0.16921711850676       -1.14841618355940       -0.77153132396989
C           -0.29408866565240        1.29685398517990       -0.83268713888304
O           -1.21145024639688        1.07109915083340       -0.04700342958355
C           -0.14013633980185        2.48969078203924       -1.59217690437543
C           -1.13926745446524        3.33144486201413       -2.02861761810329
O           -1.02955747013439        4.40339743809987       -2.63573614752282
C           -2.62538675698511        2.80138410386277       -1.88701137844542
F           -2.75832289501374        1.46442311514683       -2.13043509747453
F           -3.17256884746321        3.02831097446629       -0.66513058127614
C           -3.55100963711235        3.49185563428508       -2.92446289189599
F           -3.75869698332017        4.79322724724437       -2.63294529106732
F           -3.02489628221083        3.43684763316302       -4.16930360605076
C           -4.95134822732006        2.83627371117364       -3.03072427094612
F           -4.90924475658526        1.59606017427842       -3.52081146372604
F           -5.59527600851531        2.79047891522347       -1.86556834863732
F           -5.73547298410373        3.53890194383637       -3.86994564487332
H            2.66825863169910       -0.30987414047626       -0.00298964222200
H            1.46175404314980        0.46354160273334        1.03841067087506
H            2.37695137511121        1.43413694578519       -0.11794479494918
H            2.01744941494790       -0.66624834829577       -2.57231533812720
H            0.63711235938766        0.26955627204673       -3.16322894317595
H            2.07327082689392        1.09495494134240       -2.56120074063304
H           -0.32686478392375       -1.16075039826447        0.19586639358951
H           -0.58538011269617       -1.33623263678354       -1.53575143443494
H            0.91459587365645       -1.94626519696557       -0.80607710304530
H            0.85091651601225        2.78506431700351       -1.89507535370343
29
 energy: -68.006142716877 gnorm: 0.009429050565 xtb: 6.7.1 (edcfbbe)
C            1.89989811864640        0.48984362111236        0.04975850937106
C            0.82513708251430        0.20715852054693       -1.00518210855074
C            1.43957248534754        0.22514422551468       -2.40652261854998
C            0.20934493143252       -1.17273358497274       -0.75678966000880
C           -0.30884522151498        1.26357944331606       -0.84702281595326
O           -1.23361284440745        1.02416111533731       -0.07448309745328
C           -0.15799221754058        2.45764900473056       -1.60246524079255
C           -1.15191820908353        3.30409515249311       -2.04320332079542
O           -1.02525812194505        4.37749517564939       -2.64389082618643
C           -2.64035549362821        2.80098287015062       -1.90039200108960
F           -2.80198483638673        1.46867400822684       -2.13999787475348
F           -3.17498597218771        3.03709530746860       -0.67415135138408
C           -3.56374597016141        3.51279054480171       -2.92828278802661
F           -3.75482725577227        4.81356921459317       -2.61772773419398
F           -3.04590035904334        3.47038714662868       -4.17758221619812
C           -4.96843483520143        2.87133340090946       -3.03556695785960
F           -4.93414550702446        1.64485710110879       -3.56334108335599
F           -5.59771896486413        2.79187505938716       -1.86283849382908
F           -5.76311934484739        3.59875749745302       -3.84256119884965
H            2.68823636898782       -0.26515378629168        0.00683605259442
H            1.45674663446089        0.47577859939448        1.04341200595638
H            2.34720728917612        1.46983887172622       -0.11265457977724
H            2.03596670386857       -0.67509850614689       -2.56262676828102
H            0.65629309742868        0.25713659811665       -3.16055120691636
H            2.08669768309579        1.08633507114957       -2.55057313461243
H           -0.30485864387100       -1.18071481655715        0.20082274461910
H           -0.52365062968650       -1.39328193962380       -1.53203677040361
H            0.97615310023012       -1.95024606343048       -0.76252553536407
H            0.83380093197712        2.76038114721096       -1.90122992935547
29
 energy: -68.006483908592 gnorm: 0.008975120124 xtb: 6.7.1 (edcfbbe)
C            1.89554368422912        0.51528649150186        0.05721616266276
C            0.83466306607604        0.19441749516571       -1.00179256528327
C            1.45912069146225        0.21265407529417       -2.39927088580644
C            0.25335096649944       -1.19782094997832       -0.74008056626094
C           -0.32565715439444        1.22621302402075       -0.86546953448631
O           -1.26342203115176        0.96589525003065       -0.11275891409071
C           -0.17790494766651        2.42053516147646       -1.61828289846933
C           -1.16528463301813        3.27796750500369       -2.05679592923611
O           -1.02090988338121        4.35543397781909       -2.65380261064625
C           -2.65578268375373        2.80121745613871       -1.91266249065285
F           -2.84627384345861        1.47464678714104       -2.15252448733460
F           -3.18041782040148        3.04401913725197       -0.68282801425383
C           -3.57639495889707        3.53742750724759       -2.93129372447367
F           -3.75219941421239        4.83554217822319       -2.60139606831144
F           -3.06781267236652        3.50748832326044       -4.18437942608286
C           -4.98700235733440        2.90839129425120       -3.03797923795827
F           -4.96291259545773        1.69888195369503       -3.60567956021766
F           -5.60271452446793        2.79324090363187       -1.86059110010865
F           -5.78888064473153        3.66412749698085       -3.81084532945975
H            2.70826868931736       -0.21392685017040        0.01741430632268
H            1.44912556587780        0.48821891933190        1.04895025008403
H            2.31099259980479        1.50918595899723       -0.10548835806689
H            2.06353519042628       -0.68301967979583       -2.54971094137348
H            0.68072618072261        0.23790593404835       -3.15848285699532
H            2.10041514112506        1.07860565255793       -2.53977608750243
H           -0.27987078746381       -1.19958586956656        0.20701086276433
H           -0.45636360994687       -1.45385808192098       -1.52559586842579
H            1.04149432018060       -1.95305693098726       -0.71372218108664
H            0.81626846638241        2.72565587935412       -1.91275194525011
29
 energy: -68.006813104676 gnorm: 0.006977084798 xtb: 6.7.1 (edcfbbe)
C            1.88742715603408        0.54081711518051        0.06417291481442
C            0.84368475593380        0.18179161500962       -1.00029278502642
C            1.48161411155940        0.19773930849757       -2.39216398956450
C            0.29368998752114       -1.21953245571771       -0.72280635441217
C           -0.34205653873572        1.18892300485875       -0.89187909152664
O           -1.28692724116920        0.91269877864114       -0.15589042588349
C           -0.19604769811151        2.38319637896270       -1.64306323605267
C           -1.17782631118125        3.25595029681301       -2.06881371035289
O           -1.01842819486192        4.34511265154423       -2.64126521099932
C           -2.66912021339243        2.80119261745451       -1.92584166854575
F           -2.88175734850877        1.48211437869370       -2.17711799753978
F           -3.18606649244511        3.03959372649721       -0.69212318129616
C           -3.58836025229629        3.56226405314974       -2.93307649826771
F           -3.75165213706798        4.85564155214704       -2.58480651536009
F           -3.08957762569662        3.54429952889546       -4.18916224686754
C           -5.00540774969322        2.94231040581710       -3.03716445773544
F           -4.99302797721212        1.75067293731259       -3.63950905706267
F           -5.60927942632826        2.79587083391107       -1.85870029182497
F           -5.81088819317637        3.72429567693573       -3.77838741364300
H            2.72311871682182       -0.16194176248189        0.02913144912427
H            1.43748990958108        0.50108011201200        1.05378740698563
H            2.27120690931666        1.54697663150433       -0.09820889976817
H            2.09948461236445       -0.69070997283780       -2.53078941128952
H            0.71014112308839        0.20845040325412       -3.15898036324999
H            2.11316280692377        1.07109132395205       -2.53158524099930
H           -0.25572818748268       -1.21610634461760        0.21456238501047
H           -0.39460865966066       -1.50759479080599       -1.51474595934529
H            1.09891222041616       -1.95301151906933       -0.66790692591848
H            0.80052793745891        2.68850351449146       -1.93074322340262
29
 energy: -68.007096792389 gnorm: 0.008385897889 xtb: 6.7.1 (edcfbbe)
C            1.87492362208760        0.56986549337507        0.07029359638213
C            0.85208015542447        0.17007813471176       -1.00089170016557
C            1.50755916642036        0.17930455166979       -2.38505811338715
C            0.33384981205382       -1.24008034770483       -0.70654731868643
C           -0.35865364021144        1.15222874865869       -0.92328475402742
O           -1.31727877671057        0.85447192314796       -0.21179270843233
C           -0.21199786029240        2.34882554593974       -1.67039883731226
C           -1.18882248161520        3.23735556741098       -2.07924616196636
O           -1.01876971370385        4.33746187028920       -2.63030624774030
C           -2.68327848512010        2.79968654580431       -1.93428002998651
F           -2.91668797754317        1.48742058675300       -2.20148215306965
F           -3.19148725583129        3.03230637661063       -0.69558355022752
C           -3.59873942864740        3.58578371962829       -2.92919589438859
F           -3.75066619252613        4.87372310656917       -2.56323144755943
F           -3.10654284679862        3.57927672090254       -4.18655968106150
C           -5.02358080544723        2.97575183317528       -3.03476998283527
F           -5.02731433345159        1.80366361647918       -3.67435865138809
F           -5.61777762341374        2.79817802043055       -1.85754439510238
F           -5.82686360070358        3.78992910624768       -3.74519604177672
H            2.73429534608552       -0.10490015142461        0.04509170096352
H            1.41948072270824        0.51965056743413        1.05695442610230
H            2.22575312824763        1.58789176699845       -0.09324514999317
H            2.14240743222283       -0.70033730956090       -2.50567555051769
H            0.74544174252268        0.16814081869614       -3.16196033292038