7
 energy: -14.166155363840 gnorm: 0.000367025652 xtb: 6.7.1 (edcfbbe)
C            1.14367742084253       -0.06197031018726       -0.06403635180164
C            0.34360151374165        1.30475636638639        0.00486011552362
O            0.44329628858886       -1.08334658986829       -0.11684577180636
O            2.37921698365735        0.03437615755929       -0.06005619817134
H           -0.29190342294341        1.39466279585532       -0.87595107143993
H           -0.29210804757241        1.30535097612938        0.89008272337195
H            1.03228926368542        2.14739060412517        0.04754655432370
