7
 energy: -14.163332187250 gnorm: 0.054341111165 xtb: 6.7.1 (edcfbbe)
C            1.12574000000000       -0.03523000000000       -0.06328000000000
C            0.35829000000000        1.27373000000000        0.00320000000000
O            0.40395000000000       -1.07033000000000       -0.11586000000000
O            2.38302000000000        0.07616000000000       -0.05763000000000
H           -0.27463000000000        1.37787000000000       -0.88314000000000
H           -0.27462000000000        1.28753000000000        0.89554000000000
H            1.03632000000000        2.13149000000000        0.04677000000000
7
 energy: -14.165631275117 gnorm: 0.023711790340 xtb: 6.7.1 (edcfbbe)
C            1.13575556507291       -0.04716084291232       -0.06390191720580
C            0.35288693265564        1.28856635144022        0.00395395698798
O            0.43183836865401       -1.07630664450994       -0.11615612772573
O            2.38009169402137        0.04515662981221       -0.05919686857227
H           -0.28780092490761        1.38903610637729       -0.87460813397836
H           -0.28778884091031        1.29949342584067        0.88818509474871
H            1.03308720541399        2.14243497395187        0.04732399574548
7
 energy: -14.166093914634 gnorm: 0.007066881825 xtb: 6.7.1 (edcfbbe)
C            1.14064579131964       -0.05599532774059       -0.06428398074208
C            0.34652626359359        1.30096063740283        0.00459341946188
O            0.44589101185448       -1.08168688674578       -0.11646551596910
O            2.37695875166842        0.03186709593689       -0.05990549926784
H           -0.29207776670899        1.39408101307309       -0.87492899229007
H           -0.29208969372345        1.30452253997074        0.88901468390963
H            1.03221564199631        2.14747092810281        0.04757588489757
7
 energy: -14.166139898931 gnorm: 0.003373746571 xtb: 6.7.1 (edcfbbe)
C            1.14230059205608       -0.05916266632480       -0.06466557191760
C            0.34439692444597        1.30387361772779        0.00471218006672
O            0.44571688063456       -1.08343982553356       -0.11643619499109
O            2.37834982331427        0.03185357794902       -0.05979498931799
H           -0.29242741916301        1.39510575048257       -0.87552660053481
H           -0.29236219839515        1.30534103041896        0.88971587625166
H            1.03209539710729        2.14764851528002        0.04759530044312
7
 energy: -14.166154340981 gnorm: 0.000923516740 xtb: 6.7.1 (edcfbbe)
C            1.14344589851650       -0.06165556396176       -0.06379202117156
C            0.34322349757928        1.30524727718239        0.00491473567087
O            0.44396135145581       -1.08385701319103       -0.11699366813141
O            2.37924208661717        0.03384529870160       -0.06019850973644
H           -0.29196673254378        1.39478610569081       -0.87605311440906
H           -0.29225163297164        1.30560803463781        0.89019380232346
H            1.03241553134666        2.14724586094017        0.04752877545415
7
 energy: -14.166146518350 gnorm: 0.002200206797 xtb: 6.7.1 (edcfbbe)
C            1.14388998485443       -0.06231473930645       -0.06848069626066
C            0.34322358334605        1.30517615703936        0.00429187049721
O            0.44279723577538       -1.08356804823028       -0.11448303302718
O            2.37938344004085        0.03499004455423       -0.05779027417804
H           -0.29254619410351        1.39600743716331       -0.87591973131527
H           -0.29119979930622        1.30386394132522        0.89024828629220
H            1.03252174939302        2.14706520745461        0.04773357799174
7
 energy: -14.166154618337 gnorm: 0.000732594808 xtb: 6.7.1 (edcfbbe)
C            1.14377881197570       -0.06218040694142       -0.06586873982692
C            0.34341295209181        1.30493566768488        0.00462536754888
O            0.44296930222844       -1.08339063068278       -0.11587031469424
O            2.37926985085108        0.03483368734374       -0.05911280055024
H           -0.29212529736079        1.39517456605172       -0.87594557533184
H           -0.29169011689573        1.30469424942305        0.89015367282350
H            1.03245449710949        2.14715286712081        0.04761839003085
7
 energy: -14.166155363828 gnorm: 0.000367033399 xtb: 6.7.1 (edcfbbe)
C            1.14367742084253       -0.06197031018726       -0.06403635180164
C            0.34360151374165        1.30475636638639        0.00486011552362
O            0.44329628858886       -1.08334658986829       -0.11684577180636
O            2.37921698365735        0.03437615755929       -0.06005619817134
H           -0.29190342294341        1.39466279585532       -0.87595107143993
H           -0.29210804757241        1.30535097612938        0.89008272337195
H            1.03228926368542        2.14739060412517        0.04754655432370
