16
 energy: -23.664513033550 gnorm: 0.000273675047 xtb: 6.7.1 (edcfbbe)
O            1.07794530299396        0.02455372055366       -0.17836067196532
C            2.30439966491192        0.08736471852269       -0.02098288806666
O            2.94815906354942        0.48314643451252        0.95665848167091
C            3.16349679997657       -0.42479085175837       -1.28301877311923
C            2.77615877034532       -1.87818426573520       -1.54741435481172
C            2.77591224106232        0.43283840018889       -2.48574724512395
C            4.65934293725212       -0.31536504924758       -1.01332925748526
H            1.69298098065111       -1.94778833222950       -1.63137269664919
H            3.22985039415697       -2.25442771588029       -2.47070564739483
H            3.09580712325639       -2.51203311108765       -0.72041724425438
H            3.09576757680095        1.46374579663730       -2.33488060902832
H            3.22931704908914        0.05882412067797       -3.41005822145626
H            1.69271410750898        0.42441883775237       -2.59419782021003
H            4.92503028002876        0.71833744958101       -0.80158140789892
H            4.92498936329609       -0.90842762177891       -0.14058015837087
H            5.24185834511998       -0.66419253070890       -1.87186148583596
