16
 energy: -23.660631276841 gnorm: 0.060000842511 xtb: 6.7.1 (edcfbbe)
O            1.06706000000000        0.02433000000000       -0.17652000000000
C            2.32455000000000        0.07839000000000       -0.04336000000000
O            2.99319000000000        0.48184000000000        0.95041000000000
C            3.15035000000000       -0.41721000000000       -1.26412000000000
C            2.75916000000000       -1.87680000000000       -1.51764000000000
C            2.75916000000000        0.45262000000000       -2.46333000000000
C            4.66132000000000       -0.32349000000000       -1.03328000000000
H            1.69261000000000       -1.98214000000000       -1.74684000000000
H            3.31756000000000       -2.29305000000000       -2.36380000000000
H            2.96767000000000       -2.49894000000000       -0.63952000000000
H            2.96768000000000        1.51080000000000       -2.26739000000000
H            3.31756000000000        0.16124000000000       -3.36018000000000
H            1.69261000000000        0.36837000000000       -2.70109000000000
H            4.97234000000000        0.70947000000000       -0.83937000000000
H            4.97234000000000       -0.92896000000000       -0.17420000000000
H            5.21857000000000       -0.67845000000000       -1.90762000000000
16
 energy: -23.663619933359 gnorm: 0.024683038031 xtb: 6.7.1 (edcfbbe)
O            1.08830153534837        0.03291371313616       -0.15537346492010
C            2.32679911184384        0.08557398866528       -0.02567512250842
O            2.97858061912728        0.48493181412128        0.95802577044852
C            3.14881185314274       -0.41984189649207       -1.27061007124964
C            2.77066045666053       -1.87667998130002       -1.53586837853835
C            2.77065987958974        0.43982364163026       -2.47631682357949
C            4.65237969720818       -0.32440391393623       -1.03552941962512
H            1.70000258850686       -1.94798235073516       -1.73354781003217
H            3.31795929339346       -2.28997239129090       -2.39112199283935
H            2.98863669677309       -2.48495920993258       -0.65604372368153
H            2.98864042355516        1.48925663439340       -2.26948581551591
H            3.31795718578392        0.13998464391935       -3.37762990484540
H            1.70000185525743        0.35315106208435       -2.66775119253719
H            4.93797475650177        0.70772682131472       -0.83116872393196
H            4.93797512356310       -0.92199455795285       -0.16953661399936
H            5.20838892374451       -0.67950801762499       -1.91021671264453
16
 energy: -23.664168097798 gnorm: 0.008529792923 xtb: 6.7.1 (edcfbbe)
O            1.09444137295031        0.03481662691184       -0.15595508169113
C            2.32429684258227        0.08737272570757       -0.02286582993388
O            2.97167139886237        0.48389486706821        0.95275220002068
C            3.15757162782756       -0.42364905976758       -1.28087469179474
C            2.77086858388665       -1.87843607593355       -1.54168534797775
C            2.76782270472156        0.43745319794021       -2.48138078291970
C            4.65800954564698       -0.32220352150840       -1.02778519933476
H            1.69703548371148       -1.93930039694364       -1.71328160780541
H            3.29810483176507       -2.28229850012480       -2.41246406574288
H            3.01052299443905       -2.49080998210203       -0.67279881887787
H            3.00858177916430        1.48207198079984       -2.28555828414295
H            3.29460512109957        0.12011586731142       -3.38762212409623
H            1.69386571152430        0.36181491989479       -2.64601466670413
H            4.93235399717366        0.70919666892899       -0.81840676898134
H            4.93027530531792       -0.91675448840783       -0.15856341725811
H            5.22370269932693       -0.67526482977503       -1.89534551275979
16
 energy: -23.664373070712 gnorm: 0.004747780981 xtb: 6.7.1 (edcfbbe)
O            1.08847317730333        0.03101407589953       -0.15867534999608
C            2.31618196988901        0.08980419539439       -0.01787850098492
O            2.96400433947521        0.48264313888791        0.95692386647696
C            3.16141485808578       -0.42484049701549       -1.28315552929929
C            2.77123249577584       -1.87864704840112       -1.54454203544513
C            2.77168652422632        0.43515681494265       -2.48418934223501
C            4.66031710999053       -0.31919664832155       -1.02401972311344
H            1.69369817439461       -1.93840550405417       -1.68932657319942
H            3.27549684038332       -2.27529628801410       -2.43303054577703
H            3.03567413647754       -2.49843411836354       -0.68786212318357
H            3.03679736079640        1.47668542520510       -2.30248617660829
H            3.27491932878700        0.09953514999454       -3.39822951306048
H            1.69402951544954        0.37739936774022       -2.62812912074362
H            4.92808063919844        0.71324510756739       -0.81352468231256
H            4.92715897661340       -0.91256415047620       -0.15304566434471
H            5.23456455315373       -0.67007902098557       -1.88667898617340
16
 energy: -23.664443143688 gnorm: 0.004108437412 xtb: 6.7.1 (edcfbbe)
O            1.08291479935013        0.03473581112855       -0.16803058146969
C            2.30978206269937        0.08579196793947       -0.01323789169028
O            2.96003326174501        0.48837524900744        0.95661419286841
C            3.16374593175188       -0.42637461949809       -1.28409819077178
C            2.77378928227950       -1.87934231327527       -1.54743172887981
C            2.77251895155489        0.43321794233021       -2.48449497954605
C            4.66070620178442       -0.31795568659245       -1.01817348171207
H            1.69314334267073       -1.94202405606352       -1.66656831293634
H            3.25605298638260       -2.26814853648526       -2.45244863867113
H            3.06160509491510       -2.50734290850527       -0.70344693275999
H            3.06009275221363        1.47162092363862       -2.31618022513814
H            3.25408843548325        0.08268255343866       -3.40521024199840
H            1.69189328199933        0.39520071661544       -2.61319388870508
H            4.92567798583612        0.71553573969906       -0.80702122637385
H            4.92691126518541       -0.91163933243400       -0.14671425641614
H            5.24077436414863       -0.66631345094359       -1.87821361579964
16
 energy: -23.664452653313 gnorm: 0.005423571954 xtb: 6.7.1 (edcfbbe)
O            1.07902341137209        0.02135675557404       -0.16988359679370
C            2.30546603574600        0.09419438770074       -0.01633450619447
O            2.95739792192491        0.47900791730449        0.96058438920364
C            3.16452375918236       -0.42421014993842       -1.28531186664868
C            2.77440651735094       -1.87691168439600       -1.54704619296710
C            2.77451933816454        0.43290263588451       -2.48708593267018
C            4.66005673665155       -0.31596500363299       -1.01466649346434
H            1.69215703448443       -1.94335627732827       -1.64861536919005
H            3.24104370234473       -2.26246913048209       -2.46157645919203
H            3.07746099907427       -2.50910055247796       -0.71128241819873
H            3.07926699114392        1.46872124160607       -2.33058379213794
H            3.24087976352790        0.06916023917453       -3.41060930979202
H            1.69214872207947        0.41109491767348       -2.60628645476872
H            4.92607831268164        0.71801671532057       -0.80460251163806
H            4.92610577506198       -0.90912890287422       -0.14190746196222
H            5.24319497920929       -0.66529310910847       -1.87264202358538
16
 energy: -23.664492057270 gnorm: 0.002178244005 xtb: 6.7.1 (edcfbbe)
O            1.07957848833502        0.02627552422439       -0.17167439068536
C            2.30585639530371        0.08953574464990       -0.01653599408569
O            2.95535780731335        0.48287459608991        0.95792407912475
C            3.16344057656892       -0.42517703726163       -1.28397181071007
C            2.77448336478020       -1.87811853588175       -1.54640379544545
C            2.77491412108759        0.43345058856072       -2.48512248863873
C            4.65963842327094       -0.31644524026521       -1.01705699392691
H            1.69289728510621       -1.94535507169622       -1.65114045945467
H            3.24471879828656       -2.26306675125994       -2.45839174745505
H            3.07526766430683       -2.50862251846964       -0.70933670867897
H            3.07626269183824        1.46893749364197       -2.32499020227860
H            3.24455583029367        0.07298501010100       -3.40736163186122
H            1.69324920199747        0.40913382475303       -2.60653752162355
H            4.92628434248242        0.71712757285431       -0.80603626481815
H            4.92618640220616       -0.90987536951981       -0.14492134349269
H            5.24103860682270       -0.66563983052102       -1.87629272596963
16
 energy: -23.664501416431 gnorm: 0.001489505995 xtb: 6.7.1 (edcfbbe)
O            1.07935266266520        0.02663088488026       -0.17390586900997
C            2.30554030701353        0.08830910234896       -0.01770630233668
O            2.95316463175194        0.48365563621377        0.95717269024367
C            3.16321001692757       -0.42509891800391       -1.28347827928066
C            2.77510940898055       -1.87815767295123       -1.54662812494593
C            2.77500340092183        0.43330155598976       -2.48500012105414
C            4.65939958837867       -0.31646113002952       -1.01630861191228
H            1.69305323277111       -1.94615724230396       -1.64669367807068
H            3.24190790207021       -2.26082573867335       -2.46111405778258
H            3.08032083033999       -2.50899122472258       -0.71159118956586
H            3.08055418158747        1.46759897789672       -2.32625356618882
H            3.24126442638823        0.06998069517048       -3.40759047473919
H            1.69289011688082        0.41263734841856       -2.60369075639038
H            4.92625571035181        0.71705613936975       -0.80509079192718
H            4.92624488615115       -0.90985783288956       -0.14416737547886
H            5.24045869681993       -0.66560058071414       -1.87580349156046
16
 energy: -23.664511018400 gnorm: 0.000716513931 xtb: 6.7.1 (edcfbbe)
O            1.07867985920501        0.02549867742072       -0.17751119753644
C            2.30512750260836        0.08699960967572       -0.02075284473979
O            2.94919068499378        0.48357424486915        0.95633878178908
C            3.16290319943400       -0.42481084953604       -1.28264712920794
C            2.77595376006760       -1.87829379184679       -1.54692175508792
C            2.77574465736825        0.43319227802349       -2.48518341001259
C            4.65898889088076       -0.31569454705196       -1.01436507100726
H            1.69330484825791       -1.94777024584620       -1.63610107119829
H            3.23385296777394       -2.25595173745458       -2.46728319643393
H            3.09112881403767       -2.51097283165121       -0.71757665625946
H            3.09110284221576        1.46490126534580       -2.33170310757533
H            3.23322486042801        0.06235128110499       -3.40853369368495
H            1.69305638036895        0.42094382365688       -2.59709346303158
H            4.92573257177798        0.71785350698155       -0.80277594706870
H            4.92557605018357       -0.90898545517158       -0.14198848431118
H            5.24016211039848       -0.66481522851993       -1.87375175463370
16
 energy: -23.664513033539 gnorm: 0.000273380879 xtb: 6.7.1 (edcfbbe)
O            1.07794530299396        0.02455372055366       -0.17836067196532
C            2.30439966491192        0.08736471852269       -0.02098288806666
O            2.94815906354942        0.48314643451252        0.95665848167091
C            3.16349679997657       -0.42479085175837       -1.28301877311923
C            2.77615877034532       -1.87818426573520       -1.54741435481172
C            2.77591224106232        0.43283840018889       -2.48574724512395
C            4.65934293725212       -0.31536504924758       -1.01332925748526
H            1.69298098065111       -1.94778833222950       -1.63137269664919
H            3.22985039415697       -2.25442771588029       -2.47070564739483
H            3.09580712325639       -2.51203311108765       -0.72041724425438
H            3.09576757680095        1.46374579663730       -2.33488060902832
H            3.22931704908914        0.05882412067797       -3.41005822145626
H            1.69271410750898        0.42441883775237       -2.59419782021003
H            4.92503028002876        0.71833744958101       -0.80158140789892
H            4.92498936329609       -0.90842762177891       -0.14058015837087
H            5.24185834511998       -0.66419253070890       -1.87186148583596
