      -----------------------------------------------------------      
     |                   =====================                   |     
     |                           x T B                           |     
     |                   =====================                   |     
     |                         S. Grimme                         |     
     |          Mulliken Center for Theoretical Chemistry        |     
     |                    University of Bonn                     |     
      -----------------------------------------------------------      

   * xtb version 6.7.1 (edcfbbe) compiled by 'conda@3ef47c1a292c' on 2024-11-25

   xtb is free software: you can redistribute it and/or modify it under
   the terms of the GNU Lesser General Public License as published by
   the Free Software Foundation, either version 3 of the License, or
   (at your option) any later version.
   
   xtb is distributed in the hope that it will be useful,
   but WITHOUT ANY WARRANTY; without even the implied warranty of
   MERCHANTABILITY or FITNESS FOR A PARTICULAR PURPOSE.  See the
   GNU Lesser General Public License for more details.
   
   Cite this work as:
   * C. Bannwarth, E. Caldeweyher, S. Ehlert, A. Hansen, P. Pracht,
     J. Seibert, S. Spicher, S. Grimme, WIREs Comput. Mol. Sci., 2020, 11,
     e01493. DOI: 10.1002/wcms.1493
   
   for GFN2-xTB:
   * C. Bannwarth, S. Ehlert and S. Grimme., J. Chem. Theory Comput., 2019,
     15, 1652-1671. DOI: 10.1021/acs.jctc.8b01176
   for GFN1-xTB:
   * S. Grimme, C. Bannwarth, P. Shushkov, J. Chem. Theory Comput., 2017,
     13, 1989-2009. DOI: 10.1021/acs.jctc.7b00118
   for GFN0-xTB:
   * P. Pracht, E. Caldeweyher, S. Ehlert, S. Grimme, ChemRxiv, 2019, preprint.
     DOI: 10.26434/chemrxiv.8326202.v1
   for GFN-FF:
   * S. Spicher and S. Grimme, Angew. Chem. Int. Ed., 2020, 59, 15665-15673.
     DOI: 10.1002/anie.202004239
   
   for ALPB and GBSA implicit solvation:
   * S. Ehlert, M. Stahn, S. Spicher, S. Grimme, J. Chem. Theory Comput.,
     2021, 17, 4250-4261. DOI: 10.1021/acs.jctc.1c00471
   
   for ddCOSMO and CPCM-X implicit solvation:
   * M. Stahn, S. Ehlert, S. Grimme, J. Phys. Chem. A,
     2023, XX, XXXX-XXXX. DOI: 10.1021/acs.jpca.3c04382
   
   for DFT-D4:
   * E. Caldeweyher, C. Bannwarth and S. Grimme, J. Chem. Phys., 2017,
     147, 034112. DOI: 10.1063/1.4993215
   * E. Caldeweyher, S. Ehlert, A. Hansen, H. Neugebauer, S. Spicher,
     C. Bannwarth and S. Grimme, J. Chem. Phys., 2019, 150, 154122.
     DOI: 10.1063/1.5090222
   * E. Caldeweyher, J.-M. Mewes, S. Ehlert and S. Grimme, Phys. Chem. Chem. Phys.
     2020, 22, 8499-8512. DOI: 10.1039/D0CP00502A
   
   for sTDA-xTB:
   * S. Grimme and C. Bannwarth, J. Chem. Phys., 2016, 145, 054103.
     DOI: 10.1063/1.4959605
   
   in the mass-spec context:
   * V. Asgeirsson, C. Bauer and S. Grimme, Chem. Sci., 2017, 8, 4879.
     DOI: 10.1039/c7sc00601b
   * J. Koopman and S. Grimme, ACS Omega 2019, 4, 12, 15120-15133.
     DOI: 10.1021/acsomega.9b02011
   
   for metadynamics refer to:
   * S. Grimme, J. Chem. Theory Comput., 2019, 155, 2847-2862
     DOI: 10.1021/acs.jctc.9b00143
   
   for SPH calculations refer to:
   * S. Spicher and S. Grimme, J. Chem. Theory Comput., 2021, 17, 1701-1714
     DOI: 10.1021/acs.jctc.0c01306
   
   for ONIOM refer to:
   * C. Plett, A. Katbashev, S. Ehlert, S. Grimme, M. Bursch,
     Phys. Chem. Chem. Phys., 2023, 25, 17860-17868. DOI: 10.1039/D3CP02178E
   
   for DIPRO refer to:
   * J. Kohn, N. Gildemeister, S. Grimme, D. Fazzi, A. Hansen,
     J. Chem. Phys., 2023, just accepted.
   
   for PTB refer to:
   * S. Grimme, M. Mueller, A. Hansen, J. Chem. Phys., 2023, 158, 124111.
     DOI: 10.1063/5.0137838
   
   with help from (in alphabetical order)
   P. Atkinson, C. Bannwarth, F. Bohle, G. Brandenburg, E. Caldeweyher
   M. Checinski, S. Dohm, S. Ehlert, S. Ehrlich, I. Gerasimov, C. Hölzer
   A. Katbashev, J. Kohn, J. Koopman, C. Lavigne, S. Lehtola, F. März, M. Müller,
   F. Musil, H. Neugebauer, J. Pisarek, C. Plett, P. Pracht, F. Pultar,
   J. Seibert, P. Shushkov, S. Spicher, M. Stahn, M. Steiner, T. Strunk,
   J. Stückrath, T. Rose, and J. Unsleber
   
 * started run on 2024/12/20 at 01:52:57.943     
   ID    Z sym.   atoms
    1    9 F      1

           -------------------------------------------------
          |                Calculation Setup                |
           -------------------------------------------------

          program call               : xtb A076.xyz --opt --namespace A076 --charge -1
          calculation namespace      : A076
          coordinate file            : A076.xyz
          omp threads                :                     8


           -------------------------------------------------
          |                 G F N 2 - x T B                 |
           -------------------------------------------------

        Reference                      10.1021/acs.jctc.8b01176
      * Hamiltonian:
        H0-scaling (s, p, d)           1.850000    2.230000    2.230000
        zeta-weighting                 0.500000
      * Dispersion:
        s8                             2.700000
        a1                             0.520000
        a2                             5.000000
        s9                             5.000000
      * Repulsion:
        kExp                           1.500000    1.000000
        rExp                           1.000000
      * Coulomb:
        alpha                          2.000000
        third order                    shell-resolved
        anisotropic                    true
        a3                             3.000000
        a5                             4.000000
        cn-shift                       1.200000
        cn-exp                         4.000000
        max-rad                        5.000000


          ...................................................
          :                      SETUP                      :
          :.................................................:
          :  # basis functions                   4          :
          :  # atomic orbitals                   4          :
          :  # shells                            2          :
          :  # electrons                         8          :
          :  max. iterations                   250          :
          :  Hamiltonian                  GFN2-xTB          :
          :  restarted?                      false          :
          :  GBSA solvation                  false          :
          :  PC potential                    false          :
          :  electronic temp.          300.0000000     K    :
          :  accuracy                    1.0000000          :
          :  -> integral cutoff          0.2500000E+02      :
          :  -> integral neglect         0.1000000E-07      :
          :  -> SCF convergence          0.1000000E-05 Eh   :
          :  -> wf. convergence          0.1000000E-03 e    :
          :  Broyden damping             0.4000000          :
          :  net charge                         -1          :
          :  unpaired electrons                  0          :
          ...................................................

 iter      E             dE          RMSdq      gap      omega  full diag
   1     -4.9096355 -0.490964E+01  0.404E+00    0.00       0.0  T
   2     -4.9096355  0.000000E+00  0.323E+00    0.00       0.0  T
   3     -4.9096355  0.888178E-15  0.249E+00    0.00       0.0  T
   4     -4.9096355 -0.888178E-15  0.199E+00    0.00       0.0  T
   5     -4.9096355  0.888178E-15  0.159E+00    0.00       0.0  T
   6     -4.9096355  0.888178E-15  0.123E+00    0.00       0.0  T
   7     -4.9096355 -0.888178E-15  0.981E-01    0.00       0.0  T
   8     -4.9096355  0.000000E+00  0.785E-01    0.00       0.0  T
   9     -4.9096355  0.000000E+00  0.604E-01    0.00       0.0  T
  10     -4.9096355  0.000000E+00  0.484E-01    0.00       0.0  T
  11     -4.9096355  0.000000E+00  0.387E-01    0.00       0.0  T
  12     -4.9096355 -0.888178E-15  0.309E-01    0.00       0.0  T
  13     -4.9096355  0.000000E+00  0.248E-01    0.00       0.0  T
  14     -4.9096355  0.000000E+00  0.191E-01    0.00       0.0  T
  15     -4.9096355  0.888178E-15  0.153E-01    0.00       0.0  T
  16     -4.9096355  0.000000E+00  0.122E-01    0.00       0.0  T
  17     -4.9096355 -0.888178E-15  0.976E-02    0.00       0.0  T
  18     -4.9096355  0.177636E-14  0.781E-02    0.00       0.0  T
  19     -4.9096355 -0.177636E-14  0.601E-02    0.00       0.0  T
  20     -4.9096355  0.000000E+00  0.481E-02    0.00       0.0  T
  21     -4.9096355  0.888178E-15  0.370E-02    0.00       0.0  T
  22     -4.9096355  0.888178E-15  0.296E-02    0.00       0.0  T
  23     -4.9096355 -0.888178E-15  0.237E-02    0.00       0.0  T
  24     -4.9096355  0.888178E-15  0.190E-02    0.00       0.0  T
  25     -4.9096355 -0.888178E-15  0.146E-02    0.00       0.0  T
  26     -4.9096355  0.000000E+00  0.117E-02    0.00       0.0  T
  27     -4.9096355  0.000000E+00  0.899E-03    0.00       0.0  T
  28     -4.9096355  0.000000E+00  0.720E-03    0.00       0.0  T
  29     -4.9096355  0.000000E+00  0.576E-03    0.00       0.0  T
  30     -4.9096355  0.888178E-15  0.461E-03    0.00       0.0  T
  31     -4.9096355 -0.888178E-15  0.368E-03    0.00       0.0  T
  32     -4.9096355  0.000000E+00  0.295E-03    0.00       0.0  T
  33     -4.9096355  0.888178E-15  0.227E-03    0.00       0.0  T
  34     -4.9096355  0.000000E+00  0.182E-03    0.00       0.0  T
  35     -4.9096355 -0.888178E-15  0.145E-03    0.00       0.0  T
  36     -4.9096355  0.888178E-15  0.116E-03    0.00       0.0  T
  37     -4.9096355 -0.888178E-15  0.895E-04    0.00       0.0  T
  38     -4.9096355  0.000000E+00  0.716E-04    0.00       0.0  T

   *** convergence criteria satisfied after 38 iterations ***

         #    Occupation            Energy/Eh            Energy/eV
      -------------------------------------------------------------
         1        2.0000           -0.2859787              -7.7819
         2        2.0000           -0.0293084              -0.7975
         3        2.0000           -0.0293084              -0.7975
         4        2.0000           -0.0293084              -0.7975 (HOMO)
      -------------------------------------------------------------
                  HL-Gap            0.0293084 Eh            0.7975 eV
             Fermi-level            0.0000000 Eh            0.0000 eV

 SCC (total)                   0 d,  0 h,  0 min,  0.002 sec
 SCC setup                      ...        0 min,  0.000 sec (  3.242%)
 Dispersion                     ...        0 min,  0.000 sec (  0.335%)
 classical contributions        ...        0 min,  0.000 sec (  0.262%)
 integral evaluation            ...        0 min,  0.000 sec (  2.337%)
 iterations                     ...        0 min,  0.002 sec ( 89.340%)
 molecular gradient             ...        0 min,  0.000 sec (  2.119%)
 printout                       ...        0 min,  0.000 sec (  1.826%)

         :::::::::::::::::::::::::::::::::::::::::::::::::::::
         ::                     SUMMARY                     ::
         :::::::::::::::::::::::::::::::::::::::::::::::::::::
         :: total energy              -4.909635517990 Eh    ::
         :: gradient norm              0.000000000000 Eh/a0 ::
         :: HOMO-LUMO gap              0.000000000000 eV    ::
         ::.................................................::
         :: SCC energy                -4.909635517990 Eh    ::
         :: -> isotropic ES            0.286566576838 Eh    ::
         :: -> anisotropic ES          0.000000000000 Eh    ::
         :: -> anisotropic XC         -0.000000000000 Eh    ::
         :: -> dispersion              0.000000000000 Eh    ::
         :: repulsion energy           0.000000000000 Eh    ::
         :: add. restraining           0.000000000000 Eh    ::
         :: total charge              -1.000000000000 e     ::
         :::::::::::::::::::::::::::::::::::::::::::::::::::::

      ----------------------------------------------------------- 
     |                   =====================                   |
     |                        A N C O P T                        |
     |                   =====================                   |
     |               Approximate Normal Coordinate               |
     |                Rational Function Optimizer                |
      ----------------------------------------------------------- 
      ----------------------------------------------------------- 
     |                   =====================                   |
     |                        A N C O P T                        |
     |                   =====================                   |
     |               Approximate Normal Coordinate               |
     |                Rational Function Optimizer                |
      ----------------------------------------------------------- 
================
 final structure:
================
1
 xtb: 6.7.1 (edcfbbe)
F            0.91608000000000       -0.03045000000000       -0.04505000000000

 Bond Distances (Angstroems)
 ---------------------------


 selected bond angles (degree)
 --------------------


 selected dihedral angles (degree)
 ---------------------------------

           -------------------------------------------------
          |                Final Singlepoint                |
           -------------------------------------------------

          ...................................................
          :                      SETUP                      :
          :.................................................:
          :  # basis functions                   4          :
          :  # atomic orbitals                   4          :
          :  # shells                            2          :
          :  # electrons                         8          :
          :  max. iterations                   250          :
          :  Hamiltonian                  GFN2-xTB          :
          :  restarted?                      false          :
          :  GBSA solvation                  false          :
          :  PC potential                    false          :
          :  electronic temp.          300.0000000     K    :
          :  accuracy                    1.0000000          :
          :  -> integral cutoff          0.2500000E+02      :
          :  -> integral neglect         0.1000000E-07      :
          :  -> SCF convergence          0.1000000E-05 Eh   :
          :  -> wf. convergence          0.1000000E-03 e    :
          :  Broyden damping             0.4000000          :
          :  net charge                         -1          :
          :  unpaired electrons                  0          :
          ...................................................

 iter      E             dE          RMSdq      gap      omega  full diag
   1     -4.9096355 -0.490964E+01  0.551E-04    0.00       0.0  T
   2     -4.9096355  0.000000E+00  0.441E-04    0.00       0.0  T
   3     -4.9096355  0.888178E-15  0.340E-04    0.00       0.0  T

   *** convergence criteria satisfied after 3 iterations ***

         #    Occupation            Energy/Eh            Energy/eV
      -------------------------------------------------------------
         1        2.0000           -0.2859775              -7.7818
         2        2.0000           -0.0293110              -0.7976
         3        2.0000           -0.0293110              -0.7976
         4        2.0000           -0.0293110              -0.7976 (HOMO)
      -------------------------------------------------------------
                  HL-Gap            0.0293110 Eh            0.7976 eV
             Fermi-level            0.0000000 Eh            0.0000 eV

 SCC (total)                   0 d,  0 h,  0 min,  0.000 sec
 SCC setup                      ...        0 min,  0.000 sec (  7.858%)
 Dispersion                     ...        0 min,  0.000 sec (  1.227%)
 classical contributions        ...        0 min,  0.000 sec (  0.846%)
 integral evaluation            ...        0 min,  0.000 sec (  7.516%)
 iterations                     ...        0 min,  0.000 sec ( 69.196%)
 molecular gradient             ...        0 min,  0.000 sec (  5.774%)
 printout                       ...        0 min,  0.000 sec (  5.043%)

         :::::::::::::::::::::::::::::::::::::::::::::::::::::
         ::                     SUMMARY                     ::
         :::::::::::::::::::::::::::::::::::::::::::::::::::::
         :: total energy              -4.909635517990 Eh    ::
         :: gradient norm              0.000000000000 Eh/a0 ::
         :: HOMO-LUMO gap              0.000000000000 eV    ::
         ::.................................................::
         :: SCC energy                -4.909635517990 Eh    ::
         :: -> isotropic ES            0.286566576838 Eh    ::
         :: -> anisotropic ES          0.000000000000 Eh    ::
         :: -> anisotropic XC         -0.000000000000 Eh    ::
         :: -> dispersion              0.000000000000 Eh    ::
         :: repulsion energy           0.000000000000 Eh    ::
         :: add. restraining           0.000000000000 Eh    ::
         :: total charge              -1.000000000000 e     ::
         :::::::::::::::::::::::::::::::::::::::::::::::::::::

           -------------------------------------------------
          |                Property Printout                |
           -------------------------------------------------

    * Orbital Energies and Occupations

         #    Occupation            Energy/Eh            Energy/eV
      -------------------------------------------------------------
         1        2.0000           -0.2859775              -7.7818
         2        2.0000           -0.0293110              -0.7976
         3        2.0000           -0.0293110              -0.7976
         4        2.0000           -0.0293110              -0.7976 (HOMO)
      -------------------------------------------------------------
                  HL-Gap            0.0293110 Eh            0.7976 eV
             Fermi-level            0.0000000 Eh            0.0000 eV

     #   Z          covCN         q      C6AA      α(0)
     1   9 F        0.000    -1.000    24.536     5.769

 Mol. C6AA /au·bohr⁶  :         24.536106
 Mol. C8AA /au·bohr⁸  :        419.843445
 Mol. α(0) /au        :          5.769328


Wiberg/Mayer (AO) data.
largest (>0.10) Wiberg bond orders for each atom

 ---------------------------------------------------------------------------
     #   Z sym  total        # sym  WBO       # sym  WBO       # sym  WBO
 ---------------------------------------------------------------------------
     1   9 F    0.000
 ---------------------------------------------------------------------------


molecular dipole:
                 x           y           z       tot (Debye)
 q only:       -1.731       0.058       0.085
   full:       -1.731       0.058       0.085       4.408
molecular quadrupole (traceless):
                xx          xy          yy          xz          yz          zz
 q only:       -2.992       0.149       1.499       0.221      -0.007       1.493
  q+dip:       -2.992       0.149       1.499       0.221      -0.007       1.493
   full:       -2.992       0.149       1.499       0.221      -0.007       1.493

           -------------------------------------------------
          |                Geometry Summary                 |
           -------------------------------------------------

      molecular mass/u    :       18.9984032
   center of mass at/Å    :        0.9160801      -0.0304500      -0.0450500
  moments of inertia/u·Å² :        0.0000000E+00   0.0000000E+00   0.0000000E+00
rotational constants/cm⁻¹ :             Infinity        Infinity        Infinity


optimized geometry written to: xtbopt.xyz


           -------------------------------------------------
          | TOTAL ENERGY               -4.909635517990 Eh   |
          | GRADIENT NORM               0.000000000000 Eh/α |
          | HOMO-LUMO GAP               0.797592087732 eV   |
           -------------------------------------------------

------------------------------------------------------------------------
 * finished run on 2024/12/20 at 01:52:57.960     
------------------------------------------------------------------------
 total:
 * wall-time:     0 d,  0 h,  0 min,  0.017 sec
 *  cpu-time:     0 d,  0 h,  0 min,  0.122 sec
 * ratio c/w:     7.258 speedup
 SCF:
 * wall-time:     0 d,  0 h,  0 min,  0.003 sec
 *  cpu-time:     0 d,  0 h,  0 min,  0.019 sec
 * ratio c/w:     7.728 speedup
 ANC optimizer:
 * wall-time:     0 d,  0 h,  0 min,  0.001 sec
 *  cpu-time:     0 d,  0 h,  0 min,  0.006 sec
 * ratio c/w:     8.039 speedup

