20
 energy: -30.795953383907 gnorm: 5.526216667996 xtb: 6.7.1 (edcfbbe)
C            0.92697000000000       -0.06659000000000       -0.01526000000000
C            0.42030000000000        1.30811000000000        0.38957000000000
C            0.92696000000000        2.34606000000000       -0.59855000000000
C            0.42029000000000        2.00930000000000       -1.99149000000000
C           -1.09971000000000        2.00930000000000       -1.99149000000000
B            0.39364000000000       -0.42107000000000       -1.48151000000000
F            0.86364000000000       -1.69629000000000       -1.85705000000000
F           -1.01636000000000       -0.42108000000000       -1.48151000000000
F            0.86364000000000        0.54176000000000       -2.39811000000000
H            0.57031000000000       -0.79725000000000        0.68032000000000
H            1.99697000000000       -0.06659000000000       -0.01526000000000
H           -0.64970000000000        1.30811000000000        0.38957000000000
H            0.77697000000000        1.54517000000000        1.37012000000000
H            0.57029000000000        3.31377000000000       -0.31357000000000
H            1.99696000000000        2.34606000000000       -0.59855000000000
H            0.77696000000000        2.73996000000000       -2.68707000000000
H            0.77696000000000        1.04158000000000       -2.27646000000000
H           -1.45638000000000        2.97702000000000       -1.70651000000000
H           -1.45637000000000        1.77224000000000       -2.97204000000000
H           -1.45637000000000        1.27864000000000       -1.29591000000000
20
 energy: -31.899188856902 gnorm: 0.421126097252 xtb: 6.7.1 (edcfbbe)
C            0.92653180564135       -0.06513705400091       -0.01476198798539
C            0.42132443454556        1.30801919814070        0.38907931515163
C            0.92501534879097        2.34685521881926       -0.60037438447223
C            0.40116174792922        2.07695543423024       -1.97178281506196
C           -1.09746006485321        2.01046148630435       -1.99226115556056
B            0.39082883985936       -0.44058024277908       -1.47531290594283
F            0.86271218725041       -1.69960164902658       -1.85703840139091
F           -1.01491653504190       -0.42585810532689       -1.48128759611650
F            0.91973659889628        0.25501260836766       -2.46866207048763
H            0.57001633515055       -0.79842069337905        0.68176905805431
H            1.99870524501850       -0.06750029662667       -0.01577769836475
H           -0.65092454410874        1.30837859039333        0.39046589614300
H            0.77727373898683        1.54567203976348        1.37239765927089
H            0.56977700900740        3.31842553013628       -0.30913342927946
H            1.99921023963383        2.34659325070968       -0.59839683699742
H            0.77774049450494        2.74719802151266       -2.68939198600004
H            0.74480060360249        1.26830635630329       -2.23482817603250
H           -1.46055678459546        2.98072497588693       -1.70564167155395
H           -1.45717497247021        1.77203968232611       -2.97399134711732
H           -1.45783172774818        1.28066564824522       -1.29582946625636
20
 energy: -31.988968973004 gnorm: 0.253482202570 xtb: 6.7.1 (edcfbbe)
C            0.92940808707616       -0.06705403630624       -0.01376158572629
C            0.43115134977777        1.31332927148840        0.39445912016771
C            0.91816234847954        2.38113352469406       -0.58106582506233
C            0.38768750950504        2.14920651362278       -1.97030137806494
C           -1.11676148499037        2.06310948372841       -1.99550420377364
B            0.40177500414980       -0.51005538341092       -1.47532600041656
F            0.84982088150789       -1.79652223984879       -1.82461115666203
F           -1.00620211043142       -0.50068495815778       -1.50149988141737
F            0.95121366699566        0.16808918158252       -2.52640060687269
H            0.57566400775446       -0.80529795490533        0.69703182151996
H            2.01342677477300       -0.07079307772118       -0.00685137110669
H           -0.65163437641097        1.30756291196171        0.40549903958591
H            0.78295400332764        1.55223305859309        1.39314240320045
H            0.57486836281295        3.35828667013812       -0.26083453900584
H            2.00564823266459        2.36018339269102       -0.59476240582632
H            0.76970321925957        2.84689123472914       -2.69604673639349
H            0.77683225470541        1.19230500129476       -2.29984090992849
H           -1.51246896979229        3.02369348009866       -1.70306495648749
H           -1.46520237878506        1.78898394182015       -2.98358448844594
H           -1.47007638237930        1.31360998390743       -1.30743633928391
20
 energy: -32.024677322398 gnorm: 0.222580460926 xtb: 6.7.1 (edcfbbe)
C            0.93973849362657       -0.06854777245487       -0.01794879377363
C            0.44367723972759        1.31563962333872        0.39761842089273
C            0.91306598784344        2.40230938146788       -0.57250968921259
C            0.38816572303296        2.16998830491948       -1.98126748775696
C           -1.12994644499928        2.11626229785603       -2.00820578070062
B            0.41161104241116       -0.57719122223941       -1.47515867206552
F            0.83846781369089       -1.89721158786687       -1.76393065115210
F           -0.99338780762459       -0.58060232064966       -1.53798568314005
F            0.96029441259173        0.11139752811346       -2.57619187955445
H            0.59459117062891       -0.80466966298770        0.71252546799262
H            2.03192911851361       -0.07365888739564        0.00146888405452
H           -0.64582088532725        1.30267040388442        0.42968869437392
H            0.79530726288945        1.55438358303577        1.40766260504952
H            0.58508122122728        3.38278150152164       -0.20208969395494
H            2.00848558745849        2.38274624465580       -0.59033698840775
H            0.76541851873506        2.91850975757969       -2.68529077025865
H            0.77946209236076        1.16647954441996       -2.34513905805478
H           -1.57369175357334        3.06684578385640       -1.70943111705002
H           -1.47711894064654        1.83047227681481       -2.99977656975124
H           -1.48935985256674        1.34960522213016       -1.33446123753003
20
 energy: -32.052328338289 gnorm: 0.191051978846 xtb: 6.7.1 (edcfbbe)
C            0.94861421654412       -0.07340440117780       -0.02225075781781
C            0.45265036181890        1.31533407159055        0.39242535317901
C            0.90868329217007        2.42086759041597       -0.56636642089971
C            0.38377555137773        2.19957480945702       -1.98648253644637
C           -1.14226391622104        2.16587879416881       -2.01965903424194
B            0.41819808526655       -0.65830408003697       -1.46418669547026
F            0.83956081679311       -1.99185541113231       -1.70085040117761
F           -0.97777700507277       -0.66489788149897       -1.57727437905194
F            0.96676976217412        0.03614120347236       -2.62139461176465
H            0.61531674672427       -0.80270891233874        0.73089655057023
H            2.04648985328813       -0.07934377792559        0.00402064008204
H           -0.64198655756517        1.29918250747148        0.44316924236103
H            0.80742167675586        1.55327788149000        1.41118862816803
H            0.59175999294352        3.40112057738108       -0.16199634710627
H            2.01006390623589        2.41182916927442       -0.58937481538445
H            0.75411119751093        3.00556071678035       -2.65685738020388
H            0.77411507745560        1.14880943338696       -2.37812613633558
H           -1.61208130136178        3.11028902959834       -1.72075527819260
H           -1.48945768208689        1.88057819445009       -3.01616600880101
H           -1.50799407475086        1.39028048517304       -1.35071961146627
20
 energy: -32.073169405059 gnorm: 0.165578688143 xtb: 6.7.1 (edcfbbe)
C            0.95485620035049       -0.08393846191742       -0.02825397152149
C            0.46169039412117        1.30966679670750        0.38565953569417
C            0.90178807911509        2.43210860252812       -0.56193630809701
C            0.37377767744571        2.23538440078774       -1.98981324049285
C           -1.15607135161510        2.21316870845230       -2.03295162908416
B            0.42442882284842       -0.73798171806941       -1.44985221710607
F            0.85415765226869       -2.07200328576942       -1.63132595506967
F           -0.95874206673628       -0.74679892497212       -1.60388788317652
F            0.97270415028299       -0.03753843421466       -2.65423398824182
H            0.63672502535178       -0.80024082680957        0.74845053579243
H            2.05426781018639       -0.08699649817942       -0.00596449106362
H           -0.63355857161380        1.29422780761693        0.45395629443421
H            0.82485773360170        1.54493608015138        1.40649457017492
H            0.58997264539959        3.40713096409920       -0.13520301475876
H            2.00485531185890        2.43727680409860       -0.59213143510624
H            0.74000305339988        3.07656543440212       -2.62859104694628
H            0.76219377521357        1.15381531933818       -2.39074216090914
H           -1.63276261393293        3.15615735593503       -1.73673654759571
H           -1.49863220505318        1.93831969683150       -3.03453325598573
H           -1.53054152249265        1.43495017898353       -1.36916379094069
20
 energy: -32.092700227141 gnorm: 0.134760695162 xtb: 6.7.1 (edcfbbe)
C            0.95905321584757       -0.09839482581714       -0.03659223010314
C            0.46765311143766        1.30082846363462        0.37409027340241
C            0.89458985175711        2.44037291462452       -0.55904831593596
C            0.35937739716034        2.27880877924055       -1.99048474139211
C           -1.17099493737643        2.26025759725638       -2.04401369893647
B            0.43120706411639       -0.81779790363229       -1.43402371291348
F            0.87776729571197       -2.14165978289929       -1.55666042294259
F           -0.93771230552426       -0.83206890504293       -1.62152071862408
F            0.98299682867755       -0.11539799524020       -2.67741454216412
H            0.65729594579242       -0.79672639382690        0.76280607360710
H            2.05776311714741       -0.09520530080518       -0.02472811050844
H           -0.62547500298177        1.28742602121196        0.45580133700566
H            0.84198876048913        1.53246300796849        1.39227094510631
H            0.58301155349467        3.40564518583087       -0.11450052037023
H            1.99599022436823        2.45811555507530       -0.59895864446557
H            0.72757067401074        3.12644213077582       -2.60616972801744
H            0.74460276337091        1.18749372856849       -2.38454062213874
H           -1.64335785023825        3.20588474097140       -1.75260161269290
H           -1.50479293733745        1.99765558102719       -3.05024301032900
H           -1.55256476992338        1.48406740107850       -1.38422799758726
20
 energy: -32.109953004881 gnorm: 0.102357239767 xtb: 6.7.1 (edcfbbe)
C            0.96125406813786       -0.11286801928411       -0.04729168236161
C            0.47067438187557        1.29054121781444        0.36121530730324
C            0.88771459422893        2.44436558481138       -0.55797339410649
C            0.34205756913312        2.31740907943290       -1.98603900465909
C           -1.18536452154440        2.30150982960243       -2.05275513329537
B            0.43961781844580       -0.88322144387460       -1.42261464616833
F            0.90656046685532       -2.19287550803928       -1.48319960455175
F           -0.91979922673769       -0.90947175844618       -1.62850231896860
F            0.99753543328376       -0.19101350504112       -2.68944691364080
H            0.67601994285568       -0.79120986411118        0.77140592132481
H            2.05774130139232       -0.10135143426444       -0.05042386664772
H           -0.61858476952439        1.27839816978136        0.45271133753606
H            0.85759760571151        1.51831267458221        1.37238584678478
H            0.57266944553199        3.39733122833190       -0.09935402957380
H            1.98462258687927        2.47026002424863       -0.60945289279396
H            0.72163995886811        3.14587813285164       -2.59149041976982
H            0.72036469330323        1.25097946381591       -2.36311796347613
H           -1.64339610499063        3.25326141067508       -1.76458456595795
H           -1.50789608149822        2.05307169315587       -3.06325007645502
H           -1.57505916220647        1.52890302395734       -1.39898190052253
20
 energy: -32.123184000946 gnorm: 0.065831034135 xtb: 6.7.1 (edcfbbe)
C            0.96327359842414       -0.12251236849262       -0.05942670881993
C            0.46990527356540        1.28049142875938        0.34979434691084
C            0.87988448121651        2.44435354482610       -0.55793554629233
C            0.32590416762936        2.33761473778599       -1.97757198420131
C           -1.19678518473026        2.33436935672611       -2.05785784538406
B            0.45089089460940       -0.92433129033580       -1.41942651949510
F            0.93686189899110       -2.22486898621378       -1.41434063322245
F           -0.90895138014501       -0.96921463757058       -1.62513925522261
F            1.01318313382617       -0.26371471045946       -2.69222718498089
H            0.69487343495859       -0.78533098959763        0.77253470578349
H            2.05740359470121       -0.10209176181111       -0.08058301722714
H           -0.61595649859891        1.26672806075188        0.44616532155464
H            0.86815599893829        1.50417806518062        1.35261116693397
H            0.55994802664638        3.38592727998232       -0.08899530746792
H            1.97187593652960        2.47373431074946       -0.62091733291000
H            0.72624389100809        3.14031167157995       -2.58531885975098
H            0.68956709817902        1.33145192607314       -2.33677728334368
H           -1.63298026328884        3.29441089653001       -1.76883117451995
H           -1.50881255610504        2.10325290169755       -3.07325781206585
H           -1.59851554635444        1.56345056383869       -1.41325907627882
20
 energy: -32.129109678233 gnorm: 0.041016226621 xtb: 6.7.1 (edcfbbe)
C            0.97031949613508       -0.12335462445705       -0.07050732728576
C            0.46545264772433        1.27190525269545        0.34300463984078
C            0.87046893930970        2.44248623867550       -0.55590230381228
C            0.31544287013592        2.33778067742094       -1.96961937789930
C           -1.20394203147724        2.36099004618734       -2.06087786392410
B            0.46416922971944       -0.94255538532698       -1.42126992586425
F            0.96010093128245       -2.24373596051076       -1.35931105322060
F           -0.90426028958217       -1.00358284234239       -1.61013188756029
F            1.02296857129821       -0.33403088162488       -2.69097864031640
H            0.72013708651188       -0.78317566509223        0.76718662481458
H            2.06337213639888       -0.09205146491459       -0.11020115872006
H           -0.61977601766574        1.25047401164118        0.43721952310465
H            0.86725347278552        1.49182354158573        1.34216647491286
H            0.54563890911832        3.37730430238199       -0.08228442428165
H            1.96046236762844        2.47264246578933       -0.62593306884270
H            0.73818359363331        3.12685398887875       -2.58626794130248
H            0.65873400918353        1.39226016738604       -2.32111119232911
H           -1.61586928782360        3.32828578228123       -1.76446601822365
H           -1.50982058572437        2.15060652447989       -3.08249937653003
H           -1.62306604859104        1.58728382486576       -1.42897570256030
20
 energy: -32.131168622721 gnorm: 0.040796372405 xtb: 6.7.1 (edcfbbe)
C            0.98462001602278       -0.11844460848519       -0.07635428176881
C            0.45917137412484        1.26524562490965        0.34061069278441
C            0.86244736573321        2.44000623115391       -0.55220985987187
C            0.31235800359043        2.33155777022176       -1.96629242697840
C           -1.20603402449026        2.38039474813483       -2.06347528265478
B            0.47356913544141       -0.94662947155896       -1.42023047086934
F            0.96523644879212       -2.25458969845984       -1.33189200296396
F           -0.90287088224721       -1.00833516960024       -1.58662894842358
F            1.02219922802280       -0.38338181173431       -2.69111772408709
H            0.75197472975329       -0.78629991458085        0.76167711076892
H            2.07765616144785       -0.07234220394511       -0.12898988556353
H           -0.62753343379237        1.23071213107616        0.42424442051155
H            0.85124568511250        1.48488436860348        1.34357112572720
H            0.53203517736995        3.37337664654703       -0.08084090565466
H            1.95333275429331        2.47174119090308       -0.62000306024617
H            0.74626966368778        3.12001133091115       -2.58756886361611
H            0.64242765643168        1.39801908828301       -2.32559399486622
H           -1.59994483137419        3.35082166735888       -1.75544047221800
H           -1.51135195870611        2.18942825069180       -3.09041812662321
H           -1.64083826921289        1.60203382957006       -1.44380704338644
20
 energy: -32.134607123695 gnorm: 0.031384704032 xtb: 6.7.1 (edcfbbe)
C            1.01844949730625       -0.10710916838376       -0.08739421441900
C            0.44697024260666        1.25179870574940        0.33616708662486
C            0.84746567157860        2.43517174627144       -0.54450491915551
C            0.30867379238803        2.32061226596348       -1.96170906642306
C           -1.20826568709960        2.41808724528213       -2.06724235578961
B            0.49449141935855       -0.94893156841606       -1.41860443355213
F            0.96365519466507       -2.27529673041833       -1.28908002820805
F           -0.90054524144924       -1.00014030876887       -1.53581422457904
F            1.01880981079567       -0.48672890483649       -2.68767337243890
H            0.82148553435496       -0.79475069222876        0.74796377417704
H            2.11029138539394       -0.02630572805729       -0.16004960594579
H           -0.64329178262996        1.18753949152838        0.38783275037868
H            0.80629096407171        1.47406726296401        1.35268688098128
H            0.50327331673483        3.36775616236117       -0.08103413135436
H            1.94106031713385        2.47250929898679       -0.60109074072820
H            0.76026207433230        3.10827731259433       -2.59118533472843
H            0.61542250206739        1.38367119391440       -2.34252704604775
H           -1.57215369677269        3.39141741242876       -1.73303559118477
H           -1.51557860062298        2.26436478783648       -3.10258357355429
H           -1.67079671421228        1.63220021522919       -1.47188185405306
20
 energy: -32.136157193426 gnorm: 0.019155299474 xtb: 6.7.1 (edcfbbe)
C            1.05212261653561       -0.10104787426643       -0.09551342660030
C            0.43782144808925        1.23762557931717        0.32948569233305
C            0.83456468832752        2.42966129448370       -0.54166386437686
C            0.30640721800007        2.31907990232067       -1.96467473166688
C           -1.20892484841799        2.44859883103783       -2.07097704081748
B            0.51060997550512       -0.95244876935156       -1.41382146347444
F            0.94853351081106       -2.29743050023331       -1.25326939129339
F           -0.89725533348213       -0.98170622203713       -1.49573955596250
F            1.01532453620688       -0.56545108966485       -2.68157308082005
H            0.88414864931287       -0.80007905002020        0.73806518260103
H            2.14095171013748        0.01307630638532       -0.17930263570911
H           -0.65313321056215        1.14521117797389        0.35039557615393
H            0.76186227094359        1.46365248612831        1.35899142606371
H            0.47630498031413        3.35994442075949       -0.08097856689123
H            1.92911295700038        2.47754110424736       -0.58311104375273
H            0.77141251665042        3.10071827364126       -2.59491316977642
H            0.59753358143558        1.36496153906355       -2.35566053367104
H           -1.55382939292972        3.42141654277849       -1.71497920198011
H           -1.51970419155328        2.32347250206934       -3.10933002076361
H           -1.68789368232357        1.66141354536758       -1.49219014959565
20
 energy: -32.136832541579 gnorm: 0.013481860682 xtb: 6.7.1 (edcfbbe)
C            1.07896556329813       -0.10177721118722       -0.09865782906081
C            0.43381443835802        1.22422657786512        0.32161493856261
C            0.82391417644638        2.42500330296884       -0.54225555979468
C            0.30399922608803        2.32392964668419       -1.97099084905558
C           -1.20981538315937        2.46995307516321       -2.07730150019730
B            0.51820419434389       -0.96076094170419       -1.40315980139546
F            0.92674346015426       -2.31752657090475       -1.22461255229900
F           -0.89364023455612       -0.96450130186772       -1.47101807059688
F            1.01289739556558       -0.60955612887775       -2.67494816431472
H            0.93351064463411       -0.80117964637840        0.73826415483635
H            2.16383392082534        0.03789390036162       -0.19241762216317
H           -0.65470770752352        1.10967594921651        0.32362212444895
H            0.73365584217049        1.45393907755977        1.35756634429402
H            0.45335618580121        3.35013923150339       -0.07802438122092
H            1.91781723464988        2.48562636724280       -0.57239835151240
H            0.78010322069141        3.09834573649466       -2.59442109911588
H            0.58767233229595        1.35508412548076       -2.35988763895963
H           -1.54427164243150        3.44090692791518       -1.70580569939742
H           -1.52181638938224        2.36570912005491       -3.11675975171698
H           -1.69826647826871        1.68307876240959       -1.50916869134120
20
 energy: -32.137460395817 gnorm: 0.012619626961 xtb: 6.7.1 (edcfbbe)
C            1.11124537195159       -0.10602897957179       -0.10093940602635
C            0.43182027069475        1.20662441328570        0.31107652720680
C            0.80988391092298        2.41941495692866       -0.54306925451310
C            0.29983936546790        2.33192988752958       -1.97829890291814
C           -1.21158254685266        2.49500831789215       -2.08890886334351
B            0.52303906442685       -0.97784822568852       -1.38387720127481
F            0.89213894531625       -2.34412937906445       -1.19050962758965
F           -0.88880991705325       -0.94274319879183       -1.44398705569107
F            1.01121351828220       -0.65330129889869       -2.66322880141136
H            0.99835005163308       -0.79830765262629        0.74623248254007
H            2.18932907035895        0.06434551856043       -0.21444662684736
H           -0.65167710352723        1.06533464275613        0.29317057138799
H            0.70667825933509        1.44176084436359        1.35141355495768
H            0.42263281365433        3.33482197938623       -0.07109749867172
H            1.90216593250419        2.49890823105499       -0.56222030001440
H            0.79125290072708        3.09691112806754       -2.58909542455204
H            0.57760013777007        1.34827848646442       -2.35841361845486
H           -1.53551392120722        3.46264074771731       -1.69833703547500
H           -1.52178572115068        2.41805564338181       -3.13053340141660
H           -1.71185040325297        1.70653393725360       -1.53569011789268
20
 energy: -32.137911610255 gnorm: 0.013506138694 xtb: 6.7.1 (edcfbbe)
C            1.13887337524407       -0.11035785997401       -0.10363358848177
C            0.43105704737006        1.19057856640506        0.30184705599988
C            0.79618402437502        2.41462115673658       -0.54216898183294
C            0.29561211237795        2.33797278858573       -1.98246925931948
C           -1.21277080192313        2.51706763127904       -2.10115349878300
B            0.52382621757054       -0.99792798768396       -1.36278906539592
F            0.85616816589974       -2.36880444272192       -1.15711032447587
F           -0.88514173242771       -0.92290789641633       -1.41973091871505
F            1.01170550332322       -0.68904738924858       -2.64983476773372
H            1.06325661592676       -0.79134038858864        0.75677341914880
H            2.20865931332828        0.08702370892946       -0.24556186913138
H           -0.64712518803327        1.02609221464964        0.26583518435610
H            0.68621206423222        1.42956042623310        1.34487294659322
H            0.39266811631692        3.31873251973097       -0.06237448325806
H            1.88659606586113        2.51254932462084       -0.55389984427519
H            0.80244985603735        3.09565203257883       -2.58182456055331
H            0.56875698115833        1.34692307315254       -2.35418346474570
H           -1.52845797156819        3.48060565880437       -1.69295078003566
H           -1.51802221725717        2.46670186167937       -3.14556455163571
H           -1.72453754781065        1.72451500124854       -1.56483864772535
20
 energy: -32.138269910540 gnorm: 0.011175089581 xtb: 6.7.1 (edcfbbe)
C            1.16019289796630       -0.11284853626732       -0.10748694415715
C            0.43069419185961        1.17744165086166        0.29523346002083
C            0.78423763938922        2.41084544785114       -0.53901768243120
C            0.29225436138713        2.34060947427231       -1.98300182596270
C           -1.21262210741531        2.53453274129227       -2.11196571386044
B            0.52112565660073       -1.01700063212122       -1.34235507046659
F            0.82225610619487       -2.38801864813201       -1.12418807664308
F           -0.88359466220877       -0.90563828658705       -1.39953468942539
F            1.01443883096212       -0.71874323319701       -2.63587116164919
H            1.12500951435292       -0.78079136540022        0.76503343028684
H            2.21996099823279        0.10647786516464       -0.28464628475278
H           -0.64270978950434        0.99547870645984        0.24323395594134
H            0.67049384295960        1.41688677508132        1.34067408958835
H            0.36628000542122        3.30392509242982       -0.05348728623208
H            1.87287017614480        2.52445360098973       -0.54562131290751
H            0.81252378797339        3.09381242451106       -2.57517322768684
H            0.56059971695502        1.34963244058947       -2.35098182302093
H           -1.52295355445817        3.49293543105360       -1.68826476353598
H           -1.51019457197008        2.50809001191802       -3.15918353734556
H           -1.73489304084146        1.73612903923062       -1.59415553576007
20
 energy: -32.138533225979 gnorm: 0.007551224690 xtb: 6.7.1 (edcfbbe)
C            1.17329175274533       -0.11231730051917       -0.11248041219737
C            0.42933319173050        1.16872834868342        0.29207297536940
C            0.77594789741128        2.40825442468872       -0.53415669346952
C            0.29112728081795        2.33942186288382       -1.98055532468519
C           -1.21064445981919        2.54526453851353       -2.11894931979050
B            0.51577938167660       -1.03061394568755       -1.32597027063735
F            0.79437427281017       -2.39911673905577       -1.09359161119960
F           -0.88504322729226       -0.89232311573178       -1.38702002645741
F            1.01901737581872       -0.74222768466683       -2.62323230621816
H            1.17823094983343       -0.76897799302979        0.76795240336530
H            2.22222355127033        0.12351362498816       -0.32659119142557
H           -0.64107442039502        0.97677540236341        0.22826862591439
H            0.65856940512062        1.40520995401966        1.34013546261943
H            0.34714391500273        3.29315439434526       -0.04655200954545
H            1.86338017989503        2.53217674722736       -0.53643303217207
H            0.81971922889717        3.09123256518923       -2.57114161508046
H            0.55378341586842        1.35365428364104       -2.35209337440966
H           -1.51857543732594        3.49801700931406       -1.68235910332343
H           -1.49938742827024        2.53814464974120       -3.16879024709623
H           -1.74122682579396        1.74023897309277       -1.61927292956069
20
 energy: -32.138699058156 gnorm: 0.006403960649 xtb: 6.7.1 (edcfbbe)
C            1.17885093605021       -0.10933389133978       -0.11759166121434
C            0.42662484762725        1.16445971546701        0.29205738866198
C            0.77186005280900        2.40661638395701       -0.52938840177419
C            0.29250359367652        2.33615420854189       -1.97724447856694
C           -1.20760932394671        2.54915219556276       -2.12152520434128
B            0.50985648852641       -1.03681998612199       -1.31590731827081
F            0.77432170769415       -2.40293458182238       -1.06940413086140