55
 energy: -64.781640697641 gnorm: 0.057114165599 xtb: 6.7.1 (edcfbbe)
C            1.78072000000000       -0.24321000000000       -0.19770000000000
C            0.92633000000000       -1.41999000000000        0.27476000000000
C           -0.02975000000000       -1.01271000000000        1.39287000000000
C           -1.10594000000000       -0.00115000000000        0.97714000000000
C           -2.05601000000000       -0.46700000000000       -0.13241000000000
C           -2.87080000000000       -1.72551000000000        0.18775000000000
C           -3.81547000000000       -1.60493000000000        1.38975000000000
C           -4.89667000000000       -0.52373000000000        1.26793000000000
C           -5.85927000000000       -0.68986000000000        0.08548000000000
C           -6.69372000000000       -1.97638000000000        0.09830000000000
C           -7.64980000000000       -2.12241000000000        1.28845000000000
C           -8.73381000000000       -1.04241000000000        1.39382000000000
C           -9.69148000000000       -0.95523000000000        0.19907000000000
C          -10.49663000000000       -2.22766000000000       -0.08951000000000
C          -11.41806000000000       -2.69040000000000        1.04460000000000
C          -12.50632000000000       -1.69206000000000        1.45553000000000
C          -13.48117000000000       -1.28703000000000        0.34641000000000
C          -14.27635000000000       -2.45493000000000       -0.21717000000000
O            1.56061000000000        0.13471000000000       -1.38211000000000
O            2.61084000000000        0.19437000000000        0.64875000000000
H            0.38519000000000       -1.86531000000000       -0.56673000000000
H            1.60729000000000       -2.19517000000000        0.64763000000000
H           -0.50612000000000       -1.91272000000000        1.79783000000000
H            0.54371000000000       -0.57804000000000        2.22133000000000
H           -1.68863000000000        0.27084000000000        1.86506000000000
H           -0.62005000000000        0.92574000000000        0.64849000000000
H           -2.73722000000000        0.35702000000000       -0.37474000000000
H           -1.48328000000000       -0.64752000000000       -1.04943000000000
H           -3.44825000000000       -2.00144000000000       -0.70229000000000
H           -2.18914000000000       -2.56602000000000        0.36282000000000
H           -4.29191000000000       -2.57810000000000        1.55644000000000
H           -3.22851000000000       -1.40960000000000        2.29488000000000
H           -5.46853000000000       -0.49633000000000        2.20274000000000
H           -4.41847000000000        0.45978000000000        1.19124000000000
H           -6.52769000000000        0.17836000000000        0.05564000000000
H           -5.29297000000000       -0.65173000000000       -0.85233000000000
H           -7.26495000000000       -2.03014000000000       -0.83574000000000
H           -6.02527000000000       -2.84492000000000        0.07974000000000
H           -8.12491000000000       -3.10888000000000        1.23374000000000
H           -7.07334000000000       -2.12930000000000        2.22077000000000
H           -9.31106000000000       -1.21743000000000        2.30929000000000
H           -8.26015000000000       -0.06346000000000        1.53190000000000
H          -10.38063000000000       -0.11903000000000        0.36571000000000
H           -9.12560000000000       -0.69041000000000       -0.70177000000000
H          -11.09027000000000       -2.06582000000000       -0.99685000000000
H           -9.80946000000000       -3.04592000000000       -0.33455000000000
H          -11.88829000000000       -3.63498000000000        0.74640000000000
H          -10.81643000000000       -2.93176000000000        1.92875000000000
H          -13.07865000000000       -2.12959000000000        2.28342000000000
H          -12.03933000000000       -0.78661000000000        1.86020000000000
H          -14.18632000000000       -0.55480000000000        0.75826000000000
H          -12.94965000000000       -0.77936000000000       -0.46561000000000
H          -14.80542000000000       -2.98978000000000        0.57800000000000
H          -15.02042000000000       -2.09260000000000       -0.93381000000000
H          -13.63035000000000       -3.16481000000000       -0.74191000000000
55
 energy: -64.785524310220 gnorm: 0.025058804798 xtb: 6.7.1 (edcfbbe)
C            1.77987285221778       -0.23037143325048       -0.20695881556821
C            0.91584497881021       -1.42814168188864        0.27927578465768
C           -0.04406294041474       -1.02884945584358        1.39644005941652
C           -1.10763193811419       -0.00964848801899        0.98008565221371
C           -2.05613373786082       -0.46744605968159       -0.12897139703968
C           -2.87459791770232       -1.72181095573210        0.18598119016116
C           -3.81868128054663       -1.60594259678306        1.38552001153092
C           -4.89782188091076       -0.52692521273526        1.26712661295863
C           -5.86013718279124       -0.69068200949876        0.08840927642181
C           -6.69544862062437       -1.97299314560390        0.09896329683174
C           -7.65127338160094       -2.12176633155357        1.28508225683889
C           -8.73417040770708       -1.04532428951984        1.39269783171826
C           -9.69087213586150       -0.95641496401747        0.20128429903628
C          -10.49608532123459       -2.22500784672480       -0.08827909745752
C          -11.41703688801713       -2.68838664799773        1.04223881491690
C          -12.50237069441392       -1.69156563731609        1.45494741919545
C          -13.47750069873094       -1.28831645145296        0.34789024294466
C          -14.27476045353006       -2.45525833617434       -0.21849911196113
O            1.56873755520492        0.15691628396929       -1.37434059482371
O            2.59144606892803        0.21654772766706        0.62827778035809
H            0.36947610049813       -1.85914325325119       -0.56533697834033
H            1.59624794729735       -2.19823673871884        0.66516654350661
H           -0.53168621762532       -1.92158758365318        1.81059713494228
H            0.55045519523763       -0.57984015417450        2.20005612560999
H           -1.69108861880025        0.26970120189111        1.86610294895781
H           -0.59787689891591        0.89363162121260        0.63073475798672
H           -2.73632274460113        0.35716915542689       -0.36757646684166
H           -1.46607619328299       -0.65564496469237       -1.02944546600575
H           -3.45456258520339       -1.99270017558396       -0.70248488318820
H           -2.18828393891358       -2.55216155288273        0.37438519834105
H           -4.29813309335753       -2.57727253163645        1.54741627089385
H           -3.22726718439463       -1.39678360331660        2.28153200027839
H           -5.47122976018235       -0.50605563082131        2.19963010825744
H           -4.41273662752163        0.44900175599975        1.17718298995332
H           -6.53056996673873        0.17408735530442        0.06604556500116
H           -5.28676152522054       -0.66394537352804       -0.84222499536805
H           -7.26969303994340       -2.01970073238059       -0.83142797143452
H           -6.02253549331899       -2.83499733576857        0.09250408628917
H           -8.12864088638661       -3.10463560322669        1.22295440814246
H           -7.07153546903283       -2.11586000719306        2.21246829844259
H           -9.31231707667556       -1.22851256227189        2.30370606149705
H           -8.25586424207847       -0.06988030252025        1.51892134567236
H          -10.38156992649404       -0.12589535660877        0.37629844108594
H           -9.11987826400578       -0.70242766009811       -0.69631243787566
H          -11.09294310960380       -2.05518406090678       -0.98947214494341
H           -9.80588465187154       -3.04065618289068       -0.32195926941342
H          -11.89111470226975       -3.62626731789024        0.73717286097158
H          -10.81338148339220       -2.91823850414274        1.92481509434195
H          -13.07606446458858       -2.13514818636199        2.27598492121193
H          -12.03027411703704       -0.78778680244221        1.85015170559063
H          -14.17721569459752       -0.55539121775816        0.76314144935808
H          -12.93742730775433       -0.79057015316079       -0.46099992468907
H          -14.79721397789715       -2.98633480637435        0.57690559235195
H          -15.01694460300927       -2.09654224047763       -0.93212767595765
H          -13.62823135341795       -3.16216296294527       -0.73544720697702
55
 energy: -64.786166863134 gnorm: 0.009975944458 xtb: 6.7.1 (edcfbbe)
C            1.75762099460002       -0.20794169294211       -0.20448947083859
C            0.89969581999005       -1.43941561532177        0.28144556164575
C           -0.05448994814497       -1.03932589367301        1.40307840914452
C           -1.10908515354857       -0.01396188392544        0.98295299338426
C           -2.05740278927002       -0.46844159503285       -0.12720154209253
C           -2.87765080202442       -1.72218855476482        0.18339010970438
C           -3.82076206416411       -1.60623028296499        1.38336836997091
C           -4.89937812804991       -0.52719877399434        1.26658050108474
C           -5.86189304301700       -0.68982422017118        0.08852270805092
C           -6.69639370314292       -1.97215561464971        0.09799090009807
C           -7.65124874416870       -2.12223128614376        1.28416312576908
C           -8.73364792718272       -1.04615362072243        1.39328269715978
C           -9.68979330652537       -0.95552960369488        0.20220780041099
C          -10.49405884023105       -2.22379234136228       -0.08919111145825
C          -11.41380646500256       -2.68870640269470        1.04121661888835
C          -12.49810631914491       -1.69174843454542        1.45513054016866
C          -13.47101461364121       -1.28672167275734        0.34666315744939
C          -14.27006112902411       -2.45583089286514       -0.21661670524488
O            1.56416722353105        0.16403590485197       -1.37101914608927
O            2.57266001113862        0.23302551661066        0.61807733297005
H            0.35792343305030       -1.86400984139473       -0.56826527899078
H            1.58991005189936       -2.19900745330647        0.66736704127566
H           -0.54530862788488       -1.92779088290911        1.82388765108857
H            0.55079024673577       -0.58689049560691        2.19503587063788
H           -1.68949019876173        0.27889888795091        1.86628775510420
H           -0.58160675436894        0.87188932962182        0.62114777404010
H           -2.73403356994153        0.35751276302203       -0.36643969477608
H           -1.45922231460545       -0.66072265667688       -1.01865982078139
H           -3.45698902524305       -1.98967386166778       -0.70511982539654
H           -2.19020215756670       -2.54797793154414        0.37662289754385
H           -4.29945027787454       -2.57696454963633        1.54356106481166
H           -3.22714484345360       -1.39150285066726        2.27436126500257
H           -5.47109512817984       -0.50799530560128        2.19879320590135
H           -4.41122743789385        0.44436369897574        1.17022325220937
H           -6.53153055291658        0.17394980996993        0.06917039215786
H           -5.28604760356620       -0.66827470375920       -0.83840941378372
H           -7.27054535214561       -2.01548283323100       -0.83091548305404
H           -6.02214300666883       -2.83085832534083        0.09640554409820
H           -8.12812078271207       -3.10345390802306        1.21839626638538
H           -7.07063481695513       -2.11142026286215        2.20890361623034
H           -9.31093464456591       -1.23327441539840        2.30223935645038
H           -8.25396356275854       -0.07285514732788        1.51511274403019
H          -10.38001217298743       -0.12745847199044        0.38110363472390
H           -9.11713341161215       -0.70569819462826       -0.69323981245081
H          -11.09127136123028       -2.04998071072784       -0.98745617948342
H           -9.80310607685044       -3.03757895179166       -0.31863481017643
H          -11.88895965650657       -3.62277889926890        0.73241296878453
H          -10.80963562900315       -2.91453376542992        1.92226279067938
H          -13.07136128521649       -2.13721601869040        2.27359267351976
H          -12.02420632440115       -0.78897659320863        1.84529029021438
H          -14.16778806742376       -0.55258334140218        0.76118099301338
H          -12.92630762068679       -0.79651005795234       -0.46182678060894
H          -14.78923044915603       -2.98336879026044        0.58085206381460
H          -15.01083491012339       -2.09804488184756       -0.92862358155692
H          -13.62226718140193       -3.16075342662489       -0.72994328083469
55
 energy: -64.786210064453 gnorm: 0.010878141791 xtb: 6.7.1 (edcfbbe)
C            1.75729452089613       -0.21356342785830       -0.21198492733970
C            0.88877030402960       -1.45257747073796        0.28283261343481
C           -0.06066322506954       -1.04745966839109        1.40672749553744
C           -1.10802220243852       -0.01600872688407        0.98324898863460
C           -2.05752426070441       -0.46907980369034       -0.12720694438632
C           -2.87940310185236       -1.72245598378428        0.18158644988798
C           -3.82192862944482       -1.60613327042191        1.38243278740512
C           -4.90005212904400       -0.52619635596710        1.26574350672568
C           -5.86283983830792       -0.68872765934777        0.08749937161529
C           -6.69656356421746       -1.97191755514510        0.09677344180368
C           -7.65042670966539       -2.12283483304906        1.28399928854850
C           -8.73238640486163       -1.04608275839885        1.39435877167253
C           -9.68783453126134       -0.95406828692696        0.20252422307716
C          -10.49096978131810       -2.22301900611718       -0.09046395113816
C          -11.40973392182099       -2.68936860038663        1.04056069003555
C          -12.49292102236900       -1.69122835529053        1.45567739690411
C          -13.46421604745111       -1.28541825650180        0.34558786229273
C          -14.26510106920261       -2.45600400052752       -0.21449303791139
O            1.53461709111463        0.17968072956279       -1.36333506220232
O            2.53348743785046        0.26350039467314        0.62618235885569
H            0.34918141715719       -1.87429486659433       -0.56826252536669
H            1.58339385417721       -2.20679205401726        0.66687098679576
H           -0.55583798552790       -1.93109895097319        1.83354121564454
H            0.54981503446194       -0.59622990762496        2.19419881331218
H           -1.68572541442511        0.28873551566628        1.86402155598179
H           -0.56987425426715        0.85934535735646        0.61473005926227
H           -2.73161530511019        0.35799980740763       -0.36715629848738
H           -1.45690124919766       -0.66310765948962       -1.01533935273940
H           -3.45838417106839       -1.98779972335135       -0.70711662278505
H           -2.19248949771573       -2.54739433735490        0.37529325371981
H           -4.30001128075332       -2.57654888971008        1.54285350616756
H           -3.22700297213059       -1.38956841592674        2.27106731033044
H           -5.47050939507475       -0.50662073496253        2.19805217995887
H           -4.41062909129470        0.44352301594523        1.16694807812262
H           -6.53204625489303        0.17461852222731        0.06898929480803
H           -5.28646594345647       -0.66850950169735       -0.83814155061327
H           -7.27067759352009       -2.01433064835366       -0.83143552855834
H           -6.02173051737630       -2.82915428448055        0.09609102191182
H           -8.12693491612506       -3.10342916661837        1.21711413221211
H           -7.06917544259077       -2.11106235818749        2.20741824107362
H           -9.30934396609855       -1.23472661486402        2.30241167969245
H           -8.25218219956909       -0.07385765578883        1.51571549422630
H          -10.37795106820651       -0.12710511795535        0.38278279264433
H           -9.11455876134040       -0.70457054672978       -0.69166249921550
H          -11.08822927875699       -2.04787869325541       -0.98756780207738
H           -9.79957793925397       -3.03551786370223       -0.31939993021463
H          -11.88545096515143       -3.62179167490601        0.73036103395527
H          -10.80509287964166       -2.91483308723832        1.92040720103731
H          -13.06638141479921       -2.13679992038636        2.27306035839915
H          -12.01798933695352       -0.78928841064039        1.84445563589678
H          -14.15905424959442       -0.54907203388672        0.75773873720133
H          -12.91693435859018       -0.80047298124097       -0.46355011653433
H          -14.78247259496955       -2.98071780396187        0.58548471590068
H          -15.00580960199922       -2.09913880033838       -0.92596834115867
H          -13.61676332120588       -3.16090661917537       -0.72602805395722
55
 energy: -64.786433552565 gnorm: 0.002892419754 xtb: 6.7.1 (edcfbbe)
C            1.74309982344682       -0.20477574327530       -0.20749831729360
C            0.88702291235614       -1.45144391628646        0.28442052998327
C           -0.06293357690868       -1.04905026831827        1.40770904457539
C           -1.10880723977781       -0.01618116876852        0.98310081264470
C           -2.05786625708995       -0.46917145345028       -0.12804319608256
C           -2.87978154435780       -1.72255857536682        0.18138580364881
C           -3.82204159435845       -1.60609928528088        1.38264484630389
C           -4.89980136731055       -0.52553539978136        1.26526503641527
C           -5.86258184689498       -0.68860293635804        0.08674274651077
C           -6.69609154222358       -1.97221147876550        0.09647681875505
C           -7.64958835951641       -2.12312492422015        1.28429970702709
C           -8.73133828656314       -1.04583094544333        1.39488674083111
C           -9.68640363886005       -0.95357109233256        0.20244628253792
C          -10.48915310835146       -2.22297826007150       -0.09081954331542
C          -11.40787925710699       -2.68950941679295        1.04044775752474
C          -12.49060470825268       -1.69065302829052        1.45581652720428
C          -13.46196165050508       -1.28535974598899        0.34553647828509
C          -14.26352660236034       -2.45549414217121       -0.21393048305233
O            1.53214793385010        0.17083066600730       -1.36912305267853
O            2.53075912083384        0.26163939883646        0.62740659288776
H            0.34835806818094       -1.87548292052754       -0.56580552467355
H            1.58529471608952       -2.20417794610824        0.66522797500626
H           -0.55810451899197       -1.93317533991562        1.83319013832747
H            0.54579896349345       -0.59959548877501        2.19766202364580
H           -1.68690500384675        0.28954588644595        1.86306842360270
H           -0.57140059609221        0.86043964836901        0.61649411940492
H           -2.73221171258273        0.35797163114383       -0.36799453280321
H           -1.45876011003554       -0.66189341144516       -1.01813312312017
H           -3.45919462418935       -1.98802805831361       -0.70733536052240
H           -2.19356725349869       -2.54915878172608        0.37311636755669
H           -4.30051655376166       -2.57645272545330        1.54428328131852
H           -3.22702851881263       -1.39072438140085        2.27204812627346
H           -5.47059638852927       -0.50481693847426        2.19767323113160
H           -4.41074279443024        0.44506313821127        1.16776976290561
H           -6.53227865782651        0.17476134408622        0.06739976129099
H           -5.28690322245717       -0.66669714952187       -0.83988848770151
H           -7.27065407815426       -2.01574809829263       -0.83184222987511
H           -6.02124816152170       -2.83000633837648        0.09399904248504
H           -8.12646894645796       -3.10404138487045        1.21848073840194
H           -7.06801867728782       -2.11306113742466        2.20805235505475
H           -9.30885260884837       -1.23368111570676        2.30321180768566
H           -8.25119433577076       -0.07329639048618        1.51816663223587
H          -10.37700942082677       -0.12630247889413        0.38177029164026
H           -9.11325905549477       -0.70214666357818       -0.69187525736615
H          -11.08649600488757       -2.04890634872632       -0.98855631113591
H           -9.79758895474770       -3.03547211815461       -0.32145401785983
H          -11.88378063658186       -3.62264871743854        0.73112070868362
H          -10.80302171584430       -2.91674195785833        1.92024538868567
H          -13.06473411411726       -2.13537868264474        2.27361964665033
H          -12.01554378549523       -0.78888432708769        1.84626299461485
H          -14.15666148548928       -0.54771259933483        0.75639836928979
H          -12.91499662481973       -0.80051560831725       -0.46427074439677
H          -14.78126866200209       -2.97990362822333        0.58672091164991
H          -15.00503034226293       -2.09901270156121       -0.92583703155572
H          -13.61591339214759       -3.16179649349953       -0.72593060924391
55
 energy: -64.786499778205 gnorm: 0.001698076070 xtb: 6.7.1 (edcfbbe)
C            1.72647810176578       -0.19909335279722       -0.20644165431023
C            0.88062132721026       -1.45475682577980        0.28697285525494
C           -0.06839090996060       -1.05365558202741        1.41032590205019
C           -1.11043229892142       -0.01780345687840        0.98347622715718
C           -2.05918069822559       -0.46949112206947       -0.12865705964932
C           -2.88154479232433       -1.72278408897646        0.17997136575236
C           -3.82277075378043       -1.60558313025204        1.38201389455379
C           -4.90004635580173       -0.52446370393991        1.26421305494620
C           -5.86277208524280       -0.68803978904784        0.08557843108850
C           -6.69530631178864       -1.97237590745507        0.09572670246241
C           -7.64769625727497       -2.12348950083233        1.28451359113792
C           -8.72895803214212       -1.04564880414100        1.39578626790644
C           -9.68325256066173       -0.95251414721797        0.20268840091119
C          -10.48492673363603       -2.22244988817046       -0.09163077099342
C          -11.40317159801406       -2.68969792952412        1.03984669176526
C          -12.48528919756307       -1.69029391350612        1.45572880445187
C          -13.45591997837721       -1.28462555775209        0.34497737928530
C          -14.25920988402541       -2.45464242725023       -0.21203347330242
O            1.51666815540364        0.16501960618360       -1.37248796883977
O            2.50909006730945        0.27310782964623        0.63037589143803
H            0.34304651896983       -1.88166609579992       -0.56211881426729
H            1.58474810709567       -2.20321346803158        0.66504865773480
H           -0.56621306251404       -1.93674547683578        1.83492289122825
H            0.53996121942231       -0.60655789171550        2.20200738697993
H           -1.68867120596734        0.29220506212561        1.86167567053644
H           -0.56940954995110        0.85644902269450        0.61669447360851
H           -2.73317002312456        0.35809446107736       -0.36851521474793
H           -1.46033670636256       -0.66127450479546       -1.01942521384510
H           -3.46176385013207       -1.98730613694512       -0.70867963250187
H           -2.19607527298851       -2.55071632485273        0.36991359532510
H           -4.30171251096196       -2.57563219836124        1.54487094375939
H           -3.22709167273253       -1.39058808893337        2.27131668135691
H           -5.47101767002302       -0.50246933720805        2.19664857950930
H           -4.41069833875773        0.44625033522376        1.16678702727510
H           -6.53313880188999        0.17500271682784        0.06586426176321
H           -5.28748066655889       -0.66505719986813       -0.84155128731710
H           -7.27066977362868       -2.01665175606250       -0.83227239952742
H           -6.02003092835670       -2.83010076878562        0.09189483393593
H           -8.12509116683689       -3.10439150461687        1.21924277314316
H           -7.06537061762483       -2.11462950739225        2.20804822938870
H           -9.30717876048639       -1.23353045541040        2.30386933815283
H           -8.24855380256807       -0.07322489446838        1.52082091076625
H          -10.37456799784888       -0.12553126089176        0.38169754854982
H           -9.10980290492351       -0.69932000750183       -0.69120458253038
H          -11.08246127070351       -2.04889313752960       -0.98956467606576
H           -9.79280903674314       -3.03440476631323       -0.32350940379758
H          -11.87966216212277       -3.62278749249614        0.73061969203669
H          -10.79792591148403       -2.91850388409104        1.91923657133323
H          -13.06002247343928       -2.13433253817538        2.27369250173610
H          -12.00965376739350       -0.78897211816244        1.84708455720914
H          -14.14952376817802       -0.54478345378738        0.75407343926346
H          -12.90833172032058       -0.80188298687498       -0.46585161016300
H          -14.77682643115683       -2.97768087993723        0.58992669947300
H          -15.00137313333468       -2.09861341811157       -0.92389617426210
H          -13.61294009032196       -3.16261835220540       -0.72408278810592
55
 energy: -64.786581323479 gnorm: 0.004829754198 xtb: 6.7.1 (edcfbbe)
C            1.68264226444730       -0.18902872549387       -0.20754947785652
C            0.86244512594183       -1.46395589454423        0.29435324671805
C           -0.08528846067174       -1.06655501787803        1.41773576957238
C           -1.11713663468484       -0.02266729616403        0.98584259195607
C           -2.06377076851370       -0.47000045408855       -0.12989760003613
C           -2.88773354315915       -1.72280972218619        0.17544317324592
C           -3.82587272931296       -1.60416827268714        1.37952437069575
C           -4.90127989370346       -0.52138982139691        1.26091906548823
C           -5.86356903437796       -0.68631371027915        0.08219095866596
C           -6.69279993108809       -1.97266345670957        0.09358064419017
C           -7.64162078348480       -2.12454192963648        1.28500616387808
C           -8.72128090892957       -1.04541192260540        1.39834250398046
C           -9.67312016655042       -0.94973650957585        0.20358746120511
C          -10.47168345970704       -2.22080923409021       -0.09384784909067
C          -11.38878886374387       -2.69027113562746        1.03754814899297
C          -12.46899254766770       -1.68962752268809        1.45515790781697
C          -13.43798982045857       -1.28275143031775        0.34372257045134
C          -14.24693737811433       -2.45161171606536       -0.20674847215709
O            1.47175756479887        0.14873334345568       -1.38158077216395
O            2.44313014400454        0.30969291836272        0.63456918319444
H            0.32704048556336       -1.90132610168953       -0.55039584306730
H            1.58174306064595       -2.19976858833043        0.66852416647460
H           -0.59057433068582       -1.94746919175620        1.83840794651195
H            0.52182945379971       -0.62548879946411        2.21409468666312
H           -1.69650362034124        0.29661982133627        1.85966686747397
H           -0.56616931643581        0.84537893074945        0.61930914640848
H           -2.73672918526728        0.35888895515851       -0.36893337833666
H           -1.46418201139543       -0.65898190817172       -1.02131215610157
H           -3.47028199510178       -1.98405608186752       -0.71293961380299
H           -2.20419375318773       -2.55379897610762        0.36103949999356
H           -4.30608859864925       -2.57331893152301        1.54535407198192
H           -3.22808834242052       -1.38946906390586        2.26786833004137
H           -5.47264645118032       -0.49650818723543        2.19331603131780
H           -4.41083663363381        0.44911280499552        1.16291822901511
H           -6.53601953008045        0.17543550380773        0.06204872589848
H           -5.28896298641286       -0.66105939385310       -0.84575307874131
H           -7.27051072945678       -2.01878126967589       -0.83320965729050
H           -6.01586764691872       -2.82950073683489        0.08699714502238
H           -8.12025289157630       -3.10524471632993        1.22098504765715
H           -7.05694986490440       -2.11778737824939        2.20746425443453
H           -9.30130931560974       -1.23405864818110        2.30545170856640
H           -8.24004324884253       -0.07353667385601        1.52736010489978
H          -10.36630767003398       -0.12391440173022        0.38241277534310
H           -9.09854458950974       -0.69247230124851       -0.68883709027876
H          -11.06949542254511       -2.04804834483132       -0.99210519411509
H           -9.77790905145238       -3.03115611356586       -0.32792147862748
H          -11.86672811250476       -3.62278371014423        0.72774310131064
H          -10.78272765700259       -2.92245652197417        1.91590256645785