      -----------------------------------------------------------      
     |                   =====================                   |     
     |                           x T B                           |     
     |                   =====================                   |     
     |                         S. Grimme                         |     
     |          Mulliken Center for Theoretical Chemistry        |     
     |                    University of Bonn                     |     
      -----------------------------------------------------------      

   * xtb version 6.7.1 (edcfbbe) compiled by 'conda@3ef47c1a292c' on 2024-11-25

   xtb is free software: you can redistribute it and/or modify it under
   the terms of the GNU Lesser General Public License as published by
   the Free Software Foundation, either version 3 of the License, or
   (at your option) any later version.
   
   xtb is distributed in the hope that it will be useful,
   but WITHOUT ANY WARRANTY; without even the implied warranty of
   MERCHANTABILITY or FITNESS FOR A PARTICULAR PURPOSE.  See the
   GNU Lesser General Public License for more details.
   
   Cite this work as:
   * C. Bannwarth, E. Caldeweyher, S. Ehlert, A. Hansen, P. Pracht,
     J. Seibert, S. Spicher, S. Grimme, WIREs Comput. Mol. Sci., 2020, 11,
     e01493. DOI: 10.1002/wcms.1493
   
   for GFN2-xTB:
   * C. Bannwarth, S. Ehlert and S. Grimme., J. Chem. Theory Comput., 2019,
     15, 1652-1671. DOI: 10.1021/acs.jctc.8b01176
   for GFN1-xTB:
   * S. Grimme, C. Bannwarth, P. Shushkov, J. Chem. Theory Comput., 2017,
     13, 1989-2009. DOI: 10.1021/acs.jctc.7b00118
   for GFN0-xTB:
   * P. Pracht, E. Caldeweyher, S. Ehlert, S. Grimme, ChemRxiv, 2019, preprint.
     DOI: 10.26434/chemrxiv.8326202.v1
   for GFN-FF:
   * S. Spicher and S. Grimme, Angew. Chem. Int. Ed., 2020, 59, 15665-15673.
     DOI: 10.1002/anie.202004239
   
   for ALPB and GBSA implicit solvation:
   * S. Ehlert, M. Stahn, S. Spicher, S. Grimme, J. Chem. Theory Comput.,
     2021, 17, 4250-4261. DOI: 10.1021/acs.jctc.1c00471
   
   for ddCOSMO and CPCM-X implicit solvation:
   * M. Stahn, S. Ehlert, S. Grimme, J. Phys. Chem. A,
     2023, XX, XXXX-XXXX. DOI: 10.1021/acs.jpca.3c04382
   
   for DFT-D4:
   * E. Caldeweyher, C. Bannwarth and S. Grimme, J. Chem. Phys., 2017,
     147, 034112. DOI: 10.1063/1.4993215
   * E. Caldeweyher, S. Ehlert, A. Hansen, H. Neugebauer, S. Spicher,
     C. Bannwarth and S. Grimme, J. Chem. Phys., 2019, 150, 154122.
     DOI: 10.1063/1.5090222
   * E. Caldeweyher, J.-M. Mewes, S. Ehlert and S. Grimme, Phys. Chem. Chem. Phys.
     2020, 22, 8499-8512. DOI: 10.1039/D0CP00502A
   
   for sTDA-xTB:
   * S. Grimme and C. Bannwarth, J. Chem. Phys., 2016, 145, 054103.
     DOI: 10.1063/1.4959605
   
   in the mass-spec context:
   * V. Asgeirsson, C. Bauer and S. Grimme, Chem. Sci., 2017, 8, 4879.
     DOI: 10.1039/c7sc00601b
   * J. Koopman and S. Grimme, ACS Omega 2019, 4, 12, 15120-15133.
     DOI: 10.1021/acsomega.9b02011
   
   for metadynamics refer to:
   * S. Grimme, J. Chem. Theory Comput., 2019, 155, 2847-2862
     DOI: 10.1021/acs.jctc.9b00143
   
   for SPH calculations refer to:
   * S. Spicher and S. Grimme, J. Chem. Theory Comput., 2021, 17, 1701-1714
     DOI: 10.1021/acs.jctc.0c01306
   
   for ONIOM refer to:
   * C. Plett, A. Katbashev, S. Ehlert, S. Grimme, M. Bursch,
     Phys. Chem. Chem. Phys., 2023, 25, 17860-17868. DOI: 10.1039/D3CP02178E
   
   for DIPRO refer to:
   * J. Kohn, N. Gildemeister, S. Grimme, D. Fazzi, A. Hansen,
     J. Chem. Phys., 2023, just accepted.
   
   for PTB refer to:
   * S. Grimme, M. Mueller, A. Hansen, J. Chem. Phys., 2023, 158, 124111.
     DOI: 10.1063/5.0137838
   
   with help from (in alphabetical order)
   P. Atkinson, C. Bannwarth, F. Bohle, G. Brandenburg, E. Caldeweyher
   M. Checinski, S. Dohm, S. Ehlert, S. Ehrlich, I. Gerasimov, C. Hölzer
   A. Katbashev, J. Kohn, J. Koopman, C. Lavigne, S. Lehtola, F. März, M. Müller,
   F. Musil, H. Neugebauer, J. Pisarek, C. Plett, P. Pracht, F. Pultar,
   J. Seibert, P. Shushkov, S. Spicher, M. Stahn, M. Steiner, T. Strunk,
   J. Stückrath, T. Rose, and J. Unsleber
   
 * started run on 2024/12/20 at 01:53:00.517     
   ID    Z sym.   atoms
    1    9 F      1, 12-15
    2    6 C      2-5, 11
    3    8 O      6, 8-10
    4   16 S      7
    5    1 H      16-21

           -------------------------------------------------
          |                Calculation Setup                |
           -------------------------------------------------

          program call               : xtb A079.xyz --opt --namespace A079 --charge -1
          calculation namespace      : A079
          coordinate file            : A079.xyz
          omp threads                :                     8


           -------------------------------------------------
          |                 G F N 2 - x T B                 |
           -------------------------------------------------

        Reference                      10.1021/acs.jctc.8b01176
      * Hamiltonian:
        H0-scaling (s, p, d)           1.850000    2.230000    2.230000
        zeta-weighting                 0.500000
      * Dispersion:
        s8                             2.700000
        a1                             0.520000
        a2                             5.000000
        s9                             5.000000
      * Repulsion:
        kExp                           1.500000    1.000000
        rExp                           1.000000
      * Coulomb:
        alpha                          2.000000
        third order                    shell-resolved
        anisotropic                    true
        a3                             3.000000
        a5                             4.000000
        cn-shift                       1.200000
        cn-exp                         4.000000
        max-rad                        5.000000


          ...................................................
          :                      SETUP                      :
          :.................................................:
          :  # basis functions                  72          :
          :  # atomic orbitals                  71          :
          :  # shells                           37          :
          :  # electrons                        92          :
          :  max. iterations                   250          :
          :  Hamiltonian                  GFN2-xTB          :
          :  restarted?                      false          :
          :  GBSA solvation                  false          :
          :  PC potential                    false          :
          :  electronic temp.          300.0000000     K    :
          :  accuracy                    1.0000000          :
          :  -> integral cutoff          0.2500000E+02      :
          :  -> integral neglect         0.1000000E-07      :
          :  -> SCF convergence          0.1000000E-05 Eh   :
          :  -> wf. convergence          0.1000000E-03 e    :
          :  Broyden damping             0.4000000          :
          :  net charge                         -1          :
          :  unpaired electrons                  0          :
          ...................................................

 iter      E             dE          RMSdq      gap      omega  full diag
   1    -57.3671598 -0.573672E+02  0.662E+00    8.82       0.0  T
   2    -57.4887958 -0.121636E+00  0.371E+00    8.92       1.0  T
   3    -57.4954113 -0.661551E-02  0.147E+00    7.70       1.0  T
   4    -57.5012668 -0.585549E-02  0.404E-01    6.65       1.0  T
   5    -57.5017154 -0.448620E-03  0.207E-01    6.73       1.0  T
   6    -57.5018712 -0.155761E-03  0.101E-01    6.80       1.0  T
   7    -57.5019131 -0.418833E-04  0.379E-02    6.82       1.0  T
   8    -57.5019208 -0.778565E-05  0.127E-02    6.82       1.7  T
   9    -57.5019214 -0.512975E-06  0.469E-03    6.82       4.7  T
  10    -57.5019214 -0.444590E-07  0.125E-03    6.82      17.5  T
  11    -57.5019214 -0.215619E-08  0.629E-04    6.82      34.7  T
  12    -57.5019214 -0.101726E-08  0.186E-04    6.82     117.0  T

   *** convergence criteria satisfied after 12 iterations ***

         #    Occupation            Energy/Eh            Energy/eV
      -------------------------------------------------------------
         1        2.0000           -0.8110740             -22.0704
       ...           ...                  ...                  ...
        40        2.0000           -0.2974627              -8.0944
        41        2.0000           -0.2687248              -7.3124
        42        2.0000           -0.2622384              -7.1359
        43        2.0000           -0.2598617              -7.0712
        44        2.0000           -0.2503269              -6.8117
        45        2.0000           -0.2485237              -6.7627
        46        2.0000           -0.2374751              -6.4620 (HOMO)
        47                          0.0129818               0.3533 (LUMO)
        48                          0.0399067               1.0859
        49                          0.0647126               1.7609
        50                          0.0732666               1.9937
        51                          0.1083798               2.9492
       ...                                ...                  ...
        71                          1.3574741              36.9388
      -------------------------------------------------------------
                  HL-Gap            0.2504569 Eh            6.8153 eV
             Fermi-level           -0.1122466 Eh           -3.0544 eV

 SCC (total)                   0 d,  0 h,  0 min,  0.015 sec
 SCC setup                      ...        0 min,  0.000 sec (  0.763%)
 Dispersion                     ...        0 min,  0.000 sec (  0.913%)
 classical contributions        ...        0 min,  0.000 sec (  0.296%)
 integral evaluation            ...        0 min,  0.002 sec ( 14.311%)
 iterations                     ...        0 min,  0.010 sec ( 68.561%)
 molecular gradient             ...        0 min,  0.002 sec ( 14.579%)
 printout                       ...        0 min,  0.000 sec (  0.477%)

         :::::::::::::::::::::::::::::::::::::::::::::::::::::
         ::                     SUMMARY                     ::
         :::::::::::::::::::::::::::::::::::::::::::::::::::::
         :: total energy             -57.239413941704 Eh    ::
         :: gradient norm              0.063833279118 Eh/a0 ::
         :: HOMO-LUMO gap              6.815280039935 eV    ::
         ::.................................................::
         :: SCC energy               -57.501755789278 Eh    ::
         :: -> isotropic ES            0.275857460703 Eh    ::
         :: -> anisotropic ES         -0.018050133680 Eh    ::
         :: -> anisotropic XC         -0.033010631429 Eh    ::
         :: -> dispersion             -0.020573887038 Eh    ::
         :: repulsion energy           0.262341847574 Eh    ::
         :: add. restraining           0.000000000000 Eh    ::
         :: total charge              -1.000000000000 e     ::
         :::::::::::::::::::::::::::::::::::::::::::::::::::::

      ----------------------------------------------------------- 
     |                   =====================                   |
     |                        A N C O P T                        |
     |                   =====================                   |
     |               Approximate Normal Coordinate               |
     |                Rational Function Optimizer                |
      ----------------------------------------------------------- 
      ----------------------------------------------------------- 
     |                   =====================                   |
     |                        A N C O P T                        |
     |                   =====================                   |
     |               Approximate Normal Coordinate               |
     |                Rational Function Optimizer                |
      ----------------------------------------------------------- 

          ...................................................
          :                      SETUP                      :
          :.................................................:
          :   optimization level            normal          :
          :   max. optcycles                   200          :
          :   ANC micro-cycles                  20          :
          :   degrees of freedom                57          :
          :.................................................:
          :   RF solver                   davidson          :
          :   write xtbopt.log                true          :
          :   linear?                        false          :
          :   energy convergence         0.5000000E-05 Eh   :
          :   grad. convergence          0.1000000E-02 Eh/α :
          :   maxmium RF displ.          1.0000000          :
          :   Hlow (freq-cutoff)         0.1000000E-01      :
          :   Hmax (freq-cutoff)         5.0000000          :
          :   S6 in model hess.         20.0000000          :
          ...................................................

generating ANC from exact Hessian ...
Using Lindh-Hessian (1995)
 Shifting diagonal of input Hessian by    8.6571576658929176E-003
 Lowest  eigenvalues of input Hessian
    0.000000    0.000000    0.000000    0.000000    0.000000    0.000000
    0.010000    0.010691    0.011381    0.013545    0.016756    0.020626
    0.023916    0.028005    0.031425    0.034453    0.048045    0.058653
 Highest eigenvalues
    1.529178    1.648597    1.718822    2.186802    3.495741    3.526245


........................................................................
.............................. CYCLE    1 ..............................
........................................................................

 iter      E             dE          RMSdq      gap      omega  full diag
   1    -57.5019214 -0.575019E+02  0.617E-05    6.82       0.0  T
   2    -57.5019214 -0.564171E-11  0.403E-05    6.82     541.0  T
   3    -57.5019214 -0.140687E-11  0.159E-05    6.82    1371.2  T
     SCC iter.                  ...        0 min,  0.003 sec
     gradient                   ...        0 min,  0.003 sec
 * total energy  :   -57.2394139 Eh     change       -0.7013057E-10 Eh
   gradient norm :     0.0638316 Eh/α   predicted     0.0000000E+00 (-100.00%)
   displ. norm   :     0.3263066 α      lambda       -0.9515017E-02
   maximum displ.:     0.1583260 α      in ANC's #10, #8, #16, ...

........................................................................
.............................. CYCLE    2 ..............................
........................................................................

 iter      E             dE          RMSdq      gap      omega  full diag
   1    -57.5137612 -0.575138E+02  0.231E-01    7.18       0.0  T
   2    -57.5137970 -0.357839E-04  0.131E-01    7.22       1.0  T
   3    -57.5137998 -0.275697E-05  0.275E-02    7.25       1.0  T
   4    -57.5138029 -0.313269E-05  0.998E-03    7.26       2.2  T
   5    -57.5138031 -0.218112E-06  0.321E-03    7.25       6.8  T
   6    -57.5138031 -0.288884E-07  0.170E-03    7.25      12.9  T
   7    -57.5138031 -0.676350E-08  0.781E-04    7.25      28.0  T
   8    -57.5138031 -0.237227E-08  0.290E-04    7.25      75.2  T
     SCC iter.                  ...        0 min,  0.006 sec
     gradient                   ...        0 min,  0.002 sec
 * total energy  :   -57.2464826 Eh     change       -0.7068687E-02 Eh
   gradient norm :     0.0347822 Eh/α   predicted    -0.5267614E-02 ( -25.48%)
   displ. norm   :     0.4614592 α      lambda       -0.5926214E-02
   maximum displ.:     0.2256277 α      in ANC's #8, #10, #4, ...

........................................................................
.............................. CYCLE    3 ..............................
........................................................................

 iter      E             dE          RMSdq      gap      omega  full diag
   1    -57.5209069 -0.575209E+02  0.223E-01    7.62       0.0  T
   2    -57.5209738 -0.669475E-04  0.121E-01    7.68       1.0  T
   3    -57.5209806 -0.674533E-05  0.371E-02    7.72       1.0  T
   4    -57.5209825 -0.195737E-05  0.135E-02    7.73       1.6  T
   5    -57.5209828 -0.331963E-06  0.431E-03    7.73       5.1  T
   6    -57.5209829 -0.766203E-07  0.229E-03    7.73       9.5  T
   7    -57.5209829 -0.188079E-07  0.986E-04    7.73      22.1  T
   8    -57.5209829 -0.479739E-08  0.432E-04    7.73      50.5  T
     SCC iter.                  ...        0 min,  0.007 sec
     gradient                   ...        0 min,  0.002 sec
 * total energy  :   -57.2504394 Eh     change       -0.3956732E-02 Eh
   gradient norm :     0.0171972 Eh/α   predicted    -0.3594085E-02 (  -9.17%)
   displ. norm   :     0.4205354 α      lambda       -0.2351717E-02
   maximum displ.:     0.2753343 α      in ANC's #4, #2, #8, ...

........................................................................
.............................. CYCLE    4 ..............................
........................................................................

 iter      E             dE          RMSdq      gap      omega  full diag
   1    -57.5220062 -0.575220E+02  0.179E-01    7.91       0.0  T
   2    -57.5220566 -0.504333E-04  0.924E-02    7.96       1.0  T
   3    -57.5220615 -0.491005E-05  0.317E-02    7.99       1.0  T
   4    -57.5220624 -0.855343E-06  0.125E-02    8.00       1.7  T
   5    -57.5220625 -0.172891E-06  0.354E-03    8.00       6.2  T
   6    -57.5220626 -0.495138E-07  0.177E-03    8.00      12.3  T
   7    -57.5220626 -0.119563E-07  0.864E-04    8.00      25.3  T
   8    -57.5220626 -0.373679E-08  0.279E-04    8.00      78.2  T
     SCC iter.                  ...        0 min,  0.006 sec
     gradient                   ...        0 min,  0.002 sec
 * total energy  :   -57.2521549 Eh     change       -0.1715538E-02 Eh
   gradient norm :     0.0196942 Eh/α   predicted    -0.1383820E-02 ( -19.34%)
   displ. norm   :     0.4019485 α      lambda       -0.1725633E-02
   maximum displ.:     0.3053589 α      in ANC's #4, #2, #8, ...

........................................................................
.............................. CYCLE    5 ..............................
........................................................................

 iter      E             dE          RMSdq      gap      omega  full diag
   1    -57.5222811 -0.575223E+02  0.179E-01    8.04       0.0  T
   2    -57.5223343 -0.532055E-04  0.941E-02    8.08       1.0  T
   3    -57.5223382 -0.385254E-05  0.321E-02    8.10       1.0  T
   4    -57.5223393 -0.112186E-05  0.121E-02    8.11       1.8  T
   5    -57.5223394 -0.146584E-06  0.362E-03    8.11       6.0  T
   6    -57.5223395 -0.432715E-07  0.124E-03    8.11      17.5  T
   7    -57.5223395 -0.456415E-08  0.758E-04    8.11      28.8  T
   8    -57.5223395 -0.252929E-08  0.281E-04    8.11      77.7  T
     SCC iter.                  ...        0 min,  0.006 sec
     gradient                   ...        0 min,  0.002 sec
 * total energy  :   -57.2532419 Eh     change       -0.1086986E-02 Eh
   gradient norm :     0.0207733 Eh/α   predicted    -0.1002245E-02 (  -7.80%)
   displ. norm   :     0.1890320 α      lambda       -0.1022238E-02
   maximum displ.:     0.1263312 α      in ANC's #4, #3, #1, ...

........................................................................
.............................. CYCLE    6 ..............................
........................................................................

 iter      E             dE          RMSdq      gap      omega  full diag
   1    -57.5255964 -0.575256E+02  0.953E-02    8.07       0.0  T
   2    -57.5256043 -0.781471E-05  0.503E-02    8.08       1.0  T
   3    -57.5256049 -0.683074E-06  0.139E-02    8.08       1.6  T
   4    -57.5256053 -0.347319E-06  0.569E-03    8.08       3.8  T
   5    -57.5256053 -0.549402E-07  0.157E-03    8.08      13.9  T
   6    -57.5256053 -0.905121E-08  0.679E-04    8.08      32.1  T
   7    -57.5256053 -0.118038E-08  0.388E-04    8.08      56.2  T
     SCC iter.                  ...        0 min,  0.005 sec
     gradient                   ...        0 min,  0.002 sec
 * total energy  :   -57.2539448 Eh     change       -0.7029279E-03 Eh
   gradient norm :     0.0130562 Eh/α   predicted    -0.5293855E-03 ( -24.69%)
   displ. norm   :     0.2205650 α      lambda       -0.6784936E-03
   maximum displ.:     0.1547460 α      in ANC's #4, #7, #1, ...

........................................................................
.............................. CYCLE    7 ..............................
........................................................................

 iter      E             dE          RMSdq      gap      omega  full diag
   1    -57.5260263 -0.575260E+02  0.877E-02    8.00       0.0  T
   2    -57.5260340 -0.771602E-05  0.466E-02    8.01       1.0  T
   3    -57.5260346 -0.643416E-06  0.151E-02    8.02       1.4  T
   4    -57.5260348 -0.159107E-06  0.419E-03    8.02       5.2  T
   5    -57.5260348 -0.214981E-07  0.122E-03    8.02      17.9  T
   6    -57.5260348 -0.267935E-08  0.486E-04    8.02      44.9  T
   7    -57.5260348 -0.480682E-09  0.177E-04    8.02     123.5  T
     SCC iter.                  ...        0 min,  0.005 sec
     gradient                   ...        0 min,  0.002 sec
 * total energy  :   -57.2544298 Eh     change       -0.4850325E-03 Eh
   gradient norm :     0.0093852 Eh/α   predicted    -0.3557806E-03 ( -26.65%)
   displ. norm   :     0.2083915 α      lambda       -0.4097449E-03
   maximum displ.:     0.1388500 α      in ANC's #4, #7, #6, ...

........................................................................
.............................. CYCLE    8 ..............................
........................................................................

 iter      E             dE          RMSdq      gap      omega  full diag
   1    -57.5261664 -0.575262E+02  0.695E-02    7.96       0.0  T
   2    -57.5261721 -0.566555E-05  0.393E-02    7.96       1.0  T
   3    -57.5261725 -0.424080E-06  0.137E-02    7.96       1.6  T
   4    -57.5261726 -0.148784E-06  0.268E-03    7.97       8.1  T
   5    -57.5261727 -0.219562E-07  0.118E-03    7.97      18.6  T
   6    -57.5261727 -0.305484E-08  0.368E-04    7.97      59.3  T
   7    -57.5261727 -0.369290E-09  0.215E-04    7.97     101.6  T
     SCC iter.                  ...        0 min,  0.005 sec
     gradient                   ...        0 min,  0.002 sec
 * total energy  :   -57.2546999 Eh     change       -0.2700415E-03 Eh
   gradient norm :     0.0068891 Eh/α   predicted    -0.2137725E-03 ( -20.84%)
   displ. norm   :     0.1511513 α      lambda       -0.1480453E-03
   maximum displ.:     0.1179575 α      in ANC's #4, #6, #7, ...

........................................................................
.............................. CYCLE    9 ..............................
........................................................................

 iter      E             dE          RMSdq      gap      omega  full diag
   1    -57.5260058 -0.575260E+02  0.503E-02    7.96       0.0  T
   2    -57.5260090 -0.320135E-05  0.294E-02    7.97       1.0  T
   3    -57.5260093 -0.217041E-06  0.882E-03    7.97       2.5  T
   4    -57.5260094 -0.923139E-07  0.239E-03    7.97       9.1  T
   5    -57.5260094 -0.975665E-08  0.851E-04    7.97      25.7  T
   6    -57.5260094 -0.175449E-08  0.191E-04    7.97     114.5  T
     SCC iter.                  ...        0 min,  0.004 sec
     gradient                   ...        0 min,  0.002 sec
 * total energy  :   -57.2548001 Eh     change       -0.1002569E-03 Eh
   gradient norm :     0.0052770 Eh/α   predicted    -0.7571465E-04 ( -24.48%)
   displ. norm   :     0.1183696 α      lambda       -0.1034821E-03
   maximum displ.:     0.0721205 α      in ANC's #4, #2, #6, ...

........................................................................
.............................. CYCLE   10 ..............................
........................................................................

 iter      E             dE          RMSdq      gap      omega  full diag
   1    -57.5272515 -0.575273E+02  0.408E-02    7.98       0.0  T
   2    -57.5272545 -0.297290E-05  0.262E-02    7.97       1.0  T
   3    -57.5272547 -0.236348E-06  0.891E-03    7.97       2.4  T
   4    -57.5272547 -0.421217E-07  0.254E-03    7.96       8.6  T
   5    -57.5272547 -0.750523E-08  0.984E-04    7.96      22.2  T
   6    -57.5272547 -0.277711E-08  0.217E-04    7.97     100.8  T
     SCC iter.                  ...        0 min,  0.004 sec
     gradient                   ...        0 min,  0.002 sec
 * total energy  :   -57.2548590 Eh     change       -0.5883289E-04 Eh
   gradient norm :     0.0035833 Eh/α   predicted    -0.5246728E-04 ( -10.82%)
   displ. norm   :     0.1052193 α      lambda       -0.6220516E-04
   maximum displ.:     0.0856675 α      in ANC's #4, #6, #8, ...

........................................................................
.............................. CYCLE   11 ..............................
........................................................................

 iter      E             dE          RMSdq      gap      omega  full diag
   1    -57.5267266 -0.575267E+02  0.353E-02    7.98       0.0  T
   2    -57.5267279 -0.129757E-05  0.212E-02    7.99       1.0  T
   3    -57.5267281 -0.183195E-06  0.496E-03    7.99       4.4  T
   4    -57.5267281 -0.278400E-07  0.173E-03    7.99      12.6  T
   5    -57.5267281 -0.327413E-08  0.508E-04    7.99      42.9  T
   6    -57.5267281 -0.734929E-09  0.196E-04    7.99     111.5  T
     SCC iter.                  ...        0 min,  0.004 sec
     gradient                   ...        0 min,  0.002 sec
 * total energy  :   -57.2548961 Eh     change       -0.3708700E-04 Eh
   gradient norm :     0.0034098 Eh/α   predicted    -0.3146336E-04 ( -15.16%)
   displ. norm   :     0.0593220 α      lambda       -0.3379269E-04
   maximum displ.:     0.0339368 α      in ANC's #2, #4, #7, ...

........................................................................
.............................. CYCLE   12 ..............................
........................................................................

 iter      E             dE          RMSdq      gap      omega  full diag
   1    -57.5270197 -0.575270E+02  0.195E-02    8.00       0.0  T
   2    -57.5270201 -0.376756E-06  0.113E-02    8.00       1.9  T
   3    -57.5270201 -0.771724E-07  0.291E-03    8.00       7.5  T
   4    -57.5270202 -0.214549E-07  0.127E-03    8.00      17.2  T
   5    -57.5270202 -0.210230E-08  0.239E-04    8.00      91.4  T
   6    -57.5270202 -0.213696E-09  0.906E-05    8.00     241.0  T
     SCC iter.                  ...        0 min,  0.005 sec
     gradient                   ...        0 min,  0.002 sec
 * total energy  :   -57.2549222 Eh     change       -0.2608935E-04 Eh
   gradient norm :     0.0031941 Eh/α   predicted    -0.1695678E-04 ( -35.00%)
   displ. norm   :     0.1027549 α      lambda       -0.4488923E-04
   maximum displ.:     0.0496715 α      in ANC's #2, #4, #3, ...

........................................................................
.............................. CYCLE   13 ..............................
........................................................................

 iter      E             dE          RMSdq      gap      omega  full diag
   1    -57.5269761 -0.575270E+02  0.360E-02    8.00       0.0  T
   2    -57.5269773 -0.114986E-05  0.197E-02    8.00       1.1  T
   3    -57.5269775 -0.236914E-06  0.576E-03    8.00       3.8  T
   4    -57.5269776 -0.547915E-07  0.224E-03    8.00       9.7  T
   5    -57.5269776 -0.810520E-08  0.359E-04    8.00      60.8  T
   6    -57.5269776 -0.393307E-09  0.129E-04    8.00     169.7  T
     SCC iter.                  ...        0 min,  0.004 sec
     gradient                   ...        0 min,  0.002 sec
 * total energy  :   -57.2549517 Eh     change       -0.2950965E-04 Eh
   gradient norm :     0.0034577 Eh/α   predicted    -0.2268305E-04 ( -23.13%)
   displ. norm   :     0.0691297 α      lambda       -0.2390448E-04
   maximum displ.:     0.0306566 α      in ANC's #1, #2, #4, ...

........................................................................
.............................. CYCLE   14 ..............................
........................................................................

 iter      E             dE          RMSdq      gap      omega  full diag
   1    -57.5271143 -0.575271E+02  0.284E-02    8.00       0.0  T
   2    -57.5271151 -0.732851E-06  0.149E-02    8.00       1.5  T
   3    -57.5271152 -0.117586E-06  0.482E-03    8.00       4.5  T
   4    -57.5271152 -0.194980E-07  0.172E-03    8.00      12.7  T
   5    -57.5271152 -0.341308E-08  0.387E-04    8.00      56.4  T
   6    -57.5271152 -0.515371E-09  0.849E-05    8.00     257.1  T
     SCC iter.                  ...        0 min,  0.004 sec
     gradient                   ...        0 min,  0.002 sec
 * total energy  :   -57.2549688 Eh     change       -0.1714782E-04 Eh
   gradient norm :     0.0030005 Eh/α   predicted    -0.1201043E-04 ( -29.96%)
   displ. norm   :     0.0913390 α      lambda       -0.2470683E-04
   maximum displ.:     0.0423015 α      in ANC's #1, #4, #6, ...

........................................................................
.............................. CYCLE   15 ..............................
........................................................................

 iter      E             dE          RMSdq      gap      omega  full diag
   1    -57.5270515 -0.575271E+02  0.360E-02    7.99       0.0  T
   2    -57.5270527 -0.119062E-05  0.190E-02    7.99       1.1  T
   3    -57.5270529 -0.173065E-06  0.669E-03    7.99       3.3  T
   4    -57.5270529 -0.291948E-07  0.197E-03    7.99      11.1  T
   5    -57.5270529 -0.278084E-08  0.366E-04    7.99      59.7  T
   6    -57.5270529 -0.788305E-09  0.106E-04    7.99     206.7  T
     SCC iter.                  ...        0 min,  0.005 sec
     gradient                   ...        0 min,  0.002 sec
 * total energy  :   -57.2549855 Eh     change       -0.1668901E-04 Eh
   gradient norm :     0.0021874 Eh/α   predicted    -0.1247945E-04 ( -25.22%)
   displ. norm   :     0.0590677 α      lambda       -0.1650145E-04
   maximum displ.:     0.0351960 α      in ANC's #1, #9, #4, ...

........................................................................
.............................. CYCLE   16 ..............................
........................................................................

 iter      E             dE          RMSdq      gap      omega  full diag
   1    -57.5273165 -0.575273E+02  0.241E-02    7.99       0.0  T
   2    -57.5273172 -0.635040E-06  0.126E-02    8.00       1.7  T
   3    -57.5273172 -0.773719E-07  0.446E-03    8.00       4.9  T
   4    -57.5273173 -0.133205E-07  0.140E-03    8.00      15.6  T
   5    -57.5273173 -0.168334E-08  0.381E-04    8.00      57.3  T
   6    -57.5273173 -0.778051E-09  0.112E-04    8.00     194.3  T
     SCC iter.                  ...        0 min,  0.026 sec
     gradient                   ...        0 min,  0.014 sec
 * total energy  :   -57.2549965 Eh     change       -0.1097631E-04 Eh
   gradient norm :     0.0015746 Eh/α   predicted    -0.8280873E-05 ( -24.56%)
   displ. norm   :     0.0799490 α      lambda       -0.9335641E-05
   maximum displ.:     0.0458863 α      in ANC's #1, #4, #9, ...

........................................................................
.............................. CYCLE   17 ..............................
........................................................................

 iter      E             dE          RMSdq      gap      omega  full diag
   1    -57.5272206 -0.575272E+02  0.277E-02    8.00       0.0  T
   2    -57.5272211 -0.554566E-06  0.151E-02    8.00       1.4  T
   3    -57.5272213 -0.130599E-06  0.445E-03    8.00       4.9  T
   4    -57.5272213 -0.167523E-07  0.143E-03    8.00      15.3  T
   5    -57.5272213 -0.224280E-08  0.313E-04    8.00      69.7  T
   6    -57.5272213 -0.359378E-09  0.130E-04    8.00     167.6  T
     SCC iter.                  ...        0 min,  0.013 sec
     gradient                   ...        0 min,  0.013 sec
 * total energy  :   -57.2550043 Eh     change       -0.7850332E-05 Eh
   gradient norm :     0.0019376 Eh/α   predicted    -0.4683905E-05 ( -40.33%)
   displ. norm   :     0.0316822 α      lambda       -0.5246838E-05
   maximum displ.:     0.0221879 α      in ANC's #1, #8, #4, ...

........................................................................
.............................. CYCLE   18 ..............................
........................................................................

 iter      E             dE          RMSdq      gap      omega  full diag
   1    -57.5276599 -0.575277E+02  0.977E-03    8.02       0.0  T
   2    -57.5276600 -0.144144E-06  0.570E-03    8.02       3.8  T
   3    -57.5276601 -0.105848E-07  0.215E-03    8.02      10.1  T
   4    -57.5276601 -0.508650E-08  0.509E-04    8.02      42.9  T
   5    -57.5276601 -0.700510E-09  0.201E-04    8.02     108.7  T
     SCC iter.                  ...        0 min,  0.005 sec
     gradient                   ...        0 min,  0.002 sec
 * total energy  :   -57.2550094 Eh     change       -0.5034962E-05 Eh
   gradient norm :     0.0017746 Eh/α   predicted    -0.2625313E-05 ( -47.86%)
   displ. norm   :     0.0603066 α      lambda       -0.7310980E-05
   maximum displ.:     0.0423139 α      in ANC's #1, #5, #3, ...

........................................................................
.............................. CYCLE   19 ..............................
........................................................................

 iter      E             dE          RMSdq      gap      omega  full diag
   1    -57.5273451 -0.575273E+02  0.165E-02    8.02       0.0  T
   2    -57.5273454 -0.311851E-06  0.101E-02    8.02       2.2  T
   3    -57.5273455 -0.745747E-07  0.274E-03    8.02       8.0  T
   4    -57.5273455 -0.104105E-07  0.101E-03    8.02      21.5  T
   5    -57.5273455 -0.100455E-08  0.264E-04    8.02      82.7  T
   6    -57.5273455 -0.592692E-09  0.800E-05    8.02     272.6  T
     SCC iter.                  ...        0 min,  0.005 sec
     gradient                   ...        0 min,  0.002 sec
 * total energy  :   -57.2550163 Eh     change       -0.6924748E-05 Eh
   gradient norm :     0.0014235 Eh/α   predicted    -0.3663567E-05 ( -47.09%)
   displ. norm   :     0.0617924 α      lambda       -0.5846167E-05
   maximum displ.:     0.0460214 α      in ANC's #1, #5, #8, ...

........................................................................
.............................. CYCLE   20 ..............................
........................................................................

 iter      E             dE          RMSdq      gap      omega  full diag
   1    -57.5272984 -0.575273E+02  0.163E-02    8.03       0.0  T
   2    -57.5272986 -0.199086E-06  0.942E-03    8.03       2.3  T
   3    -57.5272987 -0.503226E-07  0.225E-03    8.03       9.7  T
   4    -57.5272987 -0.736793E-08  0.860E-04    8.03      25.4  T
   5    -57.5272987 -0.100886E-08  0.187E-04    8.03     116.5  T
     SCC iter.                  ...        0 min,  0.004 sec
     gradient                   ...        0 min,  0.002 sec
 * total energy  :   -57.2550221 Eh     change       -0.5770115E-05 Eh
   gradient norm :     0.0012369 Eh/α   predicted    -0.2930430E-05 ( -49.21%)
   displ. norm   :     0.0616477 α      lambda       -0.3976224E-05
   maximum displ.:     0.0440986 α      in ANC's #1, #5, #3, ...
 * RMSD in coord.:     0.4858860 α      energy gain  -0.1560811E-01 Eh

generating ANC from exact Hessian ...
Using Lindh-Hessian (1995)
 Shifting diagonal of input Hessian by    8.7158683230401102E-003
 Lowest  eigenvalues of input Hessian
    0.000000    0.000000    0.000000    0.000000    0.000000    0.000000
    0.010000    0.011429    0.012514    0.016904    0.020141    0.022213
    0.025478    0.029062    0.031275    0.038848    0.051251    0.059680
 Highest eigenvalues
    1.550717    1.722796    1.824728    2.106788    3.519093    3.656615


........................................................................
.............................. CYCLE   21 ..............................
........................................................................

 iter      E             dE          RMSdq      gap      omega  full diag
   1    -57.5271974 -0.575272E+02  0.171E-02    8.03       0.0  T
   2    -57.5271975 -0.168146E-06  0.977E-03    8.03       2.2  T
   3    -57.5271976 -0.751146E-07  0.216E-03    8.03      10.1  T
   4    -57.5271976 -0.477273E-08  0.690E-04    8.03      31.6  T
   5    -57.5271976 -0.131352E-08  0.131E-04    8.03     166.6  T
     SCC iter.                  ...        0 min,  0.004 sec
     gradient                   ...        0 min,  0.002 sec
 * total energy  :   -57.2550256 Eh     change       -0.3511632E-05 Eh
   gradient norm :     0.0011274 Eh/α   predicted     0.0000000E+00 (-100.00%)
   displ. norm   :     0.0075790 α      lambda       -0.2902358E-06
   maximum displ.:     0.0046666 α      in ANC's #2, #3, #5, ...

........................................................................
.............................. CYCLE   22 ..............................
........................................................................

 iter      E             dE          RMSdq      gap      omega  full diag
   1    -57.5273685 -0.575274E+02  0.334E-03    8.03       0.0  T
   2    -57.5273685 -0.325449E-07  0.208E-03    8.03      10.5  T
   3    -57.5273685 -0.194619E-08  0.101E-03    8.03      21.7  T
   4    -57.5273685 -0.645365E-09  0.210E-04    8.03     104.0  T
   5    -57.5273685 -0.154195E-09  0.871E-05    8.03     250.6  T
     SCC iter.                  ...        0 min,  0.004 sec
     gradient                   ...        0 min,  0.002 sec
 * total energy  :   -57.2550270 Eh     change       -0.1440636E-05 Eh
   gradient norm :     0.0005441 Eh/α   predicted    -0.6933825E-06 ( -51.87%)
   displ. norm   :     0.0126372 α      lambda       -0.5729845E-06
   maximum displ.:     0.0079184 α      in ANC's #2, #3, #5, ...

   *** GEOMETRY OPTIMIZATION CONVERGED AFTER 22 ITERATIONS ***

------------------------------------------------------------------------
 total energy gain   :        -0.0156131 Eh       -9.7973 kcal/mol
 total RMSD          :         0.4862972 a0        0.2573 Å
 total power (kW/mol):        -1.8632773 (step) -149.5452 (real)
------------------------------------------------------------------------

 ANCopt (total)                0 d,  0 h,  0 min,  0.274 sec
 optimizer setup                ...        0 min,  0.000 sec (  0.024%)
 model hessian                  ...        0 min,  0.021 sec (  7.561%)
 ANC generation                 ...        0 min,  0.001 sec (  0.236%)
 coordinate transformation      ...        0 min,  0.000 sec (  0.062%)
 single point calculation       ...        0 min,  0.245 sec ( 89.230%)
 optimization log               ...        0 min,  0.001 sec (  0.530%)
 hessian update                 ...        0 min,  0.004 sec (  1.371%)
 rational function              ...        0 min,  0.002 sec (  0.691%)

================
 final structure:
================
21
 xtb: 6.7.1 (edcfbbe)
F            0.24465865750800       -0.09683042727872       -0.28876775014062
C            1.56618540993290        0.17582558999752       -0.02382068735601
C            2.46760856409214       -0.97331125558704       -0.40531757261881
C            2.25524427765971       -1.46979756559987       -1.84429100314772
C            3.50780966046268       -1.25350107954106       -2.70442236650849
O            4.57920605132894       -2.00030805428574       -2.22803722837298
S            5.79773296933519       -0.96320964552025       -1.73921503908895
O            5.20852542752615       -0.21064126865430       -0.63618863317272
O            6.85368931277525       -1.86079973947424       -1.34461807572595
O            6.07520869053649       -0.14643617357732       -2.90121255777695
C            1.86392044591349        1.54067731582563       -0.69011956545262
F            0.91860630654203        2.44185211759498       -0.34906148612172
F            3.02333201515910        2.05219162194706       -0.31226246279775
F            1.84058075633760        1.47996389570090       -2.02337562055996
F            1.59315625898247        0.39702586669689        1.32018972930892
H            3.52546199526649       -0.65980430165752       -0.29349033505956
H            2.26850815057883       -1.76742281483692        0.31596231577580
H            2.04572693054150       -2.54019805451142       -1.82793055142112
H            1.40767092785546       -0.96861304124174       -2.31588244049641
H            3.29126277018165       -1.56133414678793       -3.73816417903735
H            3.80053442148412       -0.19910883920860       -2.71203449022936

 Bond Distances (Angstroems)
 ---------------------------
F1-C2=1.3751         C2-F1=1.3751         C2-C3=1.5095         C2-C11=1.5477        C2-F15=1.3624        C3-C2=1.5095         
C3-C4=1.5370         C3-H16=1.1090        C3-H17=1.0911        C4-C3=1.5370         C4-C5=1.5348         C4-H18=1.0908        
C4-H19=1.0918        C5-C4=1.5348         C5-O6=1.3902         C5-H20=1.1001        C5-H21=1.0943        O6-C5=1.3902         
O6-S7=1.6731         S7-O6=1.6731         S7-O8=1.4595         S7-O9=1.4410         S7-O10=1.4472        O8-S7=1.4595         
O9-S7=1.4410         O10-S7=1.4472        C11-C2=1.5477        C11-F12=1.3498       C11-F13=1.3224       C11-F14=1.3348       
F12-C11=1.3498       F13-C11=1.3224       F14-C11=1.3348       F15-C2=1.3624        H16-C3=1.1090        H17-C3=1.0911        
H18-C4=1.0908        H19-C4=1.0918        H20-C5=1.1001        H21-C5=1.0943        
 C  H  Rav=1.0962 sigma=0.0065  Rmin=1.0908  Rmax=1.1090     6
 C  C  Rav=1.5322 sigma=0.0140  Rmin=1.5095  Rmax=1.5477     4
 O  C  Rav=1.3902 sigma=0.0000  Rmin=1.3902  Rmax=1.3902     1
 F  C  Rav=1.3489 sigma=0.0188  Rmin=1.3224  Rmax=1.3751     5
 S  O  Rav=1.5052 sigma=0.0972  Rmin=1.4410  Rmax=1.6731     4

 selected bond angles (degree)
 --------------------
C3-C2-F1=111.98                C11-C2-F1=106.07               C11-C2-C3=116.59               F15-C2-F1=103.96               
F15-C2-C3=111.17               F15-C2-C11=106.12              C4-C3-C2=113.58                H16-C3-C2=109.20               
H16-C3-C4=108.51               H17-C3-C2=106.14               H17-C3-C4=111.01               H17-C3-H16=108.25              
C5-C4-C3=111.49                H18-C4-C3=109.24               H18-C4-C5=107.66               H19-C4-C3=111.31               
H19-C4-C5=109.08               H19-C4-H18=107.93              O6-C5-C4=111.18                H20-C5-C4=109.06               
H20-C5-O6=108.87               H21-C5-C4=110.98               H21-C5-O6=108.29               H21-C5-H20=108.40              
S7-O6-C5=109.17                O8-S7-O6=104.26                O9-S7-O6=103.16                O9-S7-O8=114.21                
O10-S7-O6=104.77               O10-S7-O8=113.15               O10-S7-O9=115.53               

 selected dihedral angles (degree)
 ---------------------------------
C4-C3-C2-F1= 51.68            C4-C3-C2-C11=289.29           C4-C3-C2-F15=167.49           H16-C3-C2-F1=172.94           
H16-C3-C2-C11= 50.54          H16-C3-C2-F15=288.75          H17-C3-C2-F1=289.43           H17-C3-C2-C11=167.03          
H17-C3-C2-F15= 45.24          C5-C4-C3-C2=116.10            C5-C4-C3-H16=354.45           C5-C4-C3-H17=235.61           
H18-C4-C3-C2=234.97           H18-C4-C3-H16=113.32          H18-C4-C3-H17=354.48          H19-C4-C3-C2=354.05           
H19-C4-C3-H16=232.41          H19-C4-C3-H17=113.56          O6-C5-C4-C3= 63.57            O6-C5-C4-H18=303.77           
O6-C5-C4-H19=186.90           H20-C5-C4-C3=183.62           H20-C5-C4-H18= 63.82          H20-C5-C4-H19=306.95          
H21-C5-C4-C3=302.98           H21-C5-C4-H18=183.17          H21-C5-C4-H19= 66.30          S7-O6-C5-C4=243.04            
S7-O6-C5-H20=122.87           S7-O6-C5-H21=  5.20           O8-S7-O6-C5= 63.39            O9-S7-O6-C5=182.99            
O10-S7-O6-C5=304.27           
           -------------------------------------------------
          |                Final Singlepoint                |
           -------------------------------------------------

          ...................................................
          :                      SETUP                      :
          :.................................................:
          :  # basis functions                  72          :
          :  # atomic orbitals                  71          :
          :  # shells                           37          :
          :  # electrons                        92          :
          :  max. iterations                   250          :
          :  Hamiltonian                  GFN2-xTB          :
          :  restarted?                      false          :
          :  GBSA solvation                  false          :
          :  PC potential                    false          :
          :  electronic temp.          300.0000000     K    :
          :  accuracy                    1.0000000          :
          :  -> integral cutoff          0.2500000E+02      :
          :  -> integral neglect         0.1000000E-07      :
          :  -> SCF convergence          0.1000000E-05 Eh   :
          :  -> wf. convergence          0.1000000E-03 e    :
          :  Broyden damping             0.4000000          :
          :  net charge                         -1          :
          :  unpaired electrons                  0          :
          ...................................................

 iter      E             dE          RMSdq      gap      omega  full diag
   1    -57.5273685 -0.575274E+02  0.207E-05    8.03       0.0  T
   2    -57.5273685 -0.724754E-12  0.124E-05    8.03    1765.5  T
   3    -57.5273685 -0.163425E-12  0.522E-06    8.03    4182.2  T

   *** convergence criteria satisfied after 3 iterations ***

         #    Occupation            Energy/Eh            Energy/eV
      -------------------------------------------------------------
         1        2.0000           -0.8058312             -21.9278
       ...           ...                  ...                  ...
        40        2.0000           -0.3049899              -8.2992
        41        2.0000           -0.2839000              -7.7253
        42        2.0000           -0.2798566              -7.6153
        43        2.0000           -0.2768802              -7.5343
        44        2.0000           -0.2655400              -7.2257
        45        2.0000           -0.2625914              -7.1455
        46        2.0000           -0.2546767              -6.9301 (HOMO)
        47                          0.0404738               1.1013 (LUMO)
        48                          0.0595267               1.6198
        49                          0.0713328               1.9411
        50                          0.0911782               2.4811
        51                          0.1171807               3.1886
       ...                                ...                  ...
        71                          1.4137591              38.4703
      -------------------------------------------------------------
                  HL-Gap            0.2951504 Eh            8.0315 eV
             Fermi-level           -0.1071015 Eh           -2.9144 eV

 SCC (total)                   0 d,  0 h,  0 min,  0.006 sec
 SCC setup                      ...        0 min,  0.000 sec (  1.142%)
 Dispersion                     ...        0 min,  0.000 sec (  1.104%)
 classical contributions        ...        0 min,  0.000 sec (  0.204%)
 integral evaluation            ...        0 min,  0.001 sec ( 16.169%)
 iterations                     ...        0 min,  0.002 sec ( 39.976%)
 molecular gradient             ...        0 min,  0.002 sec ( 39.905%)
 printout                       ...        0 min,  0.000 sec (  1.251%)

         :::::::::::::::::::::::::::::::::::::::::::::::::::::
         ::                     SUMMARY                     ::
         :::::::::::::::::::::::::::::::::::::::::::::::::::::
         :: total energy             -57.255027007912 Eh    ::
         :: gradient norm              0.000544384938 Eh/a0 ::
         :: HOMO-LUMO gap              8.031451416940 eV    ::
         ::.................................................::
         :: SCC energy               -57.527207220793 Eh    ::
         :: -> isotropic ES            0.261241286689 Eh    ::
         :: -> anisotropic ES         -0.025429309898 Eh    ::
         :: -> anisotropic XC         -0.035305944829 Eh    ::
         :: -> dispersion             -0.021065725023 Eh    ::
         :: repulsion energy           0.272180212881 Eh    ::
         :: add. restraining           0.000000000000 Eh    ::
         :: total charge              -1.000000000000 e     ::
         :::::::::::::::::::::::::::::::::::::::::::::::::::::

           -------------------------------------------------
          |                Property Printout                |
           -------------------------------------------------

    * Orbital Energies and Occupations

         #    Occupation            Energy/Eh            Energy/eV
      -------------------------------------------------------------
         1        2.0000           -0.8058312             -21.9278
       ...           ...                  ...                  ...
        34        2.0000           -0.3837410             -10.4421
        35        2.0000           -0.3742977             -10.1852
        36        2.0000           -0.3627454              -9.8708
        37        2.0000           -0.3464741              -9.4280
        38        2.0000           -0.3415906              -9.2952
        39        2.0000           -0.3271705              -8.9028
        40        2.0000           -0.3049899              -8.2992
        41        2.0000           -0.2839000              -7.7253
        42        2.0000           -0.2798566              -7.6153
        43        2.0000           -0.2768802              -7.5343
        44        2.0000           -0.2655400              -7.2257
        45        2.0000           -0.2625914              -7.1455
        46        2.0000           -0.2546767              -6.9301 (HOMO)
        47                          0.0404738               1.1013 (LUMO)
        48                          0.0595267               1.6198
        49                          0.0713328               1.9411
        50                          0.0911782               2.4811
        51                          0.1171807               3.1886
        52                          0.1322347               3.5983
        53                          0.1762124               4.7950
        54                          0.1798418               4.8937
        55                          0.2042823               5.5588
        56                          0.2084880               5.6732
        57                          0.2172821               5.9125
       ...                                ...                  ...
        71                          1.4137591              38.4703
      -------------------------------------------------------------
                  HL-Gap            0.2951504 Eh            8.0315 eV
             Fermi-level           -0.1071015 Eh           -2.9144 eV

     #   Z          covCN         q      C6AA      α(0)
     1   9 F        0.788    -0.227    11.513     4.008
     2   6 C        3.519     0.314    16.976     6.075
     3   6 C        3.801    -0.104    22.483     6.751
     4   6 C        3.799    -0.068    21.797     6.648
     5   6 C        3.931     0.090    19.035     6.200
     6   8 O        1.707    -0.484    22.530     6.409
     7  16 S        3.690     1.473    94.110    16.328
     8   8 O        0.860    -0.718    29.208     7.246
     9   8 O        0.860    -0.669    27.876     7.079
    10   8 O        0.860    -0.701    28.735     7.187
    11   6 C        3.330     0.484    17.398     6.618
    12   9 F        0.792    -0.197    11.204     3.954
    13   9 F        0.791    -0.168    10.914     3.902
    14   9 F        0.791    -0.190    11.135     3.942
    15   9 F        0.790    -0.214    11.376     3.984
    16   1 H        0.922     0.144     1.435     1.874
    17   1 H        0.924     0.071     2.077     2.254
    18   1 H        0.924     0.057     2.239     2.340
    19   1 H        0.924     0.040     2.445     2.445
    20   1 H        0.923     0.027     2.630     2.536
    21   1 H        0.924     0.041     2.438     2.442

 Mol. C6AA /au·bohr⁶  :       6033.628032
 Mol. C8AA /au·bohr⁸  :     142579.179954
 Mol. α(0) /au        :        110.221140


Wiberg/Mayer (AO) data.
largest (>0.10) Wiberg bond orders for each atom

 ---------------------------------------------------------------------------
     #   Z sym  total        # sym  WBO       # sym  WBO       # sym  WBO
 ---------------------------------------------------------------------------
     1   9 F    1.037 --     2 C    0.927
     2   6 C    3.847 --     3 C    0.978    15 F    0.945     1 F    0.927
                            11 C    0.904
     3   6 C    3.949 --     4 C    0.997     2 C    0.978    17 H    0.968
                            16 H    0.900
     4   6 C    3.995 --     3 C    0.997     5 C    0.993    18 H    0.978
                            19 H    0.977
     5   6 C    3.955 --     6 O    1.002     4 C    0.993    20 H    0.967
                            21 H    0.964
     6   8 O    2.033 --     5 C    1.002     7 S    0.779
     7  16 S    5.029 --     9 O    1.459    10 O    1.414     8 O    1.351
                             6 O    0.779
     8   8 O    1.736 --     7 S    1.351    10 O    0.117     9 O    0.116
     9   8 O    1.771 --     7 S    1.459    10 O    0.122     8 O    0.116
    10   8 O    1.737 --     7 S    1.414     9 O    0.122     8 O    0.117
    11   6 C    3.850 --    13 F    0.984    14 F    0.960    12 F    0.945
                             2 C    0.904
    12   9 F    1.072 --    11 C    0.945
    13   9 F    1.113 --    11 C    0.984
    14   9 F    1.087 --    11 C    0.960
    15   9 F    1.051 --     2 C    0.945
    16   1 H    0.979 --     3 C    0.900
    17   1 H    0.995 --     3 C    0.968
    18   1 H    0.997 --     4 C    0.978
    19   1 H    0.998 --     4 C    0.977
    20   1 H    0.999 --     5 C    0.967
    21   1 H    0.998 --     5 C    0.964
 ---------------------------------------------------------------------------

Topologies differ in total number of bonds
Writing topology from bond orders to xtbtopo.mol

molecular dipole:
                 x           y           z       tot (Debye)
 q only:      -10.041       0.590       2.553
   full:      -10.212       0.540       2.440      26.722
molecular quadrupole (traceless):
                xx          xy          yy          xz          yz          zz
 q only:     -108.041      23.744      57.645      49.214      -5.057      50.396
  q+dip:     -114.124      25.041      61.617      48.363      -5.435      52.508
   full:     -113.267      24.827      60.596      48.803      -4.995      52.671

           -------------------------------------------------
          |                Geometry Summary                 |
           -------------------------------------------------

      molecular mass/u    :      257.1557469
   center of mass at/Å    :        3.3079300      -0.0416629      -1.0875350
  moments of inertia/u·Å² :        0.4861773E+03   0.1612149E+04   0.1689314E+04
rotational constants/cm⁻¹ :        0.3467384E-01   0.1045662E-01   0.9978979E-02

 * 19 selected distances

     #   Z          #   Z                                           value/Å
     1   9 F        2   6 C                                       1.3751260
     2   6 C        3   6 C                                       1.5095097
     3   6 C        4   6 C                                       1.5369588
     4   6 C        5   6 C                                       1.5347738
     5   6 C        6   8 O                                       1.3901633
     6   8 O        7  16 S                                       1.6731194 (max)
     7  16 S        8   8 O                                       1.4595178
     7  16 S        9   8 O                                       1.4409785
     7  16 S       10   8 O                                       1.4471870
    11   6 C       12   9 F                                       1.3498355
    11   6 C       13   9 F                                       1.3223685
    11   6 C       14   9 F                                       1.3348419
     2   6 C       15   9 F                                       1.3623587
     3   6 C       16   1 H                                       1.1089842
     3   6 C       17   1 H                                       1.0910999
     4   6 C       18   1 H                                       1.0908357 (min)
     4   6 C       19   1 H                                       1.0917716
     5   6 C       20   1 H                                       1.1001255
     5   6 C       21   1 H                                       1.0942984

 * 5 distinct bonds (by element types)

   Z      Z             #   av. dist./Å        max./Å        min./Å
   1 H    6 C           6     1.0961859     1.1089842     1.0908357
   6 C    6 C           3     1.5270807     1.5369588     1.5095097
   6 C    8 O           1     1.3901633     1.3901633     1.3901633
   6 C    9 F           5     1.3489061     1.3751260     1.3223685
   8 O   16 S           4     1.5052007     1.6731194     1.4409785


optimized geometry written to: xtbopt.xyz


           -------------------------------------------------
          | TOTAL ENERGY              -57.255027007912 Eh   |
          | GRADIENT NORM               0.000544384938 Eh/α |
          | HOMO-LUMO GAP               8.031451416940 eV   |
           -------------------------------------------------

------------------------------------------------------------------------
 * finished run on 2024/12/20 at 01:53:00.829     
------------------------------------------------------------------------
 total:
 * wall-time:     0 d,  0 h,  0 min,  0.312 sec
 *  cpu-time:     0 d,  0 h,  0 min,  2.377 sec
 * ratio c/w:     7.617 speedup
 SCF:
 * wall-time:     0 d,  0 h,  0 min,  0.015 sec
 *  cpu-time:     0 d,  0 h,  0 min,  0.121 sec
 * ratio c/w:     7.939 speedup
 ANC optimizer:
 * wall-time:     0 d,  0 h,  0 min,  0.281 sec
 *  cpu-time:     0 d,  0 h,  0 min,  2.139 sec
 * ratio c/w:     7.623 speedup

