      -----------------------------------------------------------      
     |                   =====================                   |     
     |                           x T B                           |     
     |                   =====================                   |     
     |                         S. Grimme                         |     
     |          Mulliken Center for Theoretical Chemistry        |     
     |                    University of Bonn                     |     
      -----------------------------------------------------------      

   * xtb version 6.7.1 (edcfbbe) compiled by 'conda@3ef47c1a292c' on 2024-11-25

   xtb is free software: you can redistribute it and/or modify it under
   the terms of the GNU Lesser General Public License as published by
   the Free Software Foundation, either version 3 of the License, or
   (at your option) any later version.
   
   xtb is distributed in the hope that it will be useful,
   but WITHOUT ANY WARRANTY; without even the implied warranty of
   MERCHANTABILITY or FITNESS FOR A PARTICULAR PURPOSE.  See the
   GNU Lesser General Public License for more details.
   
   Cite this work as:
   * C. Bannwarth, E. Caldeweyher, S. Ehlert, A. Hansen, P. Pracht,
     J. Seibert, S. Spicher, S. Grimme, WIREs Comput. Mol. Sci., 2020, 11,
     e01493. DOI: 10.1002/wcms.1493
   
   for GFN2-xTB:
   * C. Bannwarth, S. Ehlert and S. Grimme., J. Chem. Theory Comput., 2019,
     15, 1652-1671. DOI: 10.1021/acs.jctc.8b01176
   for GFN1-xTB:
   * S. Grimme, C. Bannwarth, P. Shushkov, J. Chem. Theory Comput., 2017,
     13, 1989-2009. DOI: 10.1021/acs.jctc.7b00118
   for GFN0-xTB:
   * P. Pracht, E. Caldeweyher, S. Ehlert, S. Grimme, ChemRxiv, 2019, preprint.
     DOI: 10.26434/chemrxiv.8326202.v1
   for GFN-FF:
   * S. Spicher and S. Grimme, Angew. Chem. Int. Ed., 2020, 59, 15665-15673.
     DOI: 10.1002/anie.202004239
   
   for ALPB and GBSA implicit solvation:
   * S. Ehlert, M. Stahn, S. Spicher, S. Grimme, J. Chem. Theory Comput.,
     2021, 17, 4250-4261. DOI: 10.1021/acs.jctc.1c00471
   
   for ddCOSMO and CPCM-X implicit solvation:
   * M. Stahn, S. Ehlert, S. Grimme, J. Phys. Chem. A,
     2023, XX, XXXX-XXXX. DOI: 10.1021/acs.jpca.3c04382
   
   for DFT-D4:
   * E. Caldeweyher, C. Bannwarth and S. Grimme, J. Chem. Phys., 2017,
     147, 034112. DOI: 10.1063/1.4993215
   * E. Caldeweyher, S. Ehlert, A. Hansen, H. Neugebauer, S. Spicher,
     C. Bannwarth and S. Grimme, J. Chem. Phys., 2019, 150, 154122.
     DOI: 10.1063/1.5090222
   * E. Caldeweyher, J.-M. Mewes, S. Ehlert and S. Grimme, Phys. Chem. Chem. Phys.
     2020, 22, 8499-8512. DOI: 10.1039/D0CP00502A
   
   for sTDA-xTB:
   * S. Grimme and C. Bannwarth, J. Chem. Phys., 2016, 145, 054103.
     DOI: 10.1063/1.4959605
   
   in the mass-spec context:
   * V. Asgeirsson, C. Bauer and S. Grimme, Chem. Sci., 2017, 8, 4879.
     DOI: 10.1039/c7sc00601b
   * J. Koopman and S. Grimme, ACS Omega 2019, 4, 12, 15120-15133.
     DOI: 10.1021/acsomega.9b02011
   
   for metadynamics refer to:
   * S. Grimme, J. Chem. Theory Comput., 2019, 155, 2847-2862
     DOI: 10.1021/acs.jctc.9b00143
   
   for SPH calculations refer to:
   * S. Spicher and S. Grimme, J. Chem. Theory Comput., 2021, 17, 1701-1714
     DOI: 10.1021/acs.jctc.0c01306
   
   for ONIOM refer to:
   * C. Plett, A. Katbashev, S. Ehlert, S. Grimme, M. Bursch,
     Phys. Chem. Chem. Phys., 2023, 25, 17860-17868. DOI: 10.1039/D3CP02178E
   
   for DIPRO refer to:
   * J. Kohn, N. Gildemeister, S. Grimme, D. Fazzi, A. Hansen,
     J. Chem. Phys., 2023, just accepted.
   
   for PTB refer to:
   * S. Grimme, M. Mueller, A. Hansen, J. Chem. Phys., 2023, 158, 124111.
     DOI: 10.1063/5.0137838
   
   with help from (in alphabetical order)
   P. Atkinson, C. Bannwarth, F. Bohle, G. Brandenburg, E. Caldeweyher
   M. Checinski, S. Dohm, S. Ehlert, S. Ehrlich, I. Gerasimov, C. Hölzer
   A. Katbashev, J. Kohn, J. Koopman, C. Lavigne, S. Lehtola, F. März, M. Müller,
   F. Musil, H. Neugebauer, J. Pisarek, C. Plett, P. Pracht, F. Pultar,
   J. Seibert, P. Shushkov, S. Spicher, M. Stahn, M. Steiner, T. Strunk,
   J. Stückrath, T. Rose, and J. Unsleber
   
 * started run on 2024/12/20 at 01:53:00.866     
   ID    Z sym.   atoms
    1    6 C      1-4
    2    8 O      5, 8-10
    3    7 N      6
    4   16 S      7
    5    1 H      11-14

           -------------------------------------------------
          |                Calculation Setup                |
           -------------------------------------------------

          program call               : xtb A080.xyz --opt --namespace A080 --charge -1
          calculation namespace      : A080
          coordinate file            : A080.xyz
          omp threads                :                     8


           -------------------------------------------------
          |                 G F N 2 - x T B                 |
           -------------------------------------------------

        Reference                      10.1021/acs.jctc.8b01176
      * Hamiltonian:
        H0-scaling (s, p, d)           1.850000    2.230000    2.230000
        zeta-weighting                 0.500000
      * Dispersion:
        s8                             2.700000
        a1                             0.520000
        a2                             5.000000
        s9                             5.000000
      * Repulsion:
        kExp                           1.500000    1.000000
        rExp                           1.000000
      * Coulomb:
        alpha                          2.000000
        third order                    shell-resolved
        anisotropic                    true
        a3                             3.000000
        a5                             4.000000
        cn-shift                       1.200000
        cn-exp                         4.000000
        max-rad                        5.000000


          ...................................................
          :                      SETUP                      :
          :.................................................:
          :  # basis functions                  50          :
          :  # atomic orbitals                  49          :
          :  # shells                           25          :
          :  # electrons                        56          :
          :  max. iterations                   250          :
          :  Hamiltonian                  GFN2-xTB          :
          :  restarted?                      false          :
          :  GBSA solvation                  false          :
          :  PC potential                    false          :
          :  electronic temp.          300.0000000     K    :
          :  accuracy                    1.0000000          :
          :  -> integral cutoff          0.2500000E+02      :
          :  -> integral neglect         0.1000000E-07      :
          :  -> SCF convergence          0.1000000E-05 Eh   :
          :  -> wf. convergence          0.1000000E-03 e    :
          :  Broyden damping             0.4000000          :
          :  net charge                         -1          :
          :  unpaired electrons                  0          :
          ...................................................

 iter      E             dE          RMSdq      gap      omega  full diag
   1    -33.4886906 -0.334887E+02  0.724E+00    3.50       0.0  T
   2    -33.5424082 -0.537176E-01  0.446E+00    2.82       1.0  T
   3    -33.5246346  0.177736E-01  0.272E+00    3.32       1.0  T
   4    -33.5762702 -0.516356E-01  0.782E-01    2.92       1.0  T
   5    -33.5781863 -0.191608E-02  0.370E-01    2.99       1.0  T
   6    -33.5784629 -0.276637E-03  0.171E-01    2.97       1.0  T
   7    -33.5785407 -0.777203E-04  0.902E-02    2.98       1.0  T
   8    -33.5785650 -0.243940E-04  0.230E-02    2.98       1.2  T
   9    -33.5785672 -0.213086E-05  0.811E-03    2.98       3.3  T
  10    -33.5785673 -0.134386E-06  0.362E-03    2.98       7.4  T
  11    -33.5785673 -0.195337E-07  0.901E-04    2.98      29.7  T
  12    -33.5785673 -0.731006E-09  0.339E-04    2.98      78.9  T

   *** convergence criteria satisfied after 12 iterations ***

         #    Occupation            Energy/Eh            Energy/eV
      -------------------------------------------------------------
         1        2.0000           -0.6155760             -16.7507
       ...           ...                  ...                  ...
        22        2.0000           -0.2973867              -8.0923
        23        2.0000           -0.2942795              -8.0078
        24        2.0000           -0.2780440              -7.5660
        25        2.0000           -0.2627661              -7.1502
        26        2.0000           -0.2490978              -6.7783
        27        2.0000           -0.2314572              -6.2983
        28        2.0000           -0.2175795              -5.9206 (HOMO)
        29                         -0.1081203              -2.9421 (LUMO)
        30                         -0.0187133              -0.5092
        31                          0.0411139               1.1188
        32                          0.0679937               1.8502
        33                          0.1346253               3.6633
       ...                                ...                  ...
        49                          1.3061917              35.5433
      -------------------------------------------------------------
                  HL-Gap            0.1094592 Eh            2.9785 eV
             Fermi-level           -0.1628499 Eh           -4.4314 eV

 SCC (total)                   0 d,  0 h,  0 min,  0.010 sec
 SCC setup                      ...        0 min,  0.000 sec (  0.900%)
 Dispersion                     ...        0 min,  0.000 sec (  0.782%)
 classical contributions        ...        0 min,  0.000 sec (  0.337%)
 integral evaluation            ...        0 min,  0.002 sec ( 18.317%)
 iterations                     ...        0 min,  0.006 sec ( 65.018%)
 molecular gradient             ...        0 min,  0.001 sec ( 13.499%)
 printout                       ...        0 min,  0.000 sec (  0.992%)

         :::::::::::::::::::::::::::::::::::::::::::::::::::::
         ::                     SUMMARY                     ::
         :::::::::::::::::::::::::::::::::::::::::::::::::::::
         :: total energy             -33.306162082782 Eh    ::
         :: gradient norm              0.058347849285 Eh/a0 ::
         :: HOMO-LUMO gap              2.978537074644 eV    ::
         ::.................................................::
         :: SCC energy               -33.578526966530 Eh    ::
         :: -> isotropic ES            0.209432848563 Eh    ::
         :: -> anisotropic ES         -0.018048831996 Eh    ::
         :: -> anisotropic XC          0.002682863888 Eh    ::
         :: -> dispersion             -0.014669487046 Eh    ::
         :: repulsion energy           0.272364883747 Eh    ::
         :: add. restraining           0.000000000000 Eh    ::
         :: total charge              -1.000000000000 e     ::
         :::::::::::::::::::::::::::::::::::::::::::::::::::::

      ----------------------------------------------------------- 
     |                   =====================                   |
     |                        A N C O P T                        |
     |                   =====================                   |
     |               Approximate Normal Coordinate               |
     |                Rational Function Optimizer                |
      ----------------------------------------------------------- 
      ----------------------------------------------------------- 
     |                   =====================                   |
     |                        A N C O P T                        |
     |                   =====================                   |
     |               Approximate Normal Coordinate               |
     |                Rational Function Optimizer                |
      ----------------------------------------------------------- 

          ...................................................
          :                      SETUP                      :
          :.................................................:
          :   optimization level            normal          :
          :   max. optcycles                   200          :
          :   ANC micro-cycles                  20          :
          :   degrees of freedom                36          :
          :.................................................:
          :   RF solver                   davidson          :
          :   write xtbopt.log                true          :
          :   linear?                        false          :
          :   energy convergence         0.5000000E-05 Eh   :
          :   grad. convergence          0.1000000E-02 Eh/α :
          :   maxmium RF displ.          1.0000000          :
          :   Hlow (freq-cutoff)         0.1000000E-01      :
          :   Hmax (freq-cutoff)         5.0000000          :
          :   S6 in model hess.         20.0000000          :
          ...................................................

generating ANC from exact Hessian ...
Using Lindh-Hessian (1995)
 Shifting diagonal of input Hessian by    2.9009661067749886E-003
 Lowest  eigenvalues of input Hessian
    0.000000    0.000000    0.000000    0.000000    0.000000    0.000000
    0.010000    0.012165    0.021496    0.023691    0.041312    0.053834
    0.062195    0.075762    0.098631    0.107812    0.123895    0.132533
 Highest eigenvalues
    1.769486    1.962706    2.071823    2.300161    2.952409    3.322768


........................................................................
.............................. CYCLE    1 ..............................
........................................................................

 iter      E             dE          RMSdq      gap      omega  full diag
   1    -33.5785673 -0.335786E+02  0.924E-05    2.98       0.0  T
   2    -33.5785673 -0.719069E-11  0.552E-05    2.98     484.0  T
   3    -33.5785673  0.439826E-11  0.387E-05    2.98     690.5  T
     SCC iter.                  ...        0 min,  0.002 sec
     gradient                   ...        0 min,  0.001 sec
 * total energy  :   -33.3061621 Eh     change       -0.1086207E-09 Eh
   gradient norm :     0.0583476 Eh/α   predicted     0.0000000E+00 (-100.00%)
   displ. norm   :     0.1786133 α      lambda       -0.5380271E-02
   maximum displ.:     0.0651807 α      in ANC's #8, #13, #14, ...

........................................................................
.............................. CYCLE    2 ..............................
........................................................................

 iter      E             dE          RMSdq      gap      omega  full diag
   1    -33.5886749 -0.335887E+02  0.282E-01    3.06       0.0  T
   2    -33.5887362 -0.612143E-04  0.165E-01    3.07       1.0  T
   3    -33.5887194  0.168026E-04  0.103E-01    3.08       1.0  T
   4    -33.5887941 -0.747594E-04  0.306E-02    3.07       1.0  T
   5    -33.5887977 -0.354827E-05  0.115E-02    3.08       2.3  T
   6    -33.5887979 -0.260740E-06  0.356E-03    3.08       7.5  T
   7    -33.5887979 -0.162993E-07  0.176E-03    3.08      15.2  T
   8    -33.5887979 -0.229586E-08  0.468E-04    3.08      57.1  T
   9    -33.5887979 -0.481322E-09  0.130E-04    3.08     206.3  T
     SCC iter.                  ...        0 min,  0.004 sec
     gradient                   ...        0 min,  0.001 sec
 * total energy  :   -33.3101955 Eh     change       -0.4033432E-02 Eh
   gradient norm :     0.0355477 Eh/α   predicted    -0.2775962E-02 ( -31.18%)
   displ. norm   :     0.2272983 α      lambda       -0.3642452E-02
   maximum displ.:     0.1134309 α      in ANC's #5, #4, #13, ...

........................................................................
.............................. CYCLE    3 ..............................
........................................................................

 iter      E             dE          RMSdq      gap      omega  full diag
   1    -33.5973227 -0.335973E+02  0.302E-01    3.14       0.0  T
   2    -33.5973825 -0.597312E-04  0.157E-01    3.15       1.0  T
   3    -33.5973410  0.414765E-04  0.928E-02    3.17       1.0  T
   4    -33.5974153 -0.743081E-04  0.303E-02    3.16       1.0  T
   5    -33.5974183 -0.299582E-05  0.130E-02    3.16       2.1  T
   6    -33.5974186 -0.298293E-06  0.341E-03    3.16       7.8  T
   7    -33.5974186 -0.155958E-07  0.181E-03    3.16      14.8  T
   8    -33.5974186 -0.231206E-08  0.455E-04    3.16      58.8  T
   9    -33.5974186 -0.529013E-09  0.148E-04    3.16     180.3  T
     SCC iter.                  ...        0 min,  0.004 sec
     gradient                   ...        0 min,  0.001 sec
 * total energy  :   -33.3123336 Eh     change       -0.2138066E-02 Eh
   gradient norm :     0.0131368 Eh/α   predicted    -0.1915314E-02 ( -10.42%)
   displ. norm   :     0.1313007 α      lambda       -0.5578711E-03
   maximum displ.:     0.0891525 α      in ANC's #4, #5, #3, ...

........................................................................
.............................. CYCLE    4 ..............................
........................................................................

 iter      E             dE          RMSdq      gap      omega  full diag
   1    -33.5982946 -0.335983E+02  0.144E-01    3.16       0.0  T
   2    -33.5983005 -0.585462E-05  0.721E-02    3.17       1.0  T
   3    -33.5983002  0.260163E-06  0.203E-02    3.17       1.3  T
   4    -33.5983008 -0.567155E-06  0.112E-02    3.17       2.4  T
   5    -33.5983015 -0.707550E-06  0.473E-03    3.17       5.6  T
   6    -33.5983016 -0.909342E-07  0.114E-03    3.17      23.4  T
   7    -33.5983016 -0.461566E-08  0.550E-04    3.17      48.6  T
   8    -33.5983016 -0.307004E-09  0.173E-04    3.17     154.9  T
     SCC iter.                  ...        0 min,  0.004 sec
     gradient                   ...        0 min,  0.001 sec
 * total energy  :   -33.3127599 Eh     change       -0.4262825E-03 Eh
   gradient norm :     0.0100279 Eh/α   predicted    -0.2837459E-03 ( -33.44%)
   displ. norm   :     0.2232635 α      lambda       -0.6465690E-03
   maximum displ.:     0.1398371 α      in ANC's #4, #5, #1, ...

........................................................................
.............................. CYCLE    5 ..............................
........................................................................

 iter      E             dE          RMSdq      gap      omega  full diag
   1    -33.5969705 -0.335970E+02  0.248E-01    3.17       0.0  T
   2    -33.5969963 -0.258162E-04  0.124E-01    3.18       1.0  T
   3    -33.5969868  0.948216E-05  0.529E-02    3.17       1.0  T
   4    -33.5969987 -0.118929E-04  0.260E-02    3.18       1.0  T
   5    -33.5970033 -0.455774E-05  0.824E-03    3.17       3.2  T
   6    -33.5970034 -0.160320E-06  0.262E-03    3.17      10.2  T
   7    -33.5970034 -0.181277E-07  0.832E-04    3.17      32.1  T
   8    -33.5970034 -0.492264E-09  0.330E-04    3.17      81.0  T
     SCC iter.                  ...        0 min,  0.004 sec
     gradient                   ...        0 min,  0.001 sec
 * total energy  :   -33.3131614 Eh     change       -0.4015287E-03 Eh
   gradient norm :     0.0085305 Eh/α   predicted    -0.3394031E-03 ( -15.47%)
   displ. norm   :     0.0984957 α      lambda       -0.1924279E-03
   maximum displ.:     0.0589071 α      in ANC's #4, #5, #3, ...

........................................................................
.............................. CYCLE    6 ..............................
........................................................................

 iter      E             dE          RMSdq      gap      omega  full diag
   1    -33.5970387 -0.335970E+02  0.107E-01    3.18       0.0  T
   2    -33.5970456 -0.687425E-05  0.536E-02    3.18       1.0  T
   3    -33.5970447  0.953680E-06  0.224E-02    3.18       1.2  T
   4    -33.5970451 -0.467519E-06  0.136E-02    3.18       2.0  T
   5    -33.5970467 -0.159601E-05  0.340E-03    3.18       7.9  T
   6    -33.5970467 -0.120149E-07  0.114E-03    3.18      23.4  T
   7    -33.5970467 -0.566327E-08  0.374E-04    3.18      71.6  T
   8    -33.5970467 -0.823661E-10  0.164E-04    3.18     162.6  T
     SCC iter.                  ...        0 min,  0.004 sec
     gradient                   ...        0 min,  0.001 sec
 * total energy  :   -33.3132935 Eh     change       -0.1320856E-03 Eh
   gradient norm :     0.0062693 Eh/α   predicted    -0.9714816E-04 ( -26.45%)
   displ. norm   :     0.0796358 α      lambda       -0.1442821E-03
   maximum displ.:     0.0486813 α      in ANC's #5, #3, #4, ...

........................................................................
.............................. CYCLE    7 ..............................
........................................................................

 iter      E             dE          RMSdq      gap      omega  full diag
   1    -33.5975693 -0.335976E+02  0.772E-02    3.20       0.0  T
   2    -33.5975741 -0.480188E-05  0.400E-02    3.19       1.0  T
   3    -33.5975742 -0.120058E-06  0.172E-02    3.19       1.6  T
   4    -33.5975744 -0.158187E-06  0.608E-03    3.19       4.4  T
   5    -33.5975746 -0.200634E-06  0.272E-03    3.19       9.8  T
   6    -33.5975746 -0.397930E-07  0.111E-03    3.19      24.1  T
   7    -33.5975746 -0.379744E-08  0.282E-04    3.19      94.9  T
   8    -33.5975746 -0.550742E-10  0.142E-04    3.19     187.6  T
     SCC iter.                  ...        0 min,  0.004 sec
     gradient                   ...        0 min,  0.001 sec
 * total energy  :   -33.3133856 Eh     change       -0.9216783E-04 Eh
   gradient norm :     0.0051545 Eh/α   predicted    -0.7259942E-04 ( -21.23%)
   displ. norm   :     0.0511663 α      lambda       -0.6417556E-04
   maximum displ.:     0.0392734 α      in ANC's #3, #5, #1, ...

........................................................................
.............................. CYCLE    8 ..............................
........................................................................

 iter      E             dE          RMSdq      gap      omega  full diag
   1    -33.5983372 -0.335983E+02  0.360E-02    3.20       0.0  T
   2    -33.5983378 -0.636924E-06  0.194E-02    3.20       1.4  T
   3    -33.5983377  0.111389E-06  0.708E-03    3.20       3.8  T
   4    -33.5983379 -0.179526E-06  0.339E-03    3.20       7.9  T
   5    -33.5983379 -0.582848E-07  0.129E-03    3.20      20.7  T
   6    -33.5983380 -0.104318E-07  0.442E-04    3.20      60.4  T
   7    -33.5983380 -0.550529E-09  0.139E-04    3.20     191.8  T
     SCC iter.                  ...        0 min,  0.003 sec
     gradient                   ...        0 min,  0.001 sec
 * total energy  :   -33.3134296 Eh     change       -0.4393457E-04 Eh
   gradient norm :     0.0047723 Eh/α   predicted    -0.3217294E-04 ( -26.77%)
   displ. norm   :     0.0719043 α      lambda       -0.5324560E-04
   maximum displ.:     0.0488111 α      in ANC's #3, #1, #5, ...

........................................................................
.............................. CYCLE    9 ..............................
........................................................................

 iter      E             dE          RMSdq      gap      omega  full diag
   1    -33.5983340 -0.335983E+02  0.578E-02    3.21       0.0  T
   2    -33.5983348 -0.753140E-06  0.292E-02    3.21       1.0  T
   3    -33.5983344  0.345854E-06  0.105E-02    3.20       2.5  T
   4    -33.5983349 -0.516222E-06  0.437E-03    3.21       6.1  T
   5    -33.5983350 -0.804870E-07  0.198E-03    3.21      13.5  T
   6    -33.5983350 -0.197417E-07  0.431E-04    3.21      62.0  T
   7    -33.5983350 -0.310301E-09  0.218E-04    3.21     122.7  T
     SCC iter.                  ...        0 min,  0.003 sec
     gradient                   ...        0 min,  0.001 sec
 * total energy  :   -33.3134668 Eh     change       -0.3727023E-04 Eh
   gradient norm :     0.0041509 Eh/α   predicted    -0.2675930E-04 ( -28.20%)
   displ. norm   :     0.0672322 α      lambda       -0.4086652E-04
   maximum displ.:     0.0418523 α      in ANC's #3, #1, #4, ...

........................................................................
.............................. CYCLE   10 ..............................
........................................................................

 iter      E             dE          RMSdq      gap      omega  full diag
   1    -33.5984833 -0.335985E+02  0.564E-02    3.20       0.0  T
   2    -33.5984842 -0.941053E-06  0.278E-02    3.21       1.0  T
   3    -33.5984825  0.171523E-05  0.181E-02    3.20       1.5  T
   4    -33.5984851 -0.260488E-05  0.476E-03    3.20       5.6  T
   5    -33.5984852 -0.225013E-07  0.153E-03    3.20      17.5  T
   6    -33.5984852 -0.489475E-08  0.538E-04    3.20      49.7  T
   7    -33.5984852 -0.723816E-09  0.193E-04    3.20     138.6  T
     SCC iter.                  ...        0 min,  0.003 sec
     gradient                   ...        0 min,  0.001 sec
 * total energy  :   -33.3134947 Eh     change       -0.2781630E-04 Eh
   gradient norm :     0.0030979 Eh/α   predicted    -0.2052507E-04 ( -26.21%)
   displ. norm   :     0.0470196 α      lambda       -0.2181060E-04
   maximum displ.:     0.0275839 α      in ANC's #1, #3, #4, ...

........................................................................
.............................. CYCLE   11 ..............................
........................................................................

 iter      E             dE          RMSdq      gap      omega  full diag
   1    -33.5983000 -0.335983E+02  0.449E-02    3.20       0.0  T
   2    -33.5983009 -0.916909E-06  0.218E-02    3.20       1.2  T
   3    -33.5983000  0.861237E-06  0.152E-02    3.20       1.8  T
   4    -33.5983016 -0.161207E-05  0.408E-03    3.20       6.6  T
   5    -33.5983017 -0.297455E-07  0.157E-03    3.20      17.0  T
   6    -33.5983017 -0.463879E-08  0.485E-04    3.20      55.1  T
   7    -33.5983017 -0.837879E-09  0.172E-04    3.20     155.1  T
     SCC iter.                  ...        0 min,  0.003 sec
     gradient                   ...        0 min,  0.001 sec
 * total energy  :   -33.3135095 Eh     change       -0.1485858E-04 Eh
   gradient norm :     0.0020585 Eh/α   predicted    -0.1093019E-04 ( -26.44%)
   displ. norm   :     0.0244339 α      lambda       -0.1082773E-04
   maximum displ.:     0.0133108 α      in ANC's #1, #4, #3, ...

........................................................................
.............................. CYCLE   12 ..............................
........................................................................

 iter      E             dE          RMSdq      gap      omega  full diag
   1    -33.5983187 -0.335983E+02  0.236E-02    3.19       0.0  T
   2    -33.5983192 -0.527791E-06  0.120E-02    3.19       2.2  T
   3    -33.5983191  0.122682E-06  0.842E-03    3.19       3.2  T
   4    -33.5983194 -0.345368E-06  0.280E-03    3.19       9.6  T
   5    -33.5983195 -0.346120E-07  0.932E-04    3.19      28.7  T
   6    -33.5983195 -0.586716E-09  0.187E-04    3.19     142.7  T
     SCC iter.                  ...        0 min,  0.003 sec
     gradient                   ...        0 min,  0.001 sec
 * total energy  :   -33.3135165 Eh     change       -0.7022847E-05 Eh
   gradient norm :     0.0013545 Eh/α   predicted    -0.5415885E-05 ( -22.88%)
   displ. norm   :     0.0158216 α      lambda       -0.3637216E-05
   maximum displ.:     0.0095224 α      in ANC's #4, #2, #7, ...

........................................................................
.............................. CYCLE   13 ..............................
........................................................................

 iter      E             dE          RMSdq      gap      omega  full diag
   1    -33.5982166 -0.335982E+02  0.143E-02    3.19       0.0  T
   2    -33.5982169 -0.288913E-06  0.717E-03    3.19       3.7  T
   3    -33.5982169  0.133750E-07  0.461E-03    3.19       5.8  T
   4    -33.5982169 -0.507832E-07  0.191E-03    3.19      14.0  T
   5    -33.5982169 -0.316733E-07  0.639E-04    3.19      41.8  T
   6    -33.5982169 -0.468980E-09  0.182E-04    3.19     146.9  T
     SCC iter.                  ...        0 min,  0.003 sec
     gradient                   ...        0 min,  0.001 sec
 * total energy  :   -33.3135192 Eh     change       -0.2649261E-05 Eh
   gradient norm :     0.0009988 Eh/α   predicted    -0.1818665E-05 ( -31.35%)
   displ. norm   :     0.0073847 α      lambda       -0.8898199E-06
   maximum displ.:     0.0045487 α      in ANC's #1, #5, #2, ...

   *** GEOMETRY OPTIMIZATION CONVERGED AFTER 13 ITERATIONS ***

------------------------------------------------------------------------
 total energy gain   :        -0.0073571 Eh       -4.6167 kcal/mol
 total RMSD          :         0.2676307 a0        0.1416 Å
 total power (kW/mol):        -1.4858539 (step) -260.3993 (real)
------------------------------------------------------------------------

 ANCopt (total)                0 d,  0 h,  0 min,  0.074 sec
 optimizer setup                ...        0 min,  0.000 sec (  0.092%)
 model hessian                  ...        0 min,  0.002 sec (  2.181%)
 ANC generation                 ...        0 min,  0.000 sec (  0.278%)
 coordinate transformation      ...        0 min,  0.000 sec (  0.092%)
 single point calculation       ...        0 min,  0.070 sec ( 94.009%)
 optimization log               ...        0 min,  0.001 sec (  0.847%)
 hessian update                 ...        0 min,  0.000 sec (  0.212%)
 rational function              ...        0 min,  0.001 sec (  1.654%)

================
 final structure:
================
14
 xtb: 6.7.1 (edcfbbe)
C            0.87866042969281       -0.07279714140257       -0.08273867350804
C            0.42551635418152       -1.49917728848901       -0.25250098630430
C            1.22972860011652       -2.55769150692283       -0.15279953120880
C            0.74691075747978       -3.96498747539489       -0.20913511680868
O            1.46481961414378       -4.86126189714270        0.23457877211014
N           -0.48610403912049       -4.16939511559535       -0.67772787140268
S           -1.20339189511110       -2.99222942951172       -1.43280245838668
O           -0.63837082166255       -2.69022461954597       -2.72550108167702
O           -2.63018925698634       -3.12894984058846       -1.40049602246608
O           -0.90122898788071       -1.60585773480763       -0.51653092016742
H            0.26874865528155        0.41741803804331        0.67476014472135
H            0.74200225682894        0.46119577381714       -1.02209006823131
H            1.92462797792927       -0.03712241823676        0.20869157861707
H            2.27506035510702       -2.42533934422253        0.08397223471246

 Bond Distances (Angstroems)
 ---------------------------
C1-C2=1.5062         C1-H11=1.0891        C1-H12=1.0891        C1-H13=1.0864        C2-C1=1.5062         C2-C3=1.3331         
C2-O10=1.3570        C3-C2=1.3331         C3-C4=1.4889         C3-H14=1.0800        C4-C3=1.4889         C4-O5=1.2311         
C4-N6=1.3348         O5-C4=1.2311         N6-C4=1.3348         N6-S7=1.5717         S7-N6=1.5717         S7-O8=1.4427         
S7-O9=1.4337         S7-O10=1.6890        O8-S7=1.4427         O9-S7=1.4337         O10-C2=1.3570        O10-S7=1.6890        
H11-C1=1.0891        H12-C1=1.0891        H13-C1=1.0864        H14-C3=1.0800        
 C  H  Rav=1.0861 sigma=0.0037  Rmin=1.0800  Rmax=1.0891     4
 C  C  Rav=1.4427 sigma=0.0778  Rmin=1.3331  Rmax=1.5062     3
 N  C  Rav=1.3348 sigma=0.0000  Rmin=1.3348  Rmax=1.3348     1
 O  C  Rav=1.2940 sigma=0.0629  Rmin=1.2311  Rmax=1.3570     2
 S  N  Rav=1.5717 sigma=0.0000  Rmin=1.5717  Rmax=1.5717     1
 S  O  Rav=1.5218 sigma=0.1183  Rmin=1.4337  Rmax=1.6890     3

 selected bond angles (degree)
 --------------------
H11-C1-C2=109.64               H12-C1-C2=109.23               H12-C1-H11=107.99              H13-C1-C2=110.55               
H13-C1-H11=109.74              H13-C1-H12=109.64              C3-C2-C1=124.20                O10-C2-C1=112.99               
O10-C2-C3=122.82               C4-C3-C2=123.51                H14-C3-C2=120.20               H14-C3-C4=115.98               
O5-C4-C3=119.04                N6-C4-C3=117.23                N6-C4-O5=123.62                S7-N6-C4=118.39                
O8-S7-N6=114.11                O9-S7-N6=111.83                O9-S7-O8=115.46                O10-S7-N6=105.81               
O10-S7-O8=104.13               O10-S7-O9=104.13               S7-O10-C2=110.18               

 selected dihedral angles (degree)
 ---------------------------------
C3-C2-C1-H11=234.33           C3-C2-C1-H12=116.17           C3-C2-C1-H13=355.45           O10-C2-C1-H11= 54.12          
O10-C2-C1-H12=295.97          O10-C2-C1-H13=175.24          C4-C3-C2-C1=174.65            C4-C3-C2-O10=354.87           
H14-C3-C2-C1=  1.35           H14-C3-C2-O10=181.57          O5-C4-C3-C2=199.10            O5-C4-C3-H14= 12.66           
N6-C4-C3-C2= 15.47            N6-C4-C3-H14=189.02           S7-N6-C4-C3= 13.89            S7-N6-C4-O5=190.07            
O8-S7-N6-C4= 70.08            O9-S7-N6-C4=203.45            O10-S7-N6-C4=316.21           S7-O10-C2-C1=151.25           
S7-O10-C2-C3=331.05           C2-O10-S7-N6= 50.47           C2-O10-S7-O8=289.86           C2-O10-S7-O9=168.50           
           -------------------------------------------------
          |                Final Singlepoint                |
           -------------------------------------------------

          ...................................................
          :                      SETUP                      :
          :.................................................:
          :  # basis functions                  50          :
          :  # atomic orbitals                  49          :
          :  # shells                           25          :
          :  # electrons                        56          :
          :  max. iterations                   250          :
          :  Hamiltonian                  GFN2-xTB          :
          :  restarted?                      false          :
          :  GBSA solvation                  false          :
          :  PC potential                    false          :
          :  electronic temp.          300.0000000     K    :
          :  accuracy                    1.0000000          :
          :  -> integral cutoff          0.2500000E+02      :
          :  -> integral neglect         0.1000000E-07      :
          :  -> SCF convergence          0.1000000E-05 Eh   :
          :  -> wf. convergence          0.1000000E-03 e    :
          :  Broyden damping             0.4000000          :
          :  net charge                         -1          :
          :  unpaired electrons                  0          :
          ...................................................

 iter      E             dE          RMSdq      gap      omega  full diag
   1    -33.5982169 -0.335982E+02  0.981E-05    3.19       0.0  T
   2    -33.5982169 -0.123634E-10  0.675E-05    3.19     396.1  T
   3    -33.5982169 -0.513012E-11  0.364E-05    3.19     734.0  T

   *** convergence criteria satisfied after 3 iterations ***

         #    Occupation            Energy/Eh            Energy/eV
      -------------------------------------------------------------
         1        2.0000           -0.6166878             -16.7809
       ...           ...                  ...                  ...
        22        2.0000           -0.3003529              -8.1730
        23        2.0000           -0.2991840              -8.1412
        24        2.0000           -0.2840422              -7.7292
        25        2.0000           -0.2613611              -7.1120
        26        2.0000           -0.2485548              -6.7635
        27        2.0000           -0.2352472              -6.4014
        28        2.0000           -0.2204549              -5.9989 (HOMO)
        29                         -0.1033245              -2.8116 (LUMO)
        30                         -0.0090129              -0.2453
        31                          0.0371220               1.0101
        32                          0.0778948               2.1196
        33                          0.1434595               3.9037
       ...                                ...                  ...
        49                          1.4090372              38.3419
      -------------------------------------------------------------
                  HL-Gap            0.1171304 Eh            3.1873 eV
             Fermi-level           -0.1618897 Eh           -4.4052 eV

 SCC (total)                   0 d,  0 h,  0 min,  0.004 sec
 SCC setup                      ...        0 min,  0.000 sec (  1.575%)
 Dispersion                     ...        0 min,  0.000 sec (  1.048%)
 classical contributions        ...        0 min,  0.000 sec (  0.220%)
 integral evaluation            ...        0 min,  0.001 sec ( 18.066%)
 iterations                     ...        0 min,  0.001 sec ( 38.404%)
 molecular gradient             ...        0 min,  0.001 sec ( 38.520%)
 printout                       ...        0 min,  0.000 sec (  1.761%)

         :::::::::::::::::::::::::::::::::::::::::::::::::::::
         ::                     SUMMARY                     ::
         :::::::::::::::::::::::::::::::::::::::::::::::::::::
         :: total energy             -33.313519196905 Eh    ::
         :: gradient norm              0.001000289184 Eh/a0 ::
         :: HOMO-LUMO gap              3.187281663424 eV    ::
         ::.................................................::
         :: SCC energy               -33.598178483079 Eh    ::
         :: -> isotropic ES            0.205969691832 Eh    ::
         :: -> anisotropic ES         -0.019039652911 Eh    ::
         :: -> anisotropic XC          0.002542447898 Eh    ::
         :: -> dispersion             -0.014859983468 Eh    ::
         :: repulsion energy           0.284659286174 Eh    ::
         :: add. restraining           0.000000000000 Eh    ::
         :: total charge              -1.000000000000 e     ::
         :::::::::::::::::::::::::::::::::::::::::::::::::::::

           -------------------------------------------------
          |                Property Printout                |
           -------------------------------------------------

    * Orbital Energies and Occupations

         #    Occupation            Energy/Eh            Energy/eV
      -------------------------------------------------------------
         1        2.0000           -0.6166878             -16.7809
       ...           ...                  ...                  ...
        16        2.0000           -0.3649577              -9.9310
        17        2.0000           -0.3554000              -9.6709
        18        2.0000           -0.3518411              -9.5741
        19        2.0000           -0.3452544              -9.3948
        20        2.0000           -0.3325283              -9.0486
        21        2.0000           -0.3061840              -8.3317
        22        2.0000           -0.3003529              -8.1730
        23        2.0000           -0.2991840              -8.1412
        24        2.0000           -0.2840422              -7.7292
        25        2.0000           -0.2613611              -7.1120
        26        2.0000           -0.2485548              -6.7635
        27        2.0000           -0.2352472              -6.4014
        28        2.0000           -0.2204549              -5.9989 (HOMO)
        29                         -0.1033245              -2.8116 (LUMO)
        30                         -0.0090129              -0.2453
        31                          0.0371220               1.0101
        32                          0.0778948               2.1196
        33                          0.1434595               3.9037
        34                          0.1749304               4.7601
        35                          0.2184174               5.9434
        36                          0.2298246               6.2538
        37                          0.2679922               7.2924
        38                          0.2965786               8.0703
        39                          0.3156869               8.5903
       ...                                ...                  ...
        49                          1.4090372              38.3419
      -------------------------------------------------------------
                  HL-Gap            0.1171304 Eh            3.1873 eV
             Fermi-level           -0.1618897 Eh           -4.4052 eV

     #   Z          covCN         q      C6AA      α(0)
     1   6 C        3.755    -0.110    22.661     6.788
     2   6 C        3.066     0.143    24.828     8.171
     3   6 C        2.923    -0.137    31.512     9.206
     4   6 C        3.007     0.289    22.105     7.712
     5   8 O        0.859    -0.493    23.635     6.518
     6   7 N        1.832    -0.526    35.203     8.792
     7  16 S        4.025     1.372    96.623    16.544
     8   8 O        0.860    -0.661    27.674     7.053
     9   8 O        0.860    -0.618    26.565     6.910
    10   8 O        1.709    -0.443    21.682     6.287
    11   1 H        0.925     0.051     2.311     2.377
    12   1 H        0.925     0.054     2.277     2.360
    13   1 H        0.925     0.042     2.427     2.436
    14   1 H        0.926     0.039     2.467     2.456

 Mol. C6AA /au·bohr⁶  :       3800.977671
 Mol. C8AA /au·bohr⁸  :      98689.132974
 Mol. α(0) /au        :         93.610841


Wiberg/Mayer (AO) data.
largest (>0.10) Wiberg bond orders for each atom

 ---------------------------------------------------------------------------
     #   Z sym  total        # sym  WBO       # sym  WBO       # sym  WBO
 ---------------------------------------------------------------------------
     1   6 C    3.998 --     2 C    1.005    13 H    0.987    11 H    0.975
                            12 H    0.972
     2   6 C    3.921 --     3 C    1.764    10 O    1.054     1 C    1.005
     3   6 C    3.974 --     2 C    1.764     4 C    1.007    14 H    0.968
     4   6 C    3.958 --     5 O    1.588     6 N    1.305     3 C    1.007
     5   8 O    1.926 --     4 C    1.588     6 N    0.178
     6   7 N    2.916 --     4 C    1.305     7 S    1.087     5 O    0.178
                             8 O    0.110
     7  16 S    4.994 --     9 O    1.558     8 O    1.492     6 N    1.087
                            10 O    0.778
     8   8 O    1.807 --     7 S    1.492     9 O    0.114     6 N    0.110
     9   8 O    1.851 --     7 S    1.558     8 O    0.114
    10   8 O    2.171 --     2 C    1.054     7 S    0.778
    11   1 H    0.996 --     1 C    0.975
    12   1 H    0.996 --     1 C    0.972
    13   1 H    0.998 --     1 C    0.987
    14   1 H    0.999 --     3 C    0.968
 ---------------------------------------------------------------------------

Topologies differ in total number of bonds
Writing topology from bond orders to xtbtopo.mol

molecular dipole:
                 x           y           z       tot (Debye)
 q only:        1.061       7.289       2.072
   full:        1.148       7.810       2.111      20.769
molecular quadrupole (traceless):
                xx          xy          yy          xz          yz          zz
 q only:       21.841      -0.944     -44.874      -8.809     -14.703      23.033
  q+dip:       23.684      -1.896     -50.349     -10.545     -15.373      26.665
   full:       23.523      -1.551     -51.078     -10.645     -14.957      27.554

           -------------------------------------------------
          |                Geometry Summary                 |
           -------------------------------------------------

      molecular mass/u    :      162.1438169
   center of mass at/Å    :       -0.2714645      -2.7736937      -0.8288228
  moments of inertia/u·Å² :        0.3253955E+03   0.3683786E+03   0.5930070E+03
rotational constants/cm⁻¹ :        0.5180659E-01   0.4576170E-01   0.2842737E-01

 * 12 selected distances

     #   Z          #   Z                                           value/Å
     2   6 C        3   6 C                                       1.3330980
     4   6 C        5   8 O                                       1.2310903
     4   6 C        6   7 N                                       1.3347987
     6   7 N        7  16 S                                       1.5717376
     7  16 S        8   8 O                                       1.4427494
     7  16 S        9   8 O                                       1.4336971
     2   6 C       10   8 O                                       1.3569621
     7  16 S       10   8 O                                       1.6890479 (max)
     1   6 C       11   1 H                                       1.0890858
     1   6 C       12   1 H                                       1.0891305
     1   6 C       13   1 H                                       1.0863943
     3   6 C       14   1 H                                       1.0799522 (min)

 * 6 distinct bonds (by element types)

   Z      Z             #   av. dist./Å        max./Å        min./Å
   1 H    6 C           4     1.0861407     1.0891305     1.0799522
   6 C    6 C           1     1.3330980     1.3330980     1.3330980
   6 C    7 N           1     1.3347987     1.3347987     1.3347987
   6 C    8 O           2     1.2940262     1.3569621     1.2310903
   7 N   16 S           1     1.5717376     1.5717376     1.5717376
   8 O   16 S           3     1.5218315     1.6890479     1.4336971


optimized geometry written to: xtbopt.xyz


           -------------------------------------------------
          | TOTAL ENERGY              -33.313519196905 Eh   |
          | GRADIENT NORM               0.001000289184 Eh/α |
          | HOMO-LUMO GAP               3.187281663424 eV   |
           -------------------------------------------------

------------------------------------------------------------------------
 * finished run on 2024/12/20 at 01:53:00.970     
------------------------------------------------------------------------
 total:
 * wall-time:     0 d,  0 h,  0 min,  0.104 sec
 *  cpu-time:     0 d,  0 h,  0 min,  0.816 sec
 * ratio c/w:     7.864 speedup
 SCF:
 * wall-time:     0 d,  0 h,  0 min,  0.010 sec
 *  cpu-time:     0 d,  0 h,  0 min,  0.079 sec
 * ratio c/w:     7.917 speedup
 ANC optimizer:
 * wall-time:     0 d,  0 h,  0 min,  0.078 sec
 *  cpu-time:     0 d,  0 h,  0 min,  0.627 sec
 * ratio c/w:     7.988 speedup

