14
 energy: -33.306162082891 gnorm: 0.058347564740 xtb: 6.7.1 (edcfbbe)
C            0.88718000000000       -0.06285000000000       -0.06036000000000
C            0.46355000000000       -1.47510000000000       -0.27321000000000
C            1.24702000000000       -2.53829000000000       -0.06406000000000
C            0.75163000000000       -3.93257000000000       -0.24138000000000
O            1.55461000000000       -4.83193000000000        0.01529000000000
N           -0.53130000000000       -4.12027000000000       -0.54185000000000
S           -1.25084000000000       -3.04059000000000       -1.45211000000000
O           -0.73631000000000       -2.91986000000000       -2.81522000000000
O           -2.70966000000000       -3.05452000000000       -1.36136000000000
O           -0.82895000000000       -1.62739000000000       -0.73008000000000
H            0.26679000000000        0.40654000000000        0.70981000000000
H            0.77901000000000        0.50976000000000       -0.98714000000000
H            1.93230000000000        0.00815000000000        0.25838000000000
H            2.27176000000000       -2.44750000000000        0.27297000000000
14
 energy: -33.310195514810 gnorm: 0.035547719179 xtb: 6.7.1 (edcfbbe)
C            0.88153651205882       -0.05516683059971       -0.06214694072641
C            0.46572170537674       -1.47486348297842       -0.28947237216733
C            1.24143437227450       -2.54267113755932       -0.09509277466637
C            0.75397680932800       -3.94719741076823       -0.23779751005473
O            1.53633849074953       -4.85883014776809        0.04014645149167
N           -0.52598905549690       -4.12933316862720       -0.55724157940157
S           -1.23163943974419       -3.02561960018782       -1.43902544262510
O           -0.72044536316079       -2.90789764974801       -2.79474906693400
O           -2.67844021328368       -3.05724639422363       -1.35025507830065
O           -0.82621245041419       -1.59774758018636       -0.71582514068296
H            0.25708460382727        0.40669105134483        0.70465696590003
H            0.76178716932905        0.51939877540757       -0.98175076737690
H            1.92358228824359       -0.01055651508882        0.25405504741828
H            2.25805457091225       -2.44537990901681        0.25417820812604
14
 energy: -33.312333580419 gnorm: 0.013137153107 xtb: 6.7.1 (edcfbbe)
C            0.88378929874721       -0.05380799807828       -0.06316714756565
C            0.45437139203360       -1.47875789843227       -0.29646929576431
C            1.23130923081786       -2.54681195069212       -0.12688889890413
C            0.75613154106528       -3.95847993656701       -0.23664745900123
O            1.51248424156580       -4.87434617172207        0.09265472583861
N           -0.51893328596247       -4.14221501803019       -0.59021505020058
S           -1.21495363412784       -3.01002336270587       -1.42957709936000
O           -0.70121279475266       -2.88049645957547       -2.77117805946050
O           -2.64580582550493       -3.07627894082869       -1.34451845433588
O           -0.83987467819611       -1.56401478876315       -0.68860535475955
H            0.25542950441541        0.39729047939767        0.70218466948715
H            0.75186154826749        0.51722444405298       -0.97951164892296
H            1.92321601171986       -0.02376502639744        0.24792877995465
H            2.24897744991148       -2.43193737165808        0.21369029299439
14
 energy: -33.312759862933 gnorm: 0.010028335679 xtb: 6.7.1 (edcfbbe)
C            0.88663082511433       -0.05761141081458       -0.06380628595619
C            0.44349329167230       -1.48188317257057       -0.29203203067599
C            1.22696133675758       -2.54797749229243       -0.13588662778192
C            0.75398672016177       -3.95901199940390       -0.22852957008883
O            1.50439523841427       -4.87011966215528        0.12270225102773
N           -0.51452447370624       -4.14856509052291       -0.60879659400561
S           -1.21313294147475       -3.00762241030854       -1.43087831236034
O           -0.68948589183995       -2.85440022792959       -2.76407973247982
O           -2.64073692865477       -3.09384950001753       -1.35081104811314
O           -0.85549333667984       -1.55856645824831       -0.66730267161610
H            0.26286848687017        0.39592876438452        0.70386571084632
H            0.75333728201131        0.51064333328775       -0.98182681673947
H            1.92751306716671       -0.03026118299925        0.24210151270622
H            2.25097732418710       -2.42312349040936        0.18496021523713
14
 energy: -33.313161391587 gnorm: 0.008530817517 xtb: 6.7.1 (edcfbbe)
C            0.88989620903154       -0.06531068811220       -0.06747560597931
C            0.42782775069537       -1.48718949289507       -0.28270543665011
C            1.22199208338975       -2.54992316047154       -0.14513142998803
C            0.75336501049451       -3.95828142587749       -0.22211354690979
O            1.49276791751395       -4.86000317676341        0.17691183487401
N           -0.50290905860335       -4.15782544383931       -0.64128472692793
S           -1.21406557055505       -3.00672462888559       -1.43637585880014
O           -0.67429178129962       -2.80073719398868       -2.75745736606579
O           -2.63981278235430       -3.12354722965849       -1.36140512789564
O           -0.88108164824294       -1.56033186599510       -0.62547838451865
H            0.27750626439568        0.39846032110336        0.70442771765050
H            0.75691848824113        0.49922134341806       -0.98885716561662
H            1.93419954062267       -0.04193953560238        0.22955597630855
H            2.25447757667065       -2.41228782243216        0.14706912051896
14
 energy: -33.313293477181 gnorm: 0.006270715253 xtb: 6.7.1 (edcfbbe)
C            0.88921563093353       -0.06858995553211       -0.06976283286535
C            0.42477430619435       -1.48904089632487       -0.27852388153567
C            1.22249915095468       -2.55061663660902       -0.14880621755658
C            0.75096043838382       -3.95735404136317       -0.21521537732891
O            1.48592665672604       -4.85482771696862        0.19653989509362
N           -0.49733892114806       -4.16108788174833       -0.65236197925225
S           -1.21466820628869       -3.00796251360180       -1.43935413691688
O           -0.66643332303850       -2.77436874238138       -2.75453855547161
O           -2.64099478815748       -3.13301527658032       -1.36851082836465
O           -0.88857076383367       -1.56793257893132       -0.60320115342503
H            0.28161504534942        0.40176334675694        0.70263253838303
H            0.75683663451149        0.49403959035076       -0.99287415049512
H            1.93477922313775       -0.04604581887048        0.22442455014704
H            2.25818891627532       -2.41138087819626        0.12923212958836
14
 energy: -33.313385645013 gnorm: 0.005156290603 xtb: 6.7.1 (edcfbbe)
C            0.88694166509645       -0.06994322327773       -0.07213523185503
C            0.42712558682436       -1.49008570400281       -0.27670113786333
C            1.22602422075561       -2.55144699569339       -0.15291513605152
C            0.75044947490019       -3.95748197751111       -0.21437710556041
O            1.47727699741917       -4.85377541548329        0.21586342220741
N           -0.49194138988700       -4.16227278095056       -0.65994682875767
S           -1.21462378402156       -3.00869215093534       -1.44174874114330
O           -0.66317073768785       -2.75409997280792       -2.75242989064126
O           -2.64146212634123       -3.13453486261877       -1.37335976001834
O           -0.88923108046593       -1.57814392669885       -0.58406250318678
H            0.28012009633454        0.40313268814798        0.69933201530513
H            0.75365936392832        0.49169368017027       -0.99590131139177
H            1.93261646659481       -0.04590224498571        0.22183954082417
H            2.26300524655012       -2.41486711335276        0.11622266813271
14
 energy: -33.313429579581 gnorm: 0.004774002090 xtb: 6.7.1 (edcfbbe)
C            0.88471682694956       -0.06950849145354       -0.07378086916369
C            0.42971237554421       -1.49099776838994       -0.27284339021602
C            1.22906382968617       -2.55238320014907       -0.15391801119631
C            0.74884267529210       -3.95854171664164       -0.21152800454705
O            1.47178449291483       -4.85527187196897        0.22113831828287
N           -0.49054115457654       -4.16336863793646       -0.66258208631182
S           -1.21300655948021       -3.00766895191747       -1.44191810412557
O           -0.66006332318512       -2.74356378659091       -2.74922621249588
O           -2.64008783237101       -3.13116056955744       -1.37861007640526
O           -0.88759313937563       -1.58577758545379       -0.57111332250021
H            0.27636964601569        0.40478764992242        0.69546339934670
H            0.74917736221863        0.48865383633301       -0.99925401153875
H            1.93036569582860       -0.04233745075627        0.21976092179479
H            2.26804910453873       -2.41928145543992        0.10809144907623
14
 energy: -33.313466849814 gnorm: 0.004151393921 xtb: 6.7.1 (edcfbbe)
C            0.88263227415103       -0.06926034329041       -0.07635095872834
C            0.43063602958018       -1.49312724257233       -0.26663210604368
C            1.23141453160891       -2.55402424594941       -0.15510980285454
C            0.74825943018638       -3.96066167399520       -0.21051887110791
O            1.46580931601850       -4.85795944256935        0.23156738658352
N           -0.48822666492159       -4.16594564990049       -0.66951377282771
S           -1.21021493289748       -3.00428980969811       -1.44128623308108
O           -0.65575040332268       -2.72640933245707       -2.74393584504559
O           -2.63703775980705       -3.12922315839146       -1.38544180246661
O           -0.88905624668396       -1.59349990692319       -0.55213239006500
H            0.27323457860020        0.40721998528059        0.69042593731650
H            0.74347745359565        0.48234535665234       -1.00512551522398
H            1.92867913900893       -0.03794272331779        0.21502264350274
H            2.27293325488299       -2.42364181286813        0.09871133004170
14
 energy: -33.313494666114 gnorm: 0.003098128057 xtb: 6.7.1 (edcfbbe)
C            0.88091930484537       -0.06949935811902       -0.07920508953868
C            0.42978729009545       -1.49577098465553       -0.25907378411170
C            1.23184291680250       -2.55574146267802       -0.15362253476331
C            0.74752801804870       -3.96262013615688       -0.20944111065717
O            1.46305972159044       -4.85982800981270        0.23464383205377
N           -0.48677991587607       -4.16861347494424       -0.67515147592556
S           -1.20681114115659       -2.99962449885806       -1.43892432483683
O           -0.65028095816146       -2.71023571986541       -2.73720587110150
O           -2.63354862693544       -3.12785448667480       -1.39265693043350
O           -0.89245041114486       -1.59996545141211       -0.53433093801265
H            0.27110018045524        0.41131780965727        0.68434083815048
H            0.73950705421899        0.47329103088531       -1.01277331733428
H            1.92738717184415       -0.03422990982341        0.21003927424078
H            2.27552939537358       -2.42704534754238        0.09304143227017
14
 energy: -33.313509524691 gnorm: 0.002058591371 xtb: 6.7.1 (edcfbbe)
C            0.87976217322566       -0.07060451886298       -0.08114926738804
C            0.42798964262648       -1.49778243351061       -0.25477956774633
C            1.23124300337983       -2.55686220004384       -0.15316138223267
C            0.74725562577533       -3.96391814004295       -0.20903339674284
O            1.46249523122272       -4.86080087274982        0.23710147002308
N           -0.48578094433241       -4.16996687316765       -0.67860196899993
S           -1.20445473820406       -2.99569452574071       -1.43639822222744
O           -0.64523370865787       -2.69823516863427       -2.73162121072037
O           -2.63120510783920       -3.12823937268877       -1.39757918125328
O           -0.89671541986037       -1.60354041648653       -0.52270919717163
H            0.27032201302726        0.41437416580922        0.68003263825317
H            0.73850788809625        0.46636056073872       -1.01803078266596
H            1.92640025480212       -0.03384809881001        0.20736401782121
H            2.27620408673829       -2.42766210580980        0.08824605105104
14
 energy: -33.313516547538 gnorm: 0.001354532274 xtb: 6.7.1 (edcfbbe)
C            0.87908003605574       -0.07176952051938       -0.08225260187891
C            0.42645378100536       -1.49881942027822       -0.25275786759216
C            1.23027318474853       -2.55742503823473       -0.15240570866872
C            0.74707742921774       -3.96454147058372       -0.20908386857158
O            1.46373821389040       -4.86104794197462        0.23554050497877
N           -0.48574542242424       -4.16995497215323       -0.67869971208717
S           -1.20338023180983       -2.99332326883535       -1.43420004995236
O           -0.64150219685082       -2.69284290889904       -2.72792819862866
O           -2.63024184026106       -3.12848550865213       -1.39984026877953
O           -0.89948368279202       -1.60510904514248       -0.51817287613205
H            0.26973559253059        0.41638366095316        0.67698610604022
H            0.73968681013179        0.46255672502662       -1.02091090889013
H            1.92553669417856       -0.03516679533415        0.20712726902755
H            2.27556163237928       -2.42687449537270        0.08627818113475
14
 energy: -33.313519196799 gnorm: 0.000998781905 xtb: 6.7.1 (edcfbbe)
C            0.87866042969281       -0.07279714140257       -0.08273867350804
C            0.42551635418152       -1.49917728848901       -0.25250098630430
C            1.22972860011652       -2.55769150692283       -0.15279953120880
C            0.74691075747978       -3.96498747539489       -0.20913511680868
O            1.46481961414378       -4.86126189714270        0.23457877211014
N           -0.48610403912049       -4.16939511559535       -0.67772787140268
S           -1.20339189511110       -2.99222942951172       -1.43280245838668
O           -0.63837082166255       -2.69022461954597       -2.72550108167702
O           -2.63018925698634       -3.12894984058846       -1.40049602246608
O           -0.90122898788071       -1.60585773480763       -0.51653092016742
H            0.26874865528155        0.41741803804331        0.67476014472135
H            0.74200225682894        0.46119577381714       -1.02209006823131
H            1.92462797792927       -0.03712241823676        0.20869157861707
H            2.27506035510702       -2.42533934422253        0.08397223471246
