      -----------------------------------------------------------      
     |                   =====================                   |     
     |                           x T B                           |     
     |                   =====================                   |     
     |                         S. Grimme                         |     
     |          Mulliken Center for Theoretical Chemistry        |     
     |                    University of Bonn                     |     
      -----------------------------------------------------------      

   * xtb version 6.7.1 (edcfbbe) compiled by 'conda@3ef47c1a292c' on 2024-11-25

   xtb is free software: you can redistribute it and/or modify it under
   the terms of the GNU Lesser General Public License as published by
   the Free Software Foundation, either version 3 of the License, or
   (at your option) any later version.
   
   xtb is distributed in the hope that it will be useful,
   but WITHOUT ANY WARRANTY; without even the implied warranty of
   MERCHANTABILITY or FITNESS FOR A PARTICULAR PURPOSE.  See the
   GNU Lesser General Public License for more details.
   
   Cite this work as:
   * C. Bannwarth, E. Caldeweyher, S. Ehlert, A. Hansen, P. Pracht,
     J. Seibert, S. Spicher, S. Grimme, WIREs Comput. Mol. Sci., 2020, 11,
     e01493. DOI: 10.1002/wcms.1493
   
   for GFN2-xTB:
   * C. Bannwarth, S. Ehlert and S. Grimme., J. Chem. Theory Comput., 2019,
     15, 1652-1671. DOI: 10.1021/acs.jctc.8b01176
   for GFN1-xTB:
   * S. Grimme, C. Bannwarth, P. Shushkov, J. Chem. Theory Comput., 2017,
     13, 1989-2009. DOI: 10.1021/acs.jctc.7b00118
   for GFN0-xTB:
   * P. Pracht, E. Caldeweyher, S. Ehlert, S. Grimme, ChemRxiv, 2019, preprint.
     DOI: 10.26434/chemrxiv.8326202.v1
   for GFN-FF:
   * S. Spicher and S. Grimme, Angew. Chem. Int. Ed., 2020, 59, 15665-15673.
     DOI: 10.1002/anie.202004239
   
   for ALPB and GBSA implicit solvation:
   * S. Ehlert, M. Stahn, S. Spicher, S. Grimme, J. Chem. Theory Comput.,
     2021, 17, 4250-4261. DOI: 10.1021/acs.jctc.1c00471
   
   for ddCOSMO and CPCM-X implicit solvation:
   * M. Stahn, S. Ehlert, S. Grimme, J. Phys. Chem. A,
     2023, XX, XXXX-XXXX. DOI: 10.1021/acs.jpca.3c04382
   
   for DFT-D4:
   * E. Caldeweyher, C. Bannwarth and S. Grimme, J. Chem. Phys., 2017,
     147, 034112. DOI: 10.1063/1.4993215
   * E. Caldeweyher, S. Ehlert, A. Hansen, H. Neugebauer, S. Spicher,
     C. Bannwarth and S. Grimme, J. Chem. Phys., 2019, 150, 154122.
     DOI: 10.1063/1.5090222
   * E. Caldeweyher, J.-M. Mewes, S. Ehlert and S. Grimme, Phys. Chem. Chem. Phys.
     2020, 22, 8499-8512. DOI: 10.1039/D0CP00502A
   
   for sTDA-xTB:
   * S. Grimme and C. Bannwarth, J. Chem. Phys., 2016, 145, 054103.
     DOI: 10.1063/1.4959605
   
   in the mass-spec context:
   * V. Asgeirsson, C. Bauer and S. Grimme, Chem. Sci., 2017, 8, 4879.
     DOI: 10.1039/c7sc00601b
   * J. Koopman and S. Grimme, ACS Omega 2019, 4, 12, 15120-15133.
     DOI: 10.1021/acsomega.9b02011
   
   for metadynamics refer to:
   * S. Grimme, J. Chem. Theory Comput., 2019, 155, 2847-2862
     DOI: 10.1021/acs.jctc.9b00143
   
   for SPH calculations refer to:
   * S. Spicher and S. Grimme, J. Chem. Theory Comput., 2021, 17, 1701-1714
     DOI: 10.1021/acs.jctc.0c01306
   
   for ONIOM refer to:
   * C. Plett, A. Katbashev, S. Ehlert, S. Grimme, M. Bursch,
     Phys. Chem. Chem. Phys., 2023, 25, 17860-17868. DOI: 10.1039/D3CP02178E
   
   for DIPRO refer to:
   * J. Kohn, N. Gildemeister, S. Grimme, D. Fazzi, A. Hansen,
     J. Chem. Phys., 2023, just accepted.
   
   for PTB refer to:
   * S. Grimme, M. Mueller, A. Hansen, J. Chem. Phys., 2023, 158, 124111.
     DOI: 10.1063/5.0137838
   
   with help from (in alphabetical order)
   P. Atkinson, C. Bannwarth, F. Bohle, G. Brandenburg, E. Caldeweyher
   M. Checinski, S. Dohm, S. Ehlert, S. Ehrlich, I. Gerasimov, C. Hölzer
   A. Katbashev, J. Kohn, J. Koopman, C. Lavigne, S. Lehtola, F. März, M. Müller,
   F. Musil, H. Neugebauer, J. Pisarek, C. Plett, P. Pracht, F. Pultar,
   J. Seibert, P. Shushkov, S. Spicher, M. Stahn, M. Steiner, T. Strunk,
   J. Stückrath, T. Rose, and J. Unsleber
   
 * started run on 2024/12/20 at 01:53:01.223     
   ID    Z sym.   atoms
    1   17 Cl     1, 11
    2    6 C      2-5, 8-10, 13
    3    8 O      6, 7, 12
    4    1 H      14-18

           -------------------------------------------------
          |                Calculation Setup                |
           -------------------------------------------------

          program call               : xtb A081.xyz --opt --namespace A081 --charge -1
          calculation namespace      : A081
          coordinate file            : A081.xyz
          omp threads                :                     8


           -------------------------------------------------
          |                 G F N 2 - x T B                 |
           -------------------------------------------------

        Reference                      10.1021/acs.jctc.8b01176
      * Hamiltonian:
        H0-scaling (s, p, d)           1.850000    2.230000    2.230000
        zeta-weighting                 0.500000
      * Dispersion:
        s8                             2.700000
        a1                             0.520000
        a2                             5.000000
        s9                             5.000000
      * Repulsion:
        kExp                           1.500000    1.000000
        rExp                           1.000000
      * Coulomb:
        alpha                          2.000000
        third order                    shell-resolved
        anisotropic                    true
        a3                             3.000000
        a5                             4.000000
        cn-shift                       1.200000
        cn-exp                         4.000000
        max-rad                        5.000000


          ...................................................
          :                      SETUP                      :
          :.................................................:
          :  # basis functions                  69          :
          :  # atomic orbitals                  67          :
          :  # shells                           33          :
          :  # electrons                        70          :
          :  max. iterations                   250          :
          :  Hamiltonian                  GFN2-xTB          :
          :  restarted?                      false          :
          :  GBSA solvation                  false          :
          :  PC potential                    false          :
          :  electronic temp.          300.0000000     K    :
          :  accuracy                    1.0000000          :
          :  -> integral cutoff          0.2500000E+02      :
          :  -> integral neglect         0.1000000E-07      :
          :  -> SCF convergence          0.1000000E-05 Eh   :
          :  -> wf. convergence          0.1000000E-03 e    :
          :  Broyden damping             0.4000000          :
          :  net charge                         -1          :
          :  unpaired electrons                  0          :
          ...................................................

 iter      E             dE          RMSdq      gap      omega  full diag
   1    -41.4593388 -0.414593E+02  0.589E+00    4.14       0.0  T
   2    -41.5669186 -0.107580E+00  0.307E+00    2.29       1.0  T
   3    -41.5681528 -0.123421E-02  0.158E+00    2.24       1.0  T
   4    -41.5764844 -0.833152E-02  0.602E-01    1.76       1.0  T
   5    -41.5793588 -0.287445E-02  0.210E-01    1.90       1.0  T
   6    -41.5794984 -0.139604E-03  0.131E-01    1.98       1.0  T
   7    -41.5795815 -0.830717E-04  0.759E-02    2.02       1.0  T
   8    -41.5795998 -0.183051E-04  0.522E-02    2.01       1.0  T
   9    -41.5796214 -0.216096E-04  0.247E-02    2.01       1.0  T
  10    -41.5796237 -0.233709E-05  0.133E-02    2.01       1.8  T
  11    -41.5796253 -0.159496E-05  0.571E-03    2.01       4.1  T
  12    -41.5796255 -0.148196E-06  0.280E-03    2.01       8.4  T
  13    -41.5796255 -0.246717E-07  0.200E-03    2.01      11.8  T
  14    -41.5796255 -0.228088E-07  0.135E-03    2.01      17.4  T
  15    -41.5796255 -0.131332E-07  0.726E-04    2.01      32.5  T
  16    -41.5796255 -0.305713E-08  0.364E-04    2.01      64.7  T

   *** convergence criteria satisfied after 16 iterations ***

         #    Occupation            Energy/Eh            Energy/eV
      -------------------------------------------------------------
         1        2.0000           -0.9594934             -26.1091
       ...           ...                  ...                  ...
        29        2.0000           -0.3066234              -8.3436
        30        2.0000           -0.3023273              -8.2267
        31        2.0000           -0.2832741              -7.7083
        32        2.0000           -0.2803257              -7.6281
        33        2.0000           -0.2275280              -6.1914
        34        2.0000           -0.2148285              -5.8458
        35        2.0000           -0.2081461              -5.6639 (HOMO)
        36                         -0.1342229              -3.6524 (LUMO)
        37                         -0.1296959              -3.5292
        38                         -0.0488708              -1.3298
        39                         -0.0338090              -0.9200
        40                         -0.0195360              -0.5316
       ...                                ...                  ...
        67                          0.7293848              19.8476
      -------------------------------------------------------------
                  HL-Gap            0.0739232 Eh            2.0116 eV
             Fermi-level           -0.1711845 Eh           -4.6582 eV

 SCC (total)                   0 d,  0 h,  0 min,  0.020 sec
 SCC setup                      ...        0 min,  0.000 sec (  0.519%)
 Dispersion                     ...        0 min,  0.000 sec (  0.618%)
 classical contributions        ...        0 min,  0.000 sec (  0.207%)
 integral evaluation            ...        0 min,  0.003 sec ( 16.238%)
 iterations                     ...        0 min,  0.013 sec ( 67.932%)
 molecular gradient             ...        0 min,  0.003 sec ( 13.982%)
 printout                       ...        0 min,  0.000 sec (  0.425%)

         :::::::::::::::::::::::::::::::::::::::::::::::::::::
         ::                     SUMMARY                     ::
         :::::::::::::::::::::::::::::::::::::::::::::::::::::
         :: total energy             -41.216809760047 Eh    ::
         :: gradient norm              0.098930507733 Eh/a0 ::
         :: HOMO-LUMO gap              2.011551453813 eV    ::
         ::.................................................::
         :: SCC energy               -41.579487408124 Eh    ::
         :: -> isotropic ES            0.202424813296 Eh    ::
         :: -> anisotropic ES          0.000006693148 Eh    ::
         :: -> anisotropic XC         -0.000599653816 Eh    ::
         :: -> dispersion             -0.021824465029 Eh    ::
         :: repulsion energy           0.362677648077 Eh    ::
         :: add. restraining           0.000000000000 Eh    ::
         :: total charge              -1.000000000000 e     ::
         :::::::::::::::::::::::::::::::::::::::::::::::::::::

      ----------------------------------------------------------- 
     |                   =====================                   |
     |                        A N C O P T                        |
     |                   =====================                   |
     |               Approximate Normal Coordinate               |
     |                Rational Function Optimizer                |
      ----------------------------------------------------------- 
      ----------------------------------------------------------- 
     |                   =====================                   |
     |                        A N C O P T                        |
     |                   =====================                   |
     |               Approximate Normal Coordinate               |
     |                Rational Function Optimizer                |
      ----------------------------------------------------------- 

          ...................................................
          :                      SETUP                      :
          :.................................................:
          :   optimization level            normal          :
          :   max. optcycles                   200          :
          :   ANC micro-cycles                  20          :
          :   degrees of freedom                48          :
          :.................................................:
          :   RF solver                   davidson          :
          :   write xtbopt.log                true          :
          :   linear?                        false          :
          :   energy convergence         0.5000000E-05 Eh   :
          :   grad. convergence          0.1000000E-02 Eh/α :
          :   maxmium RF displ.          1.0000000          :
          :   Hlow (freq-cutoff)         0.1000000E-01      :
          :   Hmax (freq-cutoff)         5.0000000          :
          :   S6 in model hess.         20.0000000          :
          ...................................................

generating ANC from exact Hessian ...
Using Lindh-Hessian (1995)
 Shifting diagonal of input Hessian by    7.7375100955114507E-003
 Lowest  eigenvalues of input Hessian
    0.000000    0.000000    0.000000    0.000000    0.000000    0.000000
    0.010000    0.011579    0.013683    0.014623    0.015859    0.020409
    0.021307    0.024979    0.030330    0.051004    0.053626    0.054272
 Highest eigenvalues
    1.660264    1.753527    1.812457    1.970049    1.997898    2.231435


........................................................................
.............................. CYCLE    1 ..............................
........................................................................

 iter      E             dE          RMSdq      gap      omega  full diag
   1    -41.5796255 -0.415796E+02  0.137E-04    2.01       0.0  T
   2    -41.5796255 -0.647518E-10  0.919E-05    2.01     256.5  T
   3    -41.5796255 -0.186660E-10  0.701E-05    2.01     336.4  T
     SCC iter.                  ...        0 min,  0.002 sec
     gradient                   ...        0 min,  0.002 sec
 * total energy  :   -41.2168098 Eh     change       -0.1292932E-08 Eh
   gradient norm :     0.0989295 Eh/α   predicted     0.0000000E+00 (-100.00%)
   displ. norm   :     0.1902653 α      lambda       -0.9478926E-02
   maximum displ.:     0.0717077 α      in ANC's #28, #7, #1, ...

........................................................................
.............................. CYCLE    2 ..............................
........................................................................

 iter      E             dE          RMSdq      gap      omega  full diag
   1    -41.6059911 -0.416060E+02  0.237E-01    2.05       0.0  T
   2    -41.6061847 -0.193653E-03  0.145E-01    2.08       1.0  T
   3    -41.6062162 -0.314795E-04  0.805E-02    2.12       1.0  T
   4    -41.6062374 -0.211800E-04  0.277E-02    2.12       1.0  T
   5    -41.6062438 -0.642191E-05  0.159E-02    2.13       1.5  T
   6    -41.6062449 -0.108300E-05  0.110E-02    2.12       2.1  T
   7    -41.6062455 -0.631550E-06  0.669E-03    2.12       3.5  T
   8    -41.6062458 -0.321204E-06  0.256E-03    2.12       9.2  T
   9    -41.6062459 -0.599263E-07  0.135E-03    2.12      17.4  T
  10    -41.6062459 -0.728171E-08  0.721E-04    2.12      32.7  T
  11    -41.6062459 -0.195905E-08  0.434E-04    2.12      54.4  T
     SCC iter.                  ...        0 min,  0.008 sec
     gradient                   ...        0 min,  0.002 sec
 * total energy  :   -41.2234656 Eh     change       -0.6655826E-02 Eh
   gradient norm :     0.0503717 Eh/α   predicted    -0.4911033E-02 ( -26.21%)
   displ. norm   :     0.2681275 α      lambda       -0.5223338E-02
   maximum displ.:     0.1265398 α      in ANC's #1, #2, #4, ...

........................................................................
.............................. CYCLE    3 ..............................
........................................................................

 iter      E             dE          RMSdq      gap      omega  full diag
   1    -41.6226109 -0.416226E+02  0.239E-01    2.14       0.0  T
   2    -41.6228811 -0.270165E-03  0.155E-01    2.20       1.0  T
   3    -41.6229573 -0.761767E-04  0.876E-02    2.24       1.0  T
   4    -41.6229762 -0.189094E-04  0.312E-02    2.25       1.0  T
   5    -41.6229835 -0.730106E-05  0.170E-02    2.26       1.4  T
   6    -41.6229847 -0.116357E-05  0.117E-02    2.25       2.0  T
   7    -41.6229852 -0.543787E-06  0.896E-03    2.25       2.6  T
   8    -41.6229857 -0.506184E-06  0.452E-03    2.25       5.2  T
   9    -41.6229859 -0.206073E-06  0.134E-03    2.25      17.6  T
  10    -41.6229859 -0.429691E-08  0.836E-04    2.25      28.2  T
  11    -41.6229859 -0.350303E-08  0.457E-04    2.25      51.6  T
     SCC iter.                  ...        0 min,  0.008 sec
     gradient                   ...        0 min,  0.002 sec
 * total energy  :   -41.2256113 Eh     change       -0.2145673E-02 Eh
   gradient norm :     0.0257950 Eh/α   predicted    -0.2799426E-02 (  30.47%)
   displ. norm   :     0.2954400 α      lambda       -0.3327825E-02
   maximum displ.:     0.1693509 α      in ANC's #7, #1, #2, ...

........................................................................
.............................. CYCLE    4 ..............................
........................................................................

 iter      E             dE          RMSdq      gap      omega  full diag
   1    -41.6245970 -0.416246E+02  0.257E-01    2.25       0.0  T
   2    -41.6247220 -0.124945E-03  0.158E-01    2.29       1.0  T
   3    -41.6247119  0.100610E-04  0.917E-02    2.34       1.0  T
   4    -41.6247767 -0.648154E-04  0.208E-02    2.33       1.1  T
   5    -41.6247795 -0.279648E-05  0.121E-02    2.33       2.0  T
   6    -41.6247800 -0.457228E-06  0.863E-03    2.33       2.7  T
   7    -41.6247803 -0.312625E-06  0.596E-03    2.33       4.0  T
   8    -41.6247805 -0.188712E-06  0.253E-03    2.33       9.3  T
   9    -41.6247806 -0.667737E-07  0.964E-04    2.33      24.4  T
  10    -41.6247806 -0.291849E-08  0.510E-04    2.33      46.3  T
     SCC iter.                  ...        0 min,  0.007 sec
     gradient                   ...        0 min,  0.002 sec
 * total energy  :   -41.2270604 Eh     change       -0.1449119E-02 Eh
   gradient norm :     0.0217253 Eh/α   predicted    -0.1809152E-02 (  24.84%)
   displ. norm   :     0.2059506 α      lambda       -0.1191245E-02
   maximum displ.:     0.1276071 α      in ANC's #1, #2, #3, ...

........................................................................
.............................. CYCLE    5 ..............................
........................................................................

 iter      E             dE          RMSdq      gap      omega  full diag
   1    -41.6187407 -0.416187E+02  0.140E-01    2.34       0.0  T
   2    -41.6187579 -0.172165E-04  0.854E-02    2.34       1.0  T
   3    -41.6187471  0.107883E-04  0.403E-02    2.35       1.0  T
   4    -41.6187632 -0.161148E-04  0.803E-03    2.34       2.9  T
   5    -41.6187638 -0.575086E-06  0.444E-03    2.35       5.3  T
   6    -41.6187638 -0.508203E-07  0.307E-03    2.34       7.7  T
   7    -41.6187639 -0.430705E-07  0.188E-03    2.34      12.6  T
   8    -41.6187639 -0.191732E-07  0.117E-03    2.34      20.2  T
   9    -41.6187639 -0.876440E-08  0.582E-04    2.34      40.5  T
  10    -41.6187639 -0.152934E-08  0.201E-04    2.34     117.1  T
     SCC iter.                  ...        0 min,  0.007 sec
     gradient                   ...        0 min,  0.002 sec
 * total energy  :   -41.2280065 Eh     change       -0.9461296E-03 Eh
   gradient norm :     0.0124442 Eh/α   predicted    -0.6208891E-03 ( -34.38%)
   displ. norm   :     0.4115572 α      lambda       -0.1442447E-02
   maximum displ.:     0.2466518 α      in ANC's #1, #2, #3, ...

........................................................................
.............................. CYCLE    6 ..............................
........................................................................

 iter      E             dE          RMSdq      gap      omega  full diag
   1    -41.6120864 -0.416121E+02  0.263E-01    2.36       0.0  T
   2    -41.6121428 -0.564172E-04  0.160E-01    2.38       1.0  T
   3    -41.6120989  0.438678E-04  0.828E-02    2.39       1.0  T
   4    -41.6121656 -0.667026E-04  0.137E-02    2.38       1.7  T
   5    -41.6121669 -0.125829E-05  0.800E-03    2.39       2.9  T
   6    -41.6121670 -0.125179E-06  0.544E-03    2.38       4.3  T
   7    -41.6121672 -0.166231E-06  0.345E-03    2.38       6.8  T
   8    -41.6121672 -0.603677E-07  0.200E-03    2.38      11.8  T
   9    -41.6121673 -0.272045E-07  0.106E-03    2.38      22.3  T
  10    -41.6121673 -0.523243E-08  0.361E-04    2.38      65.2  T
  11    -41.6121673 -0.720540E-09  0.192E-04    2.38     122.6  T
     SCC iter.                  ...        0 min,  0.008 sec
     gradient                   ...        0 min,  0.002 sec
 * total energy  :   -41.2289706 Eh     change       -0.9641073E-03 Eh
   gradient norm :     0.0186199 Eh/α   predicted    -0.8433898E-03 ( -12.52%)
   displ. norm   :     0.2684817 α      lambda       -0.7866457E-03
   maximum displ.:     0.1666453 α      in ANC's #1, #2, #3, ...

........................................................................
.............................. CYCLE    7 ..............................
........................................................................

 iter      E             dE          RMSdq      gap      omega  full diag
   1    -41.6113086 -0.416113E+02  0.166E-01    2.40       0.0  T
   2    -41.6113265 -0.178929E-04  0.100E-01    2.41       1.0  T
   3    -41.6113095  0.169975E-04  0.512E-02    2.41       1.0  T
   4    -41.6113343 -0.247546E-04  0.744E-03    2.41       3.2  T
   5    -41.6113346 -0.282295E-06  0.440E-03    2.41       5.4  T
   6    -41.6113346 -0.379382E-07  0.295E-03    2.41       8.0  T
   7    -41.6113347 -0.436039E-07  0.192E-03    2.41      12.3  T
   8    -41.6113347 -0.197125E-07  0.112E-03    2.41      21.0  T
   9    -41.6113347 -0.687662E-08  0.679E-04    2.41      34.7  T
  10    -41.6113347 -0.295372E-08  0.194E-04    2.41     121.7  T
     SCC iter.                  ...        0 min,  0.007 sec
     gradient                   ...        0 min,  0.002 sec
 * total energy  :   -41.2296149 Eh     change       -0.6442996E-03 Eh
   gradient norm :     0.0207372 Eh/α   predicted    -0.4216743E-03 ( -34.55%)
   displ. norm   :     0.4047568 α      lambda       -0.1598493E-02
   maximum displ.:     0.2577168 α      in ANC's #1, #2, #3, ...

........................................................................
.............................. CYCLE    8 ..............................
........................................................................

 iter      E             dE          RMSdq      gap      omega  full diag
   1    -41.6156231 -0.416156E+02  0.248E-01    2.44       0.0  T
   2    -41.6156528 -0.297155E-04  0.150E-01    2.44       1.0  T
   3    -41.6156194  0.334088E-04  0.676E-02    2.45       1.0  T
   4    -41.6156644 -0.450635E-04  0.997E-03    2.44       2.4  T
   5    -41.6156649 -0.493677E-06  0.566E-03    2.44       4.2  T
   6    -41.6156650 -0.725044E-07  0.365E-03    2.44       6.5  T
   7    -41.6156650 -0.462676E-07  0.230E-03    2.44      10.3  T
   8    -41.6156651 -0.273611E-07  0.142E-03    2.44      16.6  T
   9    -41.6156651 -0.913738E-08  0.875E-04    2.44      26.9  T
  10    -41.6156651 -0.504968E-08  0.256E-04    2.44      92.0  T
     SCC iter.                  ...        0 min,  0.007 sec
     gradient                   ...        0 min,  0.002 sec
 * total energy  :   -41.2308710 Eh     change       -0.1256056E-02 Eh
   gradient norm :     0.0157981 Eh/α   predicted    -0.9301746E-03 ( -25.94%)
   displ. norm   :     0.5323364 α      lambda       -0.1583836E-02
   maximum displ.:     0.3497979 α      in ANC's #1, #2, #3, ...

........................................................................
.............................. CYCLE    9 ..............................
........................................................................

 iter      E             dE          RMSdq      gap      omega  full diag
   1    -41.6166666 -0.416167E+02  0.319E-01    2.48       0.0  T
   2    -41.6166824 -0.158329E-04  0.192E-01    2.49       1.0  T
   3    -41.6166576  0.248290E-04  0.519E-02    2.49       1.0  T
   4    -41.6166902 -0.325681E-04  0.111E-02    2.49       2.1  T
   5    -41.6166905 -0.337881E-06  0.752E-03    2.49       3.1  T
   6    -41.6166907 -0.165676E-06  0.437E-03    2.49       5.4  T
   7    -41.6166908 -0.842341E-07  0.284E-03    2.49       8.3  T
   8    -41.6166908 -0.364609E-07  0.172E-03    2.49      13.7  T
   9    -41.6166908 -0.205593E-07  0.726E-04    2.49      32.5  T
  10    -41.6166908 -0.326347E-08  0.246E-04    2.49      96.0  T
     SCC iter.                  ...        0 min,  0.007 sec
     gradient                   ...        0 min,  0.002 sec
 * total energy  :   -41.2319314 Eh     change       -0.1060432E-02 Eh
   gradient norm :     0.0189376 Eh/α   predicted    -0.1016337E-02 (  -4.16%)
   displ. norm   :     0.3782424 α      lambda       -0.2456358E-02
   maximum displ.:     0.2056278 α      in ANC's #1, #32, #3, ...

........................................................................
.............................. CYCLE   10 ..............................
........................................................................

 iter      E             dE          RMSdq      gap      omega  full diag
   1    -41.6324951 -0.416325E+02  0.263E-01    2.55       0.0  T
   2    -41.6325572 -0.621245E-04  0.163E-01    2.52       1.0  T
   3    -41.6324952  0.620673E-04  0.687E-02    2.48       1.0  T
   4    -41.6325784 -0.832341E-04  0.192E-02    2.50       1.2  T
   5    -41.6325811 -0.271967E-05  0.111E-02    2.50       2.1  T
   6    -41.6325814 -0.323401E-06  0.818E-03    2.50       2.9  T
   7    -41.6325818 -0.351344E-06  0.479E-03    2.50       4.9  T
   8    -41.6325819 -0.136434E-06  0.291E-03    2.50       8.1  T
   9    -41.6325820 -0.493014E-07  0.131E-03    2.50      18.0  T
  10    -41.6325820 -0.109361E-07  0.695E-04    2.50      33.9  T
  11    -41.6325820 -0.232756E-08  0.368E-04    2.50      64.1  T
     SCC iter.                  ...        0 min,  0.007 sec
     gradient                   ...        0 min,  0.002 sec
 * total energy  :   -41.2325329 Eh     change       -0.6015141E-03 Eh
   gradient norm :     0.0218420 Eh/α   predicted    -0.1403886E-02 ( 133.39%)
   displ. norm   :     0.4299513 α      lambda       -0.1585868E-02
   maximum displ.:     0.3020019 α      in ANC's #1, #3, #2, ...

........................................................................
.............................. CYCLE   11 ..............................
........................................................................

 iter      E             dE          RMSdq      gap      omega  full diag
   1    -41.6208670 -0.416209E+02  0.268E-01    2.51       0.0  T
   2    -41.6209003 -0.333206E-04  0.160E-01    2.52       1.0  T
   3    -41.6208982  0.212580E-05  0.334E-02    2.52       1.0  T
   4    -41.6209057 -0.749535E-05  0.988E-03    2.52       2.4  T
   5    -41.6209061 -0.441300E-06  0.667E-03    2.52       3.5  T
   6    -41.6209063 -0.135994E-06  0.345E-03    2.52       6.8  T
   7    -41.6209063 -0.581079E-07  0.222E-03    2.52      10.6  T
   8    -41.6209064 -0.214441E-07  0.146E-03    2.52      16.2  T
   9    -41.6209064 -0.100019E-07  0.806E-04    2.52      29.2  T
  10    -41.6209064 -0.578982E-08  0.326E-04    2.52      72.3  T
     SCC iter.                  ...        0 min,  0.007 sec
     gradient                   ...        0 min,  0.002 sec
 * total energy  :   -41.2331261 Eh     change       -0.5931924E-03 Eh
   gradient norm :     0.0168626 Eh/α   predicted    -0.9395112E-03 (  58.38%)
   displ. norm   :     0.1539361 α      lambda       -0.5138576E-03
   maximum displ.:     0.0827498 α      in ANC's #2, #3, #1, ...

........................................................................
.............................. CYCLE   12 ..............................
........................................................................

 iter      E             dE          RMSdq      gap      omega  full diag
   1    -41.6240570 -0.416241E+02  0.952E-02    2.49       0.0  T
   2    -41.6240697 -0.126392E-04  0.593E-02    2.51       1.0  T
   3    -41.6240677  0.191504E-05  0.244E-02    2.51       1.0  T
   4    -41.6240721 -0.437111E-05  0.671E-03    2.51       3.5  T
   5    -41.6240724 -0.322352E-06  0.407E-03    2.51       5.8  T
   6    -41.6240725 -0.569002E-07  0.247E-03    2.51       9.5  T
   7    -41.6240725 -0.254547E-07  0.160E-03    2.51      14.8  T
   8    -41.6240725 -0.108120E-07  0.920E-04    2.51      25.6  T
   9    -41.6240725 -0.689739E-08  0.467E-04    2.51      50.4  T
     SCC iter.                  ...        0 min,  0.006 sec
     gradient                   ...        0 min,  0.002 sec
 * total energy  :   -41.2333814 Eh     change       -0.2552601E-03 Eh
   gradient norm :     0.0074022 Eh/α   predicted    -0.2630172E-03 (   3.04%)
   displ. norm   :     0.1385913 α      lambda       -0.2671623E-03
   maximum displ.:     0.1063359 α      in ANC's #1, #4, #6, ...

........................................................................
.............................. CYCLE   13 ..............................
........................................................................

 iter      E             dE          RMSdq      gap      omega  full diag
   1    -41.6240275 -0.416240E+02  0.850E-02    2.52       0.0  T
   2    -41.6240307 -0.317848E-05  0.513E-02    2.51       1.0  T
   3    -41.6240291  0.158578E-05  0.130E-02    2.51       1.8  T
   4    -41.6240313 -0.223703E-05  0.435E-03    2.51       5.4  T
   5    -41.6240315 -0.150935E-06  0.296E-03    2.51       8.0  T
   6    -41.6240315 -0.354910E-07  0.203E-03    2.51      11.6  T
   7    -41.6240315 -0.202655E-07  0.106E-03    2.51      22.3  T
   8    -41.6240315 -0.631046E-08  0.614E-04    2.51      38.4  T
   9    -41.6240315 -0.130522E-08  0.299E-04    2.51      78.7  T
     SCC iter.                  ...        0 min,  0.006 sec
     gradient                   ...        0 min,  0.002 sec
 * total energy  :   -41.2335790 Eh     change       -0.1975827E-03 Eh
   gradient norm :     0.0052911 Eh/α   predicted    -0.1361472E-03 ( -31.09%)
   displ. norm   :     0.4169913 α      lambda       -0.4934166E-03
   maximum displ.:     0.3578463 α      in ANC's #1, #32, #3, ...

........................................................................
.............................. CYCLE   14 ..............................
........................................................................

 iter      E             dE          RMSdq      gap      omega  full diag
   1    -41.6228622 -0.416229E+02  0.230E-01    2.51       0.0  T
   2    -41.6228664 -0.420243E-05  0.137E-01    2.51       1.0  T
   3    -41.6228623  0.411686E-05  0.199E-02    2.50       1.2  T
   4    -41.6228690 -0.670175E-05  0.853E-03    2.51       2.8  T
   5    -41.6228692 -0.237025E-06  0.601E-03    2.51       3.9  T
   6    -41.6228694 -0.155703E-06  0.316E-03    2.51       7.5  T
   7    -41.6228694 -0.432820E-07  0.215E-03    2.51      11.0  T
   8    -41.6228695 -0.245113E-07  0.763E-04    2.51      30.9  T
   9    -41.6228695 -0.284228E-08  0.286E-04    2.51      82.6  T
     SCC iter.                  ...        0 min,  0.006 sec
     gradient                   ...        0 min,  0.002 sec
 * total energy  :   -41.2339054 Eh     change       -0.3264172E-03 Eh
   gradient norm :     0.0075046 Eh/α   predicted    -0.2896118E-03 ( -11.28%)
   displ. norm   :     0.2749963 α      lambda       -0.2496901E-03
   maximum displ.:     0.2394345 α      in ANC's #1, #32, #2, ...

........................................................................
.............................. CYCLE   15 ..............................
........................................................................

 iter      E             dE          RMSdq      gap      omega  full diag
   1    -41.6222248 -0.416222E+02  0.134E-01    2.51       0.0  T
   2    -41.6222310 -0.614732E-05  0.802E-02    2.51       1.0  T
   3    -41.6222259  0.511534E-05  0.225E-02    2.50       1.0  T
   4    -41.6222329 -0.706570E-05  0.664E-03    2.50       3.6  T
   5    -41.6222332 -0.254461E-06  0.479E-03    2.50       4.9  T
   6    -41.6222333 -0.852033E-07  0.269E-03    2.50       8.8  T
   7    -41.6222333 -0.407732E-07  0.165E-03    2.50      14.3  T
   8    -41.6222333 -0.119663E-07  0.881E-04    2.50      26.7  T
   9    -41.6222333 -0.479302E-08  0.288E-04    2.50      81.8  T
     SCC iter.                  ...        0 min,  0.006 sec
     gradient                   ...        0 min,  0.002 sec
 * total energy  :   -41.2340547 Eh     change       -0.1493719E-03 Eh
   gradient norm :     0.0079669 Eh/α   predicted    -0.1342862E-03 ( -10.10%)
   displ. norm   :     0.2980596 α      lambda       -0.2855628E-03
   maximum displ.:     0.2509173 α      in ANC's #1, #4, #32, ...

........................................................................
.............................. CYCLE   16 ..............................
........................................................................

 iter      E             dE          RMSdq      gap      omega  full diag
   1    -41.6244981 -0.416245E+02  0.135E-01    2.50       0.0  T
   2    -41.6245017 -0.359081E-05  0.810E-02    2.50       1.0  T
   3    -41.6244999  0.185935E-05  0.167E-02    2.50       1.4  T
   4    -41.6245030 -0.312232E-05  0.575E-03    2.50       4.1  T
   5    -41.6245031 -0.956040E-07  0.441E-03    2.50       5.3  T
   6    -41.6245032 -0.917331E-07  0.224E-03    2.50      10.5  T
   7    -41.6245032 -0.270436E-07  0.137E-03    2.50      17.2  T
   8    -41.6245032 -0.664763E-08  0.667E-04    2.50      35.3  T
   9    -41.6245032 -0.436339E-08  0.220E-04    2.50     107.3  T
     SCC iter.                  ...        0 min,  0.006 sec
     gradient                   ...        0 min,  0.002 sec
 * total energy  :   -41.2342041 Eh     change       -0.1493356E-03 Eh
   gradient norm :     0.0055559 Eh/α   predicted    -0.1554593E-03 (   4.10%)
   displ. norm   :     0.1461216 α      lambda       -0.1745073E-03
   maximum displ.:     0.0961640 α      in ANC's #1, #2, #3, ...

........................................................................
.............................. CYCLE   17 ..............................
........................................................................

 iter      E             dE          RMSdq      gap      omega  full diag
   1    -41.6267979 -0.416268E+02  0.660E-02    2.50       0.0  T
   2    -41.6268024 -0.454869E-05  0.390E-02    2.49       1.0  T
   3    -41.6268020  0.454468E-06  0.153E-02    2.49       1.5  T
   4    -41.6268030 -0.107953E-05  0.537E-03    2.49       4.4  T
   5    -41.6268033 -0.217118E-06  0.324E-03    2.49       7.3  T
   6    -41.6268033 -0.376169E-07  0.173E-03    2.49      13.7  T
   7    -41.6268033 -0.139612E-07  0.109E-03    2.49      21.6  T
   8    -41.6268033 -0.863840E-08  0.570E-04    2.49      41.4  T
   9    -41.6268033 -0.138541E-08  0.227E-04    2.49     104.0  T
     SCC iter.                  ...        0 min,  0.006 sec
     gradient                   ...        0 min,  0.002 sec
 * total energy  :   -41.2342597 Eh     change       -0.5563024E-04 Eh
   gradient norm :     0.0084011 Eh/α   predicted    -0.8911812E-04 (  60.20%)
   displ. norm   :     0.2388590 α      lambda       -0.1497467E-03
   maximum displ.:     0.2111658 α      in ANC's #1, #32, #2, ...

........................................................................
.............................. CYCLE   18 ..............................
........................................................................

 iter      E             dE          RMSdq      gap      omega  full diag
   1    -41.6240090 -0.416240E+02  0.109E-01    2.50       0.0  T
   2    -41.6240134 -0.435700E-05  0.657E-02    2.49       1.0  T
   3    -41.6240126  0.779965E-06  0.140E-02    2.49       1.7  T
   4    -41.6240145 -0.193164E-05  0.524E-03    2.49       4.5  T
   5    -41.6240146 -0.565494E-07  0.395E-03    2.49       6.0  T
   6    -41.6240147 -0.674532E-07  0.232E-03    2.49      10.1  T
   7    -41.6240147 -0.316969E-07  0.144E-03    2.49      16.4  T
   8    -41.6240147 -0.116109E-07  0.555E-04    2.49      42.4  T
   9    -41.6240147 -0.150416E-08  0.295E-04    2.49      80.0  T
     SCC iter.                  ...        0 min,  0.006 sec
     gradient                   ...        0 min,  0.002 sec
 * total energy  :   -41.2343400 Eh     change       -0.8033327E-04 Eh
   gradient norm :     0.0068307 Eh/α   predicted    -0.7914408E-04 (  -1.48%)
   displ. norm   :     0.0669675 α      lambda       -0.1005124E-03
   maximum displ.:     0.0410983 α      in ANC's #1, #3, #6, ...

........................................................................
.............................. CYCLE   19 ..............................
........................................................................

 iter      E             dE          RMSdq      gap      omega  full diag
   1    -41.6250979 -0.416251E+02  0.337E-02    2.49       0.0  T
   2    -41.6251000 -0.206031E-05  0.203E-02    2.49       1.2  T
   3    -41.6250999  0.459624E-07  0.865E-03    2.49       2.7  T
   4    -41.6251002 -0.294517E-06  0.245E-03    2.49       9.6  T
   5    -41.6251003 -0.594123E-07  0.156E-03    2.49      15.1  T
   6    -41.6251003 -0.820114E-08  0.113E-03    2.49      20.8  T
   7    -41.6251003 -0.842820E-08  0.639E-04    2.49      36.9  T
   8    -41.6251003 -0.247215E-08  0.368E-04    2.49      64.1  T
     SCC iter.                  ...        0 min,  0.005 sec
     gradient                   ...        0 min,  0.002 sec
 * total energy  :   -41.2343971 Eh     change       -0.5706181E-04 Eh
   gradient norm :     0.0043621 Eh/α   predicted    -0.5048295E-04 ( -11.53%)
   displ. norm   :     0.1373133 α      lambda       -0.8454562E-04
   maximum displ.:     0.1001379 α      in ANC's #1, #3, #6, ...

........................................................................
.............................. CYCLE   20 ..............................
........................................................................

 iter      E             dE          RMSdq      gap      omega  full diag
   1    -41.6248972 -0.416249E+02  0.506E-02    2.49       0.0  T
   2    -41.6248982 -0.103920E-05  0.306E-02    2.49       1.0  T
   3    -41.6248971  0.109898E-05  0.947E-03    2.49       2.5  T
   4    -41.6248986 -0.144148E-05  0.287E-03    2.49       8.2  T
   5    -41.6248986 -0.587265E-07  0.202E-03    2.49      11.7  T
   6    -41.6248986 -0.139322E-07  0.128E-03    2.49      18.4  T
   7    -41.6248986 -0.954996E-08  0.732E-04    2.49      32.2  T
   8    -41.6248986 -0.288291E-08  0.402E-04    2.49      58.6  T
     SCC iter.                  ...        0 min,  0.005 sec
     gradient                   ...        0 min,  0.002 sec
 * total energy  :   -41.2344533 Eh     change       -0.5621127E-04 Eh
   gradient norm :     0.0030134 Eh/α   predicted    -0.4306805E-04 ( -23.38%)
   displ. norm   :     0.1793893 α      lambda       -0.5922282E-04
   maximum displ.:     0.1333066 α      in ANC's #1, #3, #2, ...
 * RMSD in coord.:     0.9725705 α      energy gain  -0.1764355E-01 Eh

generating ANC from exact Hessian ...
Using Lindh-Hessian (1995)
 Shifting diagonal of input Hessian by    8.1361226700388464E-003
 Lowest  eigenvalues of input Hessian
    0.000000    0.000000    0.000000    0.000000    0.000000    0.000000
    0.010000    0.013009    0.013860    0.014482    0.017137    0.020272
    0.022144    0.026182    0.034652    0.039824    0.053504    0.056428
 Highest eigenvalues
    1.676695    1.771893    1.882496    2.003134    2.077612    2.467148


........................................................................
.............................. CYCLE   21 ..............................
........................................................................

 iter      E             dE          RMSdq      gap      omega  full diag
   1    -41.6245391 -0.416245E+02  0.643E-02    2.48       0.0  T
   2    -41.6245406 -0.143666E-05  0.387E-02    2.48       1.0  T
   3    -41.6245382  0.235917E-05  0.134E-02    2.49       1.8  T
   4    -41.6245413 -0.307512E-05  0.409E-03    2.48       5.8  T
   5    -41.6245414 -0.836997E-07  0.300E-03    2.48       7.9  T
   6    -41.6245414 -0.393902E-07  0.143E-03    2.48      16.5  T
   7    -41.6245414 -0.114502E-07  0.890E-04    2.48      26.5  T
   8    -41.6245414 -0.352597E-08  0.330E-04    2.48      71.5  T
     SCC iter.                  ...        0 min,  0.006 sec
     gradient                   ...        0 min,  0.002 sec
 * total energy  :   -41.2344880 Eh     change       -0.3466872E-04 Eh
   gradient norm :     0.0028781 Eh/α   predicted     0.0000000E+00 (-100.00%)
   displ. norm   :     0.0252206 α      lambda       -0.2556114E-04
   maximum displ.:     0.0133345 α      in ANC's #6, #2, #3, ...

........................................................................
.............................. CYCLE   22 ..............................
........................................................................

 iter      E             dE          RMSdq      gap      omega  full diag
   1    -41.6251233 -0.416251E+02  0.188E-02    2.48       0.0  T
   2    -41.6251236 -0.291319E-06  0.113E-02    2.48       2.1  T
   3    -41.6251234  0.193798E-06  0.505E-03    2.48       4.7  T
   4    -41.6251237 -0.291140E-06  0.131E-03    2.48      18.0  T
   5    -41.6251237 -0.137597E-07  0.884E-04    2.48      26.7  T
   6    -41.6251237 -0.296387E-08  0.624E-04    2.48      37.8  T
     SCC iter.                  ...        0 min,  0.004 sec
     gradient                   ...        0 min,  0.002 sec
 * total energy  :   -41.2345027 Eh     change       -0.1474388E-04 Eh
   gradient norm :     0.0016699 Eh/α   predicted    -0.1278891E-04 ( -13.26%)
   displ. norm   :     0.0683587 α      lambda       -0.2954495E-04
   maximum displ.:     0.0419690 α      in ANC's #2, #6, #11, ...

........................................................................
.............................. CYCLE   23 ..............................
........................................................................

 iter      E             dE          RMSdq      gap      omega  full diag
   1    -41.6261163 -0.416261E+02  0.449E-02    2.48       0.0  T
   2    -41.6261180 -0.168458E-05  0.271E-02    2.48       1.0  T
   3    -41.6261162  0.178314E-05  0.138E-02    2.47       1.7  T
   4    -41.6261189 -0.268112E-05  0.283E-03    2.48       8.3  T
   5    -41.6261190 -0.456484E-07  0.202E-03    2.47      11.7  T
   6    -41.6261190 -0.135826E-07  0.146E-03    2.47      16.2  T
   7    -41.6261190 -0.127205E-07  0.869E-04    2.48      27.1  T
   8    -41.6261190 -0.512832E-08  0.478E-04    2.48      49.3  T
     SCC iter.                  ...        0 min,  0.005 sec
     gradient                   ...        0 min,  0.002 sec
 * total energy  :   -41.2344957 Eh     change        0.7073661E-05 Eh
   gradient norm :     0.0040936 Eh/α   predicted    -0.1480353E-04 (-309.28%)
   displ. norm   :     0.0145795 α      lambda       -0.3177221E-04
   maximum displ.:     0.0060626 α      in ANC's #5, #2, #15, ...

........................................................................
.............................. CYCLE   24 ..............................
........................................................................

 iter      E             dE          RMSdq      gap      omega  full diag
   1    -41.6256632 -0.416257E+02  0.151E-02    2.48       0.0  T
   2    -41.6256634 -0.187188E-06  0.886E-03    2.48       2.7  T
   3    -41.6256633  0.121868E-06  0.387E-03    2.48       6.1  T
   4    -41.6256635 -0.169833E-06  0.935E-04    2.48      25.2  T
   5    -41.6256635 -0.109610E-07  0.553E-04    2.48      42.6  T
     SCC iter.                  ...        0 min,  0.003 sec
     gradient                   ...        0 min,  0.002 sec
 * total energy  :   -41.2345184 Eh     change       -0.2275028E-04 Eh
   gradient norm :     0.0019394 Eh/α   predicted    -0.1588795E-04 ( -30.16%)
   displ. norm   :     0.0397348 α      lambda       -0.1503874E-04
   maximum displ.:     0.0275605 α      in ANC's #2, #5, #6, ...

........................................................................
.............................. CYCLE   25 ..............................
........................................................................

 iter      E             dE          RMSdq      gap      omega  full diag
   1    -41.6249166 -0.416249E+02  0.254E-02    2.48       0.0  T
   2    -41.6249171 -0.518516E-06  0.148E-02    2.48       1.6  T
   3    -41.6249169  0.181291E-06  0.544E-03    2.48       4.3  T
   4    -41.6249172 -0.271456E-06  0.145E-03    2.48      16.3  T
   5    -41.6249172 -0.250266E-07  0.846E-04    2.48      27.9  T
   6    -41.6249172 -0.235011E-08  0.591E-04    2.48      39.9  T
     SCC iter.                  ...        0 min,  0.004 sec
     gradient                   ...        0 min,  0.002 sec
 * total energy  :   -41.2345276 Eh     change       -0.9236202E-05 Eh
   gradient norm :     0.0012365 Eh/α   predicted    -0.7525635E-05 ( -18.52%)
   displ. norm   :     0.0231282 α      lambda       -0.3560343E-05
   maximum displ.:     0.0162430 α      in ANC's #2, #6, #1, ...

........................................................................
.............................. CYCLE   26 ..............................
........................................................................

 iter      E             dE          RMSdq      gap      omega  full diag
   1    -41.6250666 -0.416251E+02  0.107E-02    2.48       0.0  T
   2    -41.6250666 -0.181350E-07  0.629E-03    2.48       3.7  T
   3    -41.6250666  0.279141E-07  0.138E-03    2.48      17.1  T
   4    -41.6250666 -0.379362E-07  0.369E-04    2.48      63.8  T
   5    -41.6250666 -0.529319E-09  0.244E-04    2.48      96.7  T
     SCC iter.                  ...        0 min,  0.003 sec
     gradient                   ...        0 min,  0.002 sec
 * total energy  :   -41.2345319 Eh     change       -0.4277157E-05 Eh
   gradient norm :     0.0006722 Eh/α   predicted    -0.1780194E-05 ( -58.38%)
   displ. norm   :     0.0487622 α      lambda       -0.4034741E-05
   maximum displ.:     0.0320787 α      in ANC's #2, #6, #1, ...

   *** GEOMETRY OPTIMIZATION CONVERGED AFTER 26 ITERATIONS ***

------------------------------------------------------------------------
 total energy gain   :        -0.0177222 Eh      -11.1208 kcal/mol
 total RMSD          :         0.9707839 a0        0.5137 Å
 total power (kW/mol):        -1.7895968 (step) -180.9219 (real)
------------------------------------------------------------------------

 ANCopt (total)                0 d,  0 h,  0 min,  0.257 sec
 optimizer setup                ...        0 min,  0.000 sec (  0.024%)
 model hessian                  ...        0 min,  0.005 sec (  2.098%)
 ANC generation                 ...        0 min,  0.001 sec (  0.198%)
 coordinate transformation      ...        0 min,  0.000 sec (  0.057%)
 single point calculation       ...        0 min,  0.246 sec ( 95.523%)
 optimization log               ...        0 min,  0.001 sec (  0.576%)
 hessian update                 ...        0 min,  0.000 sec (  0.129%)
 rational function              ...        0 min,  0.003 sec (  1.033%)

================
 final structure:
================
18
 xtb: 6.7.1 (edcfbbe)
Cl           3.09086641905097       -1.09056128847936       -0.62617814991967
C            1.45219599264208       -0.62991296260075       -0.29244236839536
C            1.16150817689448        0.72844555412663       -0.11757153291305
C           -0.16048208481513        1.09830466324758        0.14880953482070
C           -0.69092041352108        2.59420981999946        0.34340857994980
O           -0.68984620116998        2.98290687150591        1.50922249794051
O           -1.02889573983743        3.13555508990469       -0.70759535125740
C           -1.10966373978626        0.08979591949003        0.22951008562237
C           -0.81893653227914       -1.25370594581539        0.05866623489952
C            0.48823728226355       -1.61425791780346       -0.20908637629002
Cl          -2.74861051708952        0.52592017438047        0.56191568813354
O            2.23493612559390        1.55452628333915       -0.22817243615239
C            2.06831379409593        2.94514434973149       -0.05704224095794
H           -1.59822118933061       -1.99539693045765        0.13359571927551
H            0.76363763622817       -2.64787187748823       -0.35176416078184
H            1.67295388306513        3.18044990681890        0.93324556878009
H            3.06683935868105        3.36926047326048       -0.17078121681564
H            1.39716774931400        3.36192781684030       -0.81096007593846

 Bond Distances (Angstroems)
 ---------------------------
Cl1-C2=1.7346        C2-Cl1=1.7346        C2-C3=1.4001         C2-C10=1.3803        C3-C2=1.4001         C3-C4=1.3984         
C3-O12=1.3590        C4-C3=1.3984         C4-C5=1.5991         C4-C8=1.3873         C5-C4=1.5991         C5-O6=1.2289         
C5-O7=1.2296         O6-C5=1.2289         O7-C5=1.2296         C8-C4=1.3873         C8-C9=1.3852         C8-Cl11=1.7282       
C9-C8=1.3852         C9-C10=1.3822        C9-H14=1.0784        C10-C2=1.3803        C10-C9=1.3822        C10-H15=1.0791       
Cl11-C8=1.7282       O12-C3=1.3590        O12-C13=1.4110       C13-O12=1.4110       C13-H16=1.0919       C13-H17=1.0908       
C13-H18=1.0920       H14-C9=1.0784        H15-C10=1.0791       H16-C13=1.0919       H17-C13=1.0908       H18-C13=1.0920       
 C  H  Rav=1.0865 sigma=0.0063  Rmin=1.0784  Rmax=1.0920     5
 C  C  Rav=1.4189 sigma=0.0739  Rmin=1.3803  Rmax=1.5991     7
 O  C  Rav=1.3071 sigma=0.0800  Rmin=1.2289  Rmax=1.4110     4
 Cl C  Rav=1.7314 sigma=0.0032  Rmin=1.7282  Rmax=1.7346     2

 selected bond angles (degree)
 --------------------
C3-C2-Cl1=118.54               C10-C2-Cl1=118.82              C10-C2-C3=122.64               C4-C3-C2=118.47                
O12-C3-C2=114.56               O12-C3-C4=126.97               C5-C4-C3=125.75                C8-C4-C3=117.75                
C8-C4-C5=116.49                O6-C5-C4=114.27                O7-C5-C4=113.52                O7-C5-O6=132.21                
C9-C8-C4=123.66                Cl11-C8-C4=118.46              Cl11-C8-C9=117.87              C10-C9-C8=118.39               
H14-C9-C8=120.45               H14-C9-C10=121.16              C9-C10-C2=119.09               H15-C10-C2=119.79              
H15-C10-C9=121.12              

 selected dihedral angles (degree)
 ---------------------------------
C4-C3-C2-Cl1=179.88           C4-C3-C2-C10=359.84           O12-C3-C2-Cl1=359.73          O12-C3-C2-C10=179.70          
C5-C4-C3-C2=181.52            C5-C4-C3-O12=  1.68           C8-C4-C3-C2=  0.25            C8-C4-C3-O12=180.41           
O6-C5-C4-C3=268.19            O6-C5-C4-C8= 89.44            O7-C5-C4-C3= 88.49            O7-C5-C4-C8=269.74            
C9-C8-C4-C3=359.87            C9-C8-C4-C5=178.72            Cl11-C8-C4-C3=179.85          Cl11-C8-C4-C5=358.70          
C10-C9-C8-C4=359.91           C10-C9-C8-Cl11=179.93         H14-C9-C8-C4=179.94           H14-C9-C8-Cl11=359.96         
C9-C10-C2-Cl1=179.90          C9-C10-C2-C3=359.94           H15-C10-C2-Cl1=359.97         H15-C10-C2-C3=180.00          
C2-C10-C9-C8=  0.18           C2-C10-C9-H14=180.16          H15-C10-C9-C8=180.12          H15-C10-C9-H14=  0.09         
           -------------------------------------------------
          |                Final Singlepoint                |
           -------------------------------------------------

          ...................................................
          :                      SETUP                      :
          :.................................................:
          :  # basis functions                  69          :
          :  # atomic orbitals                  67          :
          :  # shells                           33          :
          :  # electrons                        70          :
          :  max. iterations                   250          :
          :  Hamiltonian                  GFN2-xTB          :
          :  restarted?                      false          :
          :  GBSA solvation                  false          :
          :  PC potential                    false          :
          :  electronic temp.          300.0000000     K    :
          :  accuracy                    1.0000000          :
          :  -> integral cutoff          0.2500000E+02      :
          :  -> integral neglect         0.1000000E-07      :
          :  -> SCF convergence          0.1000000E-05 Eh   :
          :  -> wf. convergence          0.1000000E-03 e    :
          :  Broyden damping             0.4000000          :
          :  net charge                         -1          :
          :  unpaired electrons                  0          :
          ...................................................

 iter      E             dE          RMSdq      gap      omega  full diag
   1    -41.6250666 -0.416251E+02  0.110E-04    2.48       0.0  T
   2    -41.6250666 -0.352216E-10  0.885E-05    2.48     266.2  T
   3    -41.6250666 -0.180336E-10  0.716E-05    2.48     329.3  T

   *** convergence criteria satisfied after 3 iterations ***

         #    Occupation            Energy/Eh            Energy/eV
      -------------------------------------------------------------
         1        2.0000           -0.9522385             -25.9117
       ...           ...                  ...                  ...
        29        2.0000           -0.3133839              -8.5276
        30        2.0000           -0.2941910              -8.0053
        31        2.0000           -0.2773427              -7.5469
        32        2.0000           -0.2683280              -7.3016
        33        2.0000           -0.2427223              -6.6048
        34        2.0000           -0.2301408              -6.2625
        35        2.0000           -0.2115064              -5.7554 (HOMO)
        36                         -0.1205024              -3.2790 (LUMO)
        37                         -0.1133859              -3.0854
        38                         -0.0403405              -1.0977
        39                         -0.0218221              -0.5938
        40                         -0.0092097              -0.2506
       ...                                ...                  ...
        67                          0.8775007              23.8780
      -------------------------------------------------------------
                  HL-Gap            0.0910039 Eh            2.4763 eV
             Fermi-level           -0.1660044 Eh           -4.5172 eV

 SCC (total)                   0 d,  0 h,  0 min,  0.006 sec
 SCC setup                      ...        0 min,  0.000 sec (  1.033%)
 Dispersion                     ...        0 min,  0.000 sec (  0.994%)
 classical contributions        ...        0 min,  0.000 sec (  0.161%)
 integral evaluation            ...        0 min,  0.001 sec ( 17.869%)
 iterations                     ...        0 min,  0.002 sec ( 37.021%)
 molecular gradient             ...        0 min,  0.002 sec ( 41.394%)
 printout                       ...        0 min,  0.000 sec (  1.281%)

         :::::::::::::::::::::::::::::::::::::::::::::::::::::
         ::                     SUMMARY                     ::
         :::::::::::::::::::::::::::::::::::::::::::::::::::::
         :: total energy             -41.234531917466 Eh    ::
         :: gradient norm              0.000672608538 Eh/a0 ::
         :: HOMO-LUMO gap              2.476343300778 eV    ::
         ::.................................................::
         :: SCC energy               -41.624939167081 Eh    ::
         :: -> isotropic ES            0.191997150984 Eh    ::
         :: -> anisotropic ES         -0.002901173467 Eh    ::
         :: -> anisotropic XC         -0.002491422854 Eh    ::
         :: -> dispersion             -0.021842158544 Eh    ::
         :: repulsion energy           0.390407249615 Eh    ::
         :: add. restraining           0.000000000000 Eh    ::
         :: total charge              -1.000000000000 e     ::
         :::::::::::::::::::::::::::::::::::::::::::::::::::::

           -------------------------------------------------
          |                Property Printout                |
           -------------------------------------------------

    * Orbital Energies and Occupations

         #    Occupation            Energy/Eh            Energy/eV
      -------------------------------------------------------------
         1        2.0000           -0.9522385             -25.9117
       ...           ...                  ...                  ...
        23        2.0000           -0.3550299              -9.6609
        24        2.0000           -0.3462973              -9.4232
        25        2.0000           -0.3423184              -9.3150
        26        2.0000           -0.3346834              -9.1072
        27        2.0000           -0.3269176              -8.8959
        28        2.0000           -0.3135199              -8.5313
        29        2.0000           -0.3133839              -8.5276
        30        2.0000           -0.2941910              -8.0053
        31        2.0000           -0.2773427              -7.5469
        32        2.0000           -0.2683280              -7.3016
        33        2.0000           -0.2427223              -6.6048
        34        2.0000           -0.2301408              -6.2625
        35        2.0000           -0.2115064              -5.7554 (HOMO)
        36                         -0.1205024              -3.2790 (LUMO)
        37                         -0.1133859              -3.0854
        38                         -0.0403405              -1.0977
        39                         -0.0218221              -0.5938
        40                         -0.0092097              -0.2506
        41                          0.0063567               0.1730
        42                          0.1224317               3.3315
        43                          0.1257049               3.4206
        44                          0.1272672               3.4631
        45                          0.1374594               3.7405
        46                          0.1406992               3.8286
       ...                                ...                  ...
        67                          0.8775007              23.8780
      -------------------------------------------------------------
                  HL-Gap            0.0910039 Eh            2.4763 eV
             Fermi-level           -0.1660044 Eh           -4.5172 eV

     #   Z          covCN         q      C6AA      α(0)
     1  17 Cl       0.970    -0.206   105.667    15.726
     2   6 C        2.890     0.057    26.722     8.475
     3   6 C        2.898     0.139    24.961     8.192
     4   6 C        2.995    -0.073    29.819     8.958
     5   6 C        2.680     0.394    20.346     7.381
     6   8 O        0.856    -0.562    25.200     6.730
     7   8 O        0.856    -0.562    25.207     6.731
     8   6 C        2.896     0.094    25.915     8.347
     9   6 C        2.964    -0.062    29.537     8.914
    10   6 C        2.960    -0.053    29.309     8.880
    11  17 Cl       0.984    -0.185   104.985    15.676
    12   8 O        1.706    -0.263    18.353     5.784
    13   6 C        3.640     0.041    20.240     6.469
    14   1 H        0.926     0.043     2.407     2.426
    15   1 H        0.926     0.041     2.430     2.438
    16   1 H        0.924     0.059     2.207     2.323
    17   1 H        0.924     0.038     2.473     2.459
    18   1 H        0.924     0.060     2.202     2.320

 Mol. C6AA /au·bohr⁶  :       6869.946119
 Mol. C8AA /au·bohr⁸  :     194347.531054
 Mol. α(0) /au        :        128.230715


Wiberg/Mayer (AO) data.
largest (>0.10) Wiberg bond orders for each atom

 ---------------------------------------------------------------------------
     #   Z sym  total        # sym  WBO       # sym  WBO       # sym  WBO
 ---------------------------------------------------------------------------
     1  17 Cl   1.063 --     2 C    0.943
     2   6 C    3.900 --    10 C    1.418     3 C    1.325     1 Cl   0.943
     3   6 C    3.940 --     4 C    1.333     2 C    1.325    12 O    1.077
     4   6 C    3.927 --     8 C    1.398     3 C    1.333     5 C    0.810
     5   6 C    3.943 --     6 O    1.550     7 O    1.546     4 C    0.810
     6   8 O    1.897 --     5 C    1.550     7 O    0.238
     7   8 O    1.898 --     5 C    1.546     6 O    0.238
     8   6 C    3.916 --     4 C    1.398     9 C    1.395    11 Cl   0.962
     9   6 C    3.986 --    10 C    1.425     8 C    1.395    14 H    0.968
    10   6 C    3.987 --     9 C    1.425     2 C    1.418    15 H    0.968
    11  17 Cl   1.097 --     8 C    0.962
    12   8 O    2.245 --     3 C    1.077    13 C    0.974
    13   6 C    3.937 --    17 H    0.982    12 O    0.974    16 H    0.974
                            18 H    0.973
    14   1 H    0.998 --     9 C    0.968
    15   1 H    0.997 --    10 C    0.968
    16   1 H    0.996 --    13 C    0.974
    17   1 H    0.998 --    13 C    0.982
    18   1 H    0.996 --    13 C    0.973
 ---------------------------------------------------------------------------

Topologies differ in total number of bonds
Writing topology from bond orders to xtbtopo.mol

molecular dipole:
                 x           y           z       tot (Debye)
 q only:        0.949      -3.966      -0.483
   full:        1.014      -3.719      -0.477       9.871
molecular quadrupole (traceless):
                xx          xy          yy          xz          yz          zz
 q only:       -0.019      19.586     -13.238       4.418      -5.611      13.257
  q+dip:       -1.980      21.092     -11.944       5.101      -5.843      13.924
   full:       -1.280      20.962     -13.400       5.117      -5.998      14.680

           -------------------------------------------------
          |                Geometry Summary                 |
           -------------------------------------------------

      molecular mass/u    :      220.0296809
   center of mass at/Å    :        0.2474482       0.7071503       0.0358134
  moments of inertia/u·Å² :        0.5452659E+03   0.9976213E+03   0.1458801E+04
rotational constants/cm⁻¹ :        0.3091635E-01   0.1689783E-01   0.1155582E-01

 * 17 selected distances

     #   Z          #   Z                                           value/Å
     1  17 Cl       2   6 C                                       1.7345944 (max)
     2   6 C        3   6 C                                       1.4000777
     3   6 C        4   6 C                                       1.3983609
     5   6 C        6   8 O                                       1.2289056
     5   6 C        7   8 O                                       1.2295900
     4   6 C        8   6 C                                       1.3872810
     8   6 C        9   6 C                                       1.3851742
     2   6 C       10   6 C                                       1.3802536
     9   6 C       10   6 C                                       1.3821696
     8   6 C       11  17 Cl                                      1.7282491
     3   6 C       12   8 O                                       1.3590033
    12   8 O       13   6 C                                       1.4109810
     9   6 C       14   1 H                                       1.0784270 (min)
    10   6 C       15   1 H                                       1.0791480
    13   6 C       16   1 H                                       1.0919470
    13   6 C       17   1 H                                       1.0908091
    13   6 C       18   1 H                                       1.0920338

 * 4 distinct bonds (by element types)

   Z      Z             #   av. dist./Å        max./Å        min./Å
   1 H    6 C           5     1.0864730     1.0920338     1.0784270
   6 C    6 C           6     1.3888862     1.4000777     1.3802536
   6 C    8 O           4     1.3071200     1.4109810     1.2289056
   6 C   17 Cl          2     1.7314218     1.7345944     1.7282491


optimized geometry written to: xtbopt.xyz


           -------------------------------------------------
          | TOTAL ENERGY              -41.234531917466 Eh   |
          | GRADIENT NORM               0.000672608538 Eh/α |
          | HOMO-LUMO GAP               2.476343300778 eV   |
           -------------------------------------------------

------------------------------------------------------------------------
 * finished run on 2024/12/20 at 01:53:01.522     
------------------------------------------------------------------------
 total:
 * wall-time:     0 d,  0 h,  0 min,  0.299 sec
 *  cpu-time:     0 d,  0 h,  0 min,  2.369 sec
 * ratio c/w:     7.918 speedup
 SCF:
 * wall-time:     0 d,  0 h,  0 min,  0.020 sec
 *  cpu-time:     0 d,  0 h,  0 min,  0.152 sec
 * ratio c/w:     7.645 speedup
 ANC optimizer:
 * wall-time:     0 d,  0 h,  0 min,  0.264 sec
 *  cpu-time:     0 d,  0 h,  0 min,  2.103 sec
 * ratio c/w:     7.981 speedup

