18
 energy: -41.216809761340 gnorm: 0.098929639795 xtb: 6.7.1 (edcfbbe)
Cl           3.02733000000000       -0.83158000000000       -1.01952000000000
C            1.42116000000000       -0.43966000000000       -0.50675000000000
C            0.97001000000000        0.88885000000000       -0.44942000000000
C           -0.35054000000000        1.16691000000000       -0.04409000000000
C           -0.87633000000000        2.55715000000000       -0.02163000000000
O           -0.68080000000000        3.21132000000000        1.04934000000000
O           -1.46400000000000        2.96355000000000       -1.06924000000000
C           -1.18166000000000        0.10193000000000        0.33394000000000
C           -0.71383000000000       -1.21729000000000        0.29439000000000
C            0.58475000000000       -1.48944000000000       -0.12898000000000
Cl          -2.81171000000000        0.33319000000000        0.86804000000000
O            1.84075000000000        1.86407000000000       -0.87298000000000
C            2.20898000000000        2.75920000000000        0.17693000000000
H           -1.36551000000000       -2.03532000000000        0.58854000000000
H            0.93690000000000       -2.51558000000000       -0.16386000000000
H            2.00191000000000        2.36813000000000        1.18004000000000
H            3.28841000000000        2.92611000000000        0.10406000000000
H            1.71526000000000        3.72320000000000        0.02797000000000
18
 energy: -41.223465587235 gnorm: 0.050371819474 xtb: 6.7.1 (edcfbbe)
Cl           3.01730744943482       -0.82239656683507       -1.01535945843251
C            1.40772990365892       -0.45376250138926       -0.50020573871181
C            0.97106868426462        0.87091865773447       -0.45397182444889
C           -0.33891946170731        1.15431710541969       -0.04583339619542
C           -0.86665924180075        2.57833980325622       -0.01792927969690
O           -0.68829125022405        3.20300216918889        1.04874310200616
O           -1.46277984221563        2.95786055704156       -1.04271757813717
C           -1.15749709449801        0.09163162822088        0.32752107829459
C           -0.71168396910650       -1.22378130277393        0.29055500478304
C            0.57517092613371       -1.49899959396891       -0.13228518311777
Cl          -2.78024440310707        0.36923080217485        0.84870277599789
O            1.85642523050408        1.84469491568357       -0.84619350787635
C            2.21118593043046        2.77238424189590        0.17286745476270
H           -1.36851668063171       -2.02891946535754        0.58831113794161
H            0.93180247937356       -2.51802716231322       -0.16630613095509
H            1.97682185870507        2.38498387734027        1.16537886665067
H            3.29274151425680        2.93483326692474        0.09728915041629
H            1.68541796652899        3.71842956775687        0.02821352671896
18
 energy: -41.225611260646 gnorm: 0.025795950656 xtb: 6.7.1 (edcfbbe)
Cl           3.00919766348340       -0.81798402170568       -1.01595103423405
C            1.39430598329839       -0.47401528401329       -0.49800995430137
C            0.97498365058240        0.85113134764056       -0.44696180780588
C           -0.32893591254465        1.13709953514077       -0.03505469396552
C           -0.89218636414786        2.59561161332794        0.00881039202015
O           -0.65111898308011        3.21428073342808        1.04429505009925
O           -1.41081029540566        2.96912719762473       -1.03706802355219
C           -1.13903913000539        0.07363778393173        0.32048496399118
C           -0.71511927244184       -1.24121798171040        0.28484295925799
C            0.56511626300502       -1.51857286174096       -0.14118311024833
Cl          -2.75313875921094        0.40341149634359        0.83316256681845
O            1.87896311941459        1.81622098723011       -0.81327057696721
C            2.19810637507225        2.78990098602281        0.17047362310030
H           -1.37951831332800       -2.03354949069033        0.58653992608327
H            0.92972714253074       -2.53128909597962       -0.17852727545265
H            1.95192965952615        2.42105211708079        1.16532564981124
H            3.27555157642352        2.96387280802709        0.09045951578505
H            1.64306559682799        3.71602213004208        0.00841182956033
18
 energy: -41.227060379935 gnorm: 0.021726045586 xtb: 6.7.1 (edcfbbe)
Cl           3.01033413195034       -0.84384194461572       -1.01805836057787
C            1.39539726061339       -0.49826673336735       -0.49820346084055
C            0.99936896543821        0.83409496396927       -0.43615920519423
C           -0.30062717508387        1.13393812870356       -0.02699335480727
C           -0.85221735844405        2.63196410063646        0.00891569094947
O           -0.68480031124644        3.20488022718862        1.07757393265272
O           -1.42607347349248        2.95759429099714       -1.01697195283663
C           -1.12303768302358        0.07562668991238        0.31319207299065
C           -0.72254943070414       -1.24723737656818        0.27731413239330
C            0.55627772068854       -1.53721701860706       -0.15028070405847
Cl          -2.73371749082093        0.44088147440582        0.81999532093946
O            1.92396899405844        1.78213381664248       -0.78957644387245
C            2.18784323773002        2.80342268875323        0.16675931830549
H           -1.39933151012519       -2.02910193860714        0.57948509957663
H            0.91737366125817       -2.55089620079629       -0.19260663612443
H            1.93589752634495        2.46270209231667        1.17227595192393
H            3.25899313084774        3.00494522435615        0.09430021439851
H            1.60797980401090        3.70911751467997       -0.03418161581825
18
 energy: -41.228006509494 gnorm: 0.012447880675 xtb: 6.7.1 (edcfbbe)
Cl           3.01080375406484       -0.87408693786229       -1.02289412921969
C            1.40092081579144       -0.51109433399370       -0.49597143246837
C            1.01479531475625        0.82699143666307       -0.41996852576299
C           -0.28577834301816        1.13307073226396       -0.01152830820293
C           -0.84694223485394        2.63575576402095        0.02235362904518
O           -0.67901227655348        3.21219824905714        1.09287497416346
O           -1.39771302448698        2.96122710829769       -1.02233708410888
C           -1.11986179909605        0.07776229232908        0.31946980845938
C           -0.72825492006117       -1.24995175086333        0.27211878811163
C            0.55141435604352       -1.54681441597861       -0.15639000764621
Cl          -2.73407433689002        0.44185653930060        0.81919195043475
O            1.94932277170679        1.76404552222553       -0.77311249224156
C            2.17683974765943        2.81490459364381        0.16400189616222
H           -1.41251683303869       -2.03063399091470        0.56448774853362
H            0.90299918488686       -2.56490504188906       -0.20995053226615
H            1.92350196580963        2.49651249952528        1.17798785837521
H            3.24393874344630        3.04407545761531        0.10014973331614
H            1.58069711383344        3.70382627655931       -0.07370387468479
18
 energy: -41.228970616774 gnorm: 0.018634562281 xtb: 6.7.1 (edcfbbe)
Cl           3.01032586720429       -0.93247030005724       -1.03025090869039
C            1.40867158008914       -0.53624219378691       -0.49483696326984
C            1.04514679984570        0.81153118176830       -0.38971890563127
C           -0.25342869641905        1.13017255121528        0.01972177255002
C           -0.83344703661164        2.64161855896455        0.04786739328751
O           -0.68234588965201        3.22264154301059        1.11994549446110
O           -1.33718369198302        2.96185191913112       -1.02760957101469
C           -1.11001839912425        0.08288469720837        0.32900984546474
C           -0.73817874833327       -1.25248163384117        0.26032259721091
C            0.53986041281385       -1.56331179916943       -0.17094422643681
Cl          -2.72697858118910        0.45019280103075        0.82236375875475
O            2.00374719957406        1.72654013088769       -0.73012129992888
C            2.15484276693401        2.83809626992677        0.15806273078302
H           -1.43662608720147       -2.02917449756398        0.53490560538362
H            0.87188544982004       -2.58911800569387       -0.24450870403815
H            1.89572157222424        2.56333353401366        1.18474707363479
H            3.21177168076414        3.12044392017771        0.10750299891231
H            1.52731380124437        3.68823132277783       -0.14967869143268
18
 energy: -41.229614916382 gnorm: 0.020755256427 xtb: 6.7.1 (edcfbbe)
Cl           3.01240468268850       -0.96874185448795       -1.02635064887639
C            1.41404211989231       -0.55027934331647       -0.49355537866018
C            1.06450787526816        0.80188014227359       -0.37111294906108
C           -0.23105289187907        1.12838285302537        0.04077195207276
C           -0.82143207627206        2.64144841318279        0.06505662787703
O           -0.69229003811269        3.22611810469299        1.13860008560786
O           -1.29780950188144        2.95824810425899       -1.02533563302743
C           -1.10264985501690        0.08777376147221        0.33401749547174
C           -0.74441931189393       -1.25128923998716        0.24932104354729
C            0.53208387508256       -1.57070290003831       -0.18192950600038
Cl          -2.71979392329641        0.45815087491520        0.82612442525274
O            2.03795507717306        1.70510632605554       -0.69493907708517
C            2.14075265533614        2.85132518689143        0.15160846698126
H           -1.45168239123593       -2.02505954719544        0.51140836601513
H            0.85035454085437       -2.60088647783626       -0.26621308234026
H            1.87452998255536        2.60642400827986        1.18355750343821
H            3.18827446769197        3.16622070779211        0.10482737885806
H            1.49730471304604        3.67062088002156       -0.19907707007113
18
 energy: -41.230870972324 gnorm: 0.015811771355 xtb: 6.7.1 (edcfbbe)
Cl           3.01811788976775       -1.01345903307781       -1.00831765902864
C            1.42123765462887       -0.56786763357935       -0.48926594207710
C            1.09152842833315        0.78698989772789       -0.34524626831935
C           -0.19873872059300        1.12528172353162        0.06944183111443
C           -0.79836809641540        2.63428878974854        0.09025992654976
O           -0.70871099615826        3.22399341374492        1.16452775362241
O           -1.24435025576986        2.94876560081674       -1.01094083220293
C           -1.09133218213756        0.09590177195886        0.33733271282991
C           -0.75374843174678       -1.24633927407488        0.22815794176703
C            0.51985767543466       -1.57745855308653       -0.20043722069877
Cl          -2.70451327279257        0.47603578484759        0.83478255250507
O            2.08844160037164        1.67495315268282       -0.63096277524437
C            2.12029635834329        2.86795633891938        0.13828924959434
H           -1.47305193318061       -2.01473352088178        0.47175738377632
H            0.81828029342383       -2.61211118718672       -0.29740755207630
H            1.83707502044188        2.67386035582606        1.17590575994968
H            3.15150563511146        3.22501419109804        0.09435089348506
H            1.45755333293754        3.63366818098466       -0.27544775554651
18
 energy: -41.231931404021 gnorm: 0.018992201252 xtb: 6.7.1 (edcfbbe)
Cl           3.02103338776613       -1.05330991878045       -0.98697544141195
C            1.42620265356545       -0.59233214979703       -0.47603150883289
C            1.12451722609295        0.76406448527620       -0.30404605407682
C           -0.16289396427524        1.11918212908635        0.10366975121520
C           -0.76213248323154        2.62463666623288        0.11969814913933
O           -0.72675906315185        3.21057551649916        1.19832589828406
O           -1.17534048599659        2.93955685711813       -0.99195456467880
C           -1.07706922461134        0.10119525871131        0.33844161945225
C           -0.76736254569599       -1.24433489978936        0.20109561725916
C            0.50180628108454       -1.59010048772531       -0.22462071786295
Cl          -2.68147374497905        0.50710338893765        0.84405527887443
O            2.15288587380158        1.63007805423028       -0.54300029660720
C            2.09737654197153        2.89215246942347        0.11991447576260
H           -1.50278330391771       -2.00353817187176        0.42227966891729
H            0.77943103417418       -2.62759730614339       -0.34265370060561
H            1.78688247265808        2.77403446264464        1.16786326305421
H            3.11165456561473        3.29432738303286        0.08227473816552
H            1.40510477913018        3.58904626291447       -0.38155617604778
18
 energy: -41.232532918161 gnorm: 0.021879356733 xtb: 6.7.1 (edcfbbe)
Cl           3.02399714916890       -1.04162694098695       -0.95097307778798
C            1.42487047276963       -0.59247095331772       -0.45683227240810
C            1.13492001499721        0.75609001362281       -0.26456224191618
C           -0.15385582734201        1.11639028136731        0.13112076648015
C           -0.73636482958049        2.59682763418047        0.13778356642718
O           -0.75750500622587        3.18562591913726        1.21443090846143
O           -1.11928021139958        2.92835917031328       -0.97926723265136
C           -1.07326315630994        0.10219516764772        0.33851833223020
C           -0.77522112403317       -1.23787634105863        0.17922126015453
C            0.49159002703190       -1.58525419157516       -0.24060607837000
Cl          -2.66762249177975        0.52559603083227        0.85258698791494
O            2.17222256434801        1.61823708649946       -0.45440054797280
C            2.09160012197312        2.89713694329958        0.09756048052690
H           -1.51765090926071       -1.99213606158015        0.37962573857810
H            0.76111951937636       -2.61904387142467       -0.37537527719959
H            1.76052176375694        2.83505044116844        1.13937690773475
H            3.09048420929593        3.30971500604711        0.03762015913746
H            1.40051771321358        3.53192466582767       -0.43904837933951
18
 energy: -41.233126110588 gnorm: 0.016939627849 xtb: 6.7.1 (edcfbbe)
Cl           3.02477428937089       -1.06731043752621       -0.93523340101147
C            1.42829540174322       -0.61163815443153       -0.43855474015164
C            1.15818210634967        0.74031852053707       -0.21889560347667
C           -0.13316641247344        1.11114946766384        0.16543417764849
C           -0.71315874299166        2.59248435616927        0.16545315236165
O           -0.77484359395367        3.17463426263818        1.24676732967582
O           -1.04784549882852        2.93057586424912       -0.97453836589974
C           -1.06659454000941        0.10107916031497        0.34672469706917
C           -0.78825573566983       -1.24240713710327        0.16147974696605
C            0.47852079594455       -1.59866370269006       -0.25511134556156
Cl          -2.66134886429976        0.53788443431284        0.84823763985605
O            2.21450839371372        1.58383138936837       -0.38460828773812
C            2.07694587337464        2.91927002744000        0.08155661271189
H           -1.54613633688994       -1.99091386564259        0.33628559788906
H            0.73447359800836       -2.63457638101033       -0.41895787117839
H            1.73247559443819        2.92235506415285        1.13020202156243
H            3.06630552172873        3.36469370258031        0.01591639400124
H            1.36794815044430        3.50197342897727       -0.52537775472415
18
 energy: -41.233381370712 gnorm: 0.007416360386 xtb: 6.7.1 (edcfbbe)
Cl           3.02654398048163       -1.05666836532898       -0.93398424851805
C            1.42806841252404       -0.60626442585144       -0.43642246162665
C            1.14802639643684        0.74689887744544       -0.22824519964437
C           -0.14712634168391        1.11188863402986        0.15434755640124
C           -0.72356309230049        2.60072419334103        0.16133948814876
O           -0.75598663957371        3.17827171471393        1.23931042174353
O           -1.07179308356630        2.93956316935084       -0.97024034851492
C           -1.07306132104775        0.09693982488997        0.34696514972180
C           -0.78636254262667       -1.24624244334561        0.16866707527975
C            0.48479853698571       -1.59746450304602       -0.24501876548348
Cl          -2.67514547498264        0.52457963931923        0.83335840557901
O            2.19610548997573        1.59484083535837       -0.41025991004049
C            2.08292469188497        2.91345104310006        0.08509821732442
H           -1.54187402769832       -1.99666634817938        0.34550420062594
H            0.74931403908003       -2.63156403977033       -0.40753942835489
H            1.74870028168840        2.90227051163960        1.12919435771192
H            3.08056517141368        3.34642858816536        0.01614416096916
H            1.38094552300882        3.51375309416817       -0.50143867132256
18
 energy: -41.233578953363 gnorm: 0.005299583068 xtb: 6.7.1 (edcfbbe)
Cl           3.03020668084699       -1.05452104677721       -0.91683763002105
C            1.42890827546460       -0.60665747490232       -0.42513348887089
C            1.14723551942119        0.74678093209891       -0.21629836577846
C           -0.15183220796597        1.11013315167355        0.15826054617531
C           -0.72064851539145        2.60150089514970        0.17297803936077
O           -0.76698098161431        3.16612314717088        1.26063644605703
O           -1.05401358437516        2.95242557149849       -0.95988692054576
C           -1.07835429843146        0.09278571145197        0.34224575656247
C           -0.78999322816092       -1.24909544969079        0.16226573423099
C            0.48491643490585       -1.59834192821845       -0.24335402102146
Cl          -2.68333596858027        0.51863094923309        0.82019057171913
O            2.19705403588855        1.59199079056758       -0.39465398266295
C            2.08398268670966        2.91564128258479        0.07572694757205
H           -1.54734083091433       -1.99835425122990        0.33153389812233
H            0.75238894306516       -2.62993658074745       -0.41130901645887
H            1.74282281511488        2.93227152690269        1.11789108929786
H            3.08398316953161        3.33860829529121        0.00045134881592
H            1.39208105448543        3.50475447794337       -0.52792695255431
18
 energy: -41.233905370566 gnorm: 0.007532322874 xtb: 6.7.1 (edcfbbe)
Cl           3.04170249609397       -1.05808986777351       -0.86002998353087
C            1.43106247087401       -0.61429260632214       -0.39302138930668
C            1.15063490815485        0.73970841317337       -0.17828879597774
C           -0.15631955611735        1.10291799256332        0.17447788673297
C           -0.70478189013690        2.60032622648616        0.20995341580352
O           -0.76949632695767        3.13567208352221        1.31119552700381
O           -1.00307293844873        2.98553008611777       -0.92082231596525
C           -1.08756259631600        0.08379214095907        0.33232757312929
C           -0.80243280234710       -1.25651331063034        0.13898361689588
C            0.48043619570407       -1.60480781349126       -0.24469876303139
Cl          -2.70040018576946        0.51161231797294        0.78337704763637
O            2.21265955126653        1.57461267400405       -0.33224538299927
C            2.07949229852461        2.92841049435733        0.04819891996144
H           -1.56930404319522       -2.00166973219907        0.27984280611370
H            0.75069601104053       -2.63150035078213       -0.42784840092219
H            1.72344801579693        3.02155725962936        1.08140010245667
H            3.08119304923294        3.35066216587004       -0.04235591338474
H            1.39312534260005        3.46681182654299       -0.61366595061540
18
 energy: -41.234054742486 gnorm: 0.007991342288 xtb: 6.7.1 (edcfbbe)
Cl           3.05074665149200       -1.06187932735694       -0.81425814371705
C            1.43270640126302       -0.61816921166793       -0.36989714976336
C            1.14977678899486        0.73600841778056       -0.15537761108285
C           -0.16038105404156        1.09788331947540        0.18256506350989
C           -0.69855908197642        2.59961206216641        0.23668959626020
O           -0.77361058716965        3.11179265883633        1.35084894970818
O           -0.97101720424829        3.01622328891728       -0.89248871213852
C           -1.09449842893129        0.07901797771201        0.32120945330597
C           -0.80879644198393       -1.26093656115551        0.12239452610488
C            0.47927323554660       -1.60887272717059       -0.24243805079016
Cl          -2.71384102924197        0.50649293645788        0.75307705630418
O            2.21499512983744        1.56731582236597       -0.29880576705914
C            2.07821994720105        2.93755671287693        0.02555607575060
H           -1.57981423064796       -2.00550039039616        0.24389762300481
H            0.75093851218367       -2.63475639619803       -0.42929743455756
H            1.71804819180738        3.06996314963337        1.04718749531918
H            3.08231756592635        3.35781931858929       -0.07413537460068
H            1.39457563398875        3.44516894913391       -0.65994759555840
18
 energy: -41.234204078043 gnorm: 0.005579717237 xtb: 6.7.1 (edcfbbe)
Cl           3.06246896165462       -1.06614217918885       -0.75981400756324
C            1.43512893056007       -0.62052356449044       -0.34752504125421
C            1.14684282221981        0.73344604270396       -0.13893623919342
C           -0.16503719682335        1.09361718996201        0.18475634244764
C           -0.69639490236940        2.59790347200993        0.26639477575100
O           -0.76181768908528        3.08771123617481        1.38874593240593
O           -0.96580603872803        3.04729510393492       -0.84658435023027
C           -1.10096477916687        0.07673961681963        0.30510605499314
C           -0.81278725716468       -1.26308004929570        0.10274623305307
C            0.48037389413349       -1.61141277874541       -0.23923224417731
Cl          -2.72777287425095        0.50130902057846        0.71600474776127
O            2.21661634366823        1.56204661603254       -0.26853483231791
C            2.07841703923713        2.94422749725336        0.00148419587511
H           -1.58579323323627       -2.00864720185286        0.20423978141744
H            0.75344683396260       -2.63831753383507       -0.42217224335929
H            1.69661076133791        3.12578873601114        1.01211342258430
H            3.08706594827883        3.34676383334134       -0.09609564075621
H            1.41048243577220        3.42601494258646       -0.71591688743683
18
 energy: -41.234259708279 gnorm: 0.008412567955 xtb: 6.7.1 (edcfbbe)
Cl           3.06874138070202       -1.06984069111567       -0.73259548626105
C            1.43784452738255       -0.62005986359287       -0.33906140987059
C            1.14556309361089        0.73422141382258       -0.13880950385522
C           -0.16712425028899        1.09383413777911        0.17713496605443
C           -0.69899366609909        2.59852948802240        0.27993617934757
O           -0.75824497120854        3.06994116628695        1.41236572219103
O           -0.97627473207270        3.06803169186964       -0.82029813009166
C           -1.10542909034018        0.07927697199407        0.28769079099967
C           -0.81303850594041       -1.26039403629114        0.09282258076345
C            0.48337131657225       -1.61027331952456       -0.23346949742798
Cl          -2.73426599360851        0.50106438260861        0.69283813329950
O            2.21386491559860        1.56464124592070       -0.26594399172679
C            2.08087367426302        2.94262741195358       -0.00934325650111
H           -1.58346312100811       -2.00710038028488        0.19153108976632
H            0.75780074059826       -2.63946943258344       -0.40180218283069
H            1.69711464466538        3.12829442760229        0.99130676773528
H            3.09096058779980        3.34656304452675       -0.10583928550415
H            1.41177944937382        3.41485234100611       -0.73168348608781
18
 energy: -41.234340041550 gnorm: 0.006841145929 xtb: 6.7.1 (edcfbbe)
Cl           3.07595831245669       -1.07665985755688       -0.69629827544003
C            1.44199963498156       -0.62385304765440       -0.32121397897229
C            1.15033351717376        0.73067282523039       -0.12249322098554
C           -0.16578932611150        1.09202870881117        0.17933396008187
C           -0.69460649939063        2.59591733548582        0.30495574258771
O           -0.75927575308908        3.04221367306401        1.44942822337595
O           -0.96237736333939        3.09332349886257       -0.78861676394028
C           -1.10970970391797        0.07992583184970        0.27150844024456
C           -0.81802547865193       -1.25949813181238        0.07655641300244
C            0.48310307658115       -1.61195046098042       -0.23039722957969
Cl          -2.74130905686488        0.50207586888404        0.66367962163250
O            2.22239664925860        1.55698536718023       -0.23792726116243
C            2.07829254216232        2.94695315714320       -0.02910491728216
H           -1.59128566693948       -2.00566316876222        0.16224123239554
H            0.75647213431569       -2.64263362509805       -0.39377865443380
H            1.68262407644064        3.16572614241678        0.96418883217661
H            3.08670336295506        3.35508594570937       -0.12799588534952
H            1.41557554197947        3.39408993722732       -0.77728627835125
18
 energy: -41.234397103364 gnorm: 0.004368031241 xtb: 6.7.1 (edcfbbe)
Cl           3.07653321224557       -1.07995252384206       -0.69043805236152
C            1.44426276909246       -0.62571323229309       -0.31839063927652
C            1.15502342508849        0.72983540771014       -0.12195146003885
C           -0.16169898353001        1.09388699037780        0.17677045340179
C           -0.69443615207099        2.59539256441459        0.31152132665860
O           -0.75297533217064        3.03280202758790        1.45741946330717
O           -0.97141789603560        3.09669049030336       -0.77753942273833
C           -1.10672901538372        0.08352356546913        0.26799407239348
C           -0.81759568989985       -1.25725363075032        0.07451051294483
C            0.48374729578183       -1.61236559853953       -0.22778670081904
Cl          -2.73945882924864        0.50844762006314        0.65060193286514
O            2.22767067604495        1.55491053615883       -0.23575654392363
C            2.07430616512947        2.94627938958603       -0.03484101435685
H           -1.59275025939378       -2.00336715678049        0.15712041537167
H            0.75576551654172       -2.64487321646765       -0.38686834873836
H            1.67298733210393        3.16659631636204        0.95638163028352
H            3.08014777325157        3.35877155136894       -0.12947955737000
H            1.41769799245330        3.39112889927147       -0.78248806760289
18
 energy: -41.234453314637 gnorm: 0.003017901271 xtb: 6.7.1 (edcfbbe)
Cl           3.08084777539464       -1.08414071412301       -0.67092071281197
C            1.44776299541310       -0.62750010181536       -0.31160533236616
C            1.15968561678553        0.72949599073580       -0.12061239399152
C           -0.15864907499225        1.09617055208249        0.17011309021433
C           -0.69365627488105        2.59577410200240        0.32551724534801
O           -0.74354657907488        3.01245951501580        1.47887607648874
O           -0.98333828841038        3.11160697952330       -0.75327050888642
C           -1.10528337583116        0.08764239403262        0.25757899404268
C           -0.81740009658499       -1.25441593898927        0.06899741792715
C            0.48543503841999       -1.61245126541971       -0.22283026102526
Cl          -2.74085545592272        0.51624629827207        0.62314620714789
O            2.23320679609951        1.55428007910474       -0.22935453747828
C            2.07146209746473        2.94358631002605       -0.04429303073353
H           -1.59379865465370       -1.99944998097582        0.14867073624088
H            0.75745827381561       -2.64651994402705       -0.37507226631823
H            1.65958608857731        3.17271283809239        0.94176335246237
H            3.07482603765007        3.36186767907119       -0.13516427813098
H            1.41733708073072        3.37737520739163       -0.80475979812947
18
 energy: -41.234487983361 gnorm: 0.002878182128 xtb: 6.7.1 (edcfbbe)
Cl           3.08809284021176       -1.08947127020943       -0.64169277662814
C            1.45222084069763       -0.62978122668830       -0.29986705585551
C            1.16337775921255        0.72834554766772       -0.11778259811925
C           -0.15758686554384        1.09754690426288        0.15938486189178
C           -0.69241098955505        2.59679796229996        0.34258473716394