      -----------------------------------------------------------      
     |                   =====================                   |     
     |                           x T B                           |     
     |                   =====================                   |     
     |                         S. Grimme                         |     
     |          Mulliken Center for Theoretical Chemistry        |     
     |                    University of Bonn                     |     
      -----------------------------------------------------------      

   * xtb version 6.7.1 (edcfbbe) compiled by 'conda@3ef47c1a292c' on 2024-11-25

   xtb is free software: you can redistribute it and/or modify it under
   the terms of the GNU Lesser General Public License as published by
   the Free Software Foundation, either version 3 of the License, or
   (at your option) any later version.
   
   xtb is distributed in the hope that it will be useful,
   but WITHOUT ANY WARRANTY; without even the implied warranty of
   MERCHANTABILITY or FITNESS FOR A PARTICULAR PURPOSE.  See the
   GNU Lesser General Public License for more details.
   
   Cite this work as:
   * C. Bannwarth, E. Caldeweyher, S. Ehlert, A. Hansen, P. Pracht,
     J. Seibert, S. Spicher, S. Grimme, WIREs Comput. Mol. Sci., 2020, 11,
     e01493. DOI: 10.1002/wcms.1493
   
   for GFN2-xTB:
   * C. Bannwarth, S. Ehlert and S. Grimme., J. Chem. Theory Comput., 2019,
     15, 1652-1671. DOI: 10.1021/acs.jctc.8b01176
   for GFN1-xTB:
   * S. Grimme, C. Bannwarth, P. Shushkov, J. Chem. Theory Comput., 2017,
     13, 1989-2009. DOI: 10.1021/acs.jctc.7b00118
   for GFN0-xTB:
   * P. Pracht, E. Caldeweyher, S. Ehlert, S. Grimme, ChemRxiv, 2019, preprint.
     DOI: 10.26434/chemrxiv.8326202.v1
   for GFN-FF:
   * S. Spicher and S. Grimme, Angew. Chem. Int. Ed., 2020, 59, 15665-15673.
     DOI: 10.1002/anie.202004239
   
   for ALPB and GBSA implicit solvation:
   * S. Ehlert, M. Stahn, S. Spicher, S. Grimme, J. Chem. Theory Comput.,
     2021, 17, 4250-4261. DOI: 10.1021/acs.jctc.1c00471
   
   for ddCOSMO and CPCM-X implicit solvation:
   * M. Stahn, S. Ehlert, S. Grimme, J. Phys. Chem. A,
     2023, XX, XXXX-XXXX. DOI: 10.1021/acs.jpca.3c04382
   
   for DFT-D4:
   * E. Caldeweyher, C. Bannwarth and S. Grimme, J. Chem. Phys., 2017,
     147, 034112. DOI: 10.1063/1.4993215
   * E. Caldeweyher, S. Ehlert, A. Hansen, H. Neugebauer, S. Spicher,
     C. Bannwarth and S. Grimme, J. Chem. Phys., 2019, 150, 154122.
     DOI: 10.1063/1.5090222
   * E. Caldeweyher, J.-M. Mewes, S. Ehlert and S. Grimme, Phys. Chem. Chem. Phys.
     2020, 22, 8499-8512. DOI: 10.1039/D0CP00502A
   
   for sTDA-xTB:
   * S. Grimme and C. Bannwarth, J. Chem. Phys., 2016, 145, 054103.
     DOI: 10.1063/1.4959605
   
   in the mass-spec context:
   * V. Asgeirsson, C. Bauer and S. Grimme, Chem. Sci., 2017, 8, 4879.
     DOI: 10.1039/c7sc00601b
   * J. Koopman and S. Grimme, ACS Omega 2019, 4, 12, 15120-15133.
     DOI: 10.1021/acsomega.9b02011
   
   for metadynamics refer to:
   * S. Grimme, J. Chem. Theory Comput., 2019, 155, 2847-2862
     DOI: 10.1021/acs.jctc.9b00143
   
   for SPH calculations refer to:
   * S. Spicher and S. Grimme, J. Chem. Theory Comput., 2021, 17, 1701-1714
     DOI: 10.1021/acs.jctc.0c01306
   
   for ONIOM refer to:
   * C. Plett, A. Katbashev, S. Ehlert, S. Grimme, M. Bursch,
     Phys. Chem. Chem. Phys., 2023, 25, 17860-17868. DOI: 10.1039/D3CP02178E
   
   for DIPRO refer to:
   * J. Kohn, N. Gildemeister, S. Grimme, D. Fazzi, A. Hansen,
     J. Chem. Phys., 2023, just accepted.
   
   for PTB refer to:
   * S. Grimme, M. Mueller, A. Hansen, J. Chem. Phys., 2023, 158, 124111.
     DOI: 10.1063/5.0137838
   
   with help from (in alphabetical order)
   P. Atkinson, C. Bannwarth, F. Bohle, G. Brandenburg, E. Caldeweyher
   M. Checinski, S. Dohm, S. Ehlert, S. Ehrlich, I. Gerasimov, C. Hölzer
   A. Katbashev, J. Kohn, J. Koopman, C. Lavigne, S. Lehtola, F. März, M. Müller,
   F. Musil, H. Neugebauer, J. Pisarek, C. Plett, P. Pracht, F. Pultar,
   J. Seibert, P. Shushkov, S. Spicher, M. Stahn, M. Steiner, T. Strunk,
   J. Stückrath, T. Rose, and J. Unsleber
   
 * started run on 2024/12/20 at 01:53:01.553     
   ID    Z sym.   atoms
    1    6 C      1-9, 11-16, 25
    2    8 O      10
    3    9 F      17, 18, 20-24
    4    5 B      19
    5    1 H      26-42

           -------------------------------------------------
          |                Calculation Setup                |
           -------------------------------------------------

          program call               : xtb A082.xyz --opt --namespace A082 --charge -1
          calculation namespace      : A082
          coordinate file            : A082.xyz
          omp threads                :                     8


           -------------------------------------------------
          |                 G F N 2 - x T B                 |
           -------------------------------------------------

        Reference                      10.1021/acs.jctc.8b01176
      * Hamiltonian:
        H0-scaling (s, p, d)           1.850000    2.230000    2.230000
        zeta-weighting                 0.500000
      * Dispersion:
        s8                             2.700000
        a1                             0.520000
        a2                             5.000000
        s9                             5.000000
      * Repulsion:
        kExp                           1.500000    1.000000
        rExp                           1.000000
      * Coulomb:
        alpha                          2.000000
        third order                    shell-resolved
        anisotropic                    true
        a3                             3.000000
        a5                             4.000000
        cn-shift                       1.200000
        cn-exp                         4.000000
        max-rad                        5.000000


          ...................................................
          :                      SETUP                      :
          :.................................................:
          :  # basis functions                 117          :
          :  # atomic orbitals                 117          :
          :  # shells                           67          :
          :  # electrons                       140          :
          :  max. iterations                   250          :
          :  Hamiltonian                  GFN2-xTB          :
          :  restarted?                      false          :
          :  GBSA solvation                  false          :
          :  PC potential                    false          :
          :  electronic temp.          300.0000000     K    :
          :  accuracy                    1.0000000          :
          :  -> integral cutoff          0.2500000E+02      :
          :  -> integral neglect         0.1000000E-07      :
          :  -> SCF convergence          0.1000000E-05 Eh   :
          :  -> wf. convergence          0.1000000E-03 e    :
          :  Broyden damping             0.4000000          :
          :  net charge                         -1          :
          :  unpaired electrons                  0          :
          ...................................................

 iter      E             dE          RMSdq      gap      omega  full diag
   1    -82.0050118 -0.820050E+02  0.475E+00    2.26       0.0  T
   2    -82.2438213 -0.238809E+00  0.293E+00    2.29       1.0  T
   3    -82.2424895  0.133174E-02  0.159E+00    2.06       1.0  T
   4    -82.2724478 -0.299583E-01  0.841E-01    2.22       1.0  T
   5    -82.3006354 -0.281876E-01  0.238E-01    2.16       1.0  T
   6    -82.3011151 -0.479648E-03  0.122E-01    2.13       1.0  T
   7    -82.3012095 -0.944298E-04  0.399E-02    2.15       1.0  T
   8    -82.3012662 -0.566816E-04  0.139E-02    2.15       1.1  T
   9    -82.3012713 -0.508370E-05  0.596E-03    2.14       2.6  T
  10    -82.3012714 -0.106799E-06  0.224E-03    2.14       6.9  T
  11    -82.3012715 -0.873707E-07  0.861E-04    2.14      17.9  T
  12    -82.3012715 -0.596701E-08  0.253E-04    2.14      61.0  T

   *** convergence criteria satisfied after 12 iterations ***

         #    Occupation            Energy/Eh            Energy/eV
      -------------------------------------------------------------
         1        2.0000           -0.7901225             -21.5003
       ...           ...                  ...                  ...
        64        2.0000           -0.2931772              -7.9778
        65        2.0000           -0.2927245              -7.9654
        66        2.0000           -0.2875311              -7.8241
        67        2.0000           -0.2834908              -7.7142
        68        2.0000           -0.2829671              -7.6999
        69        2.0000           -0.2605192              -7.0891
        70        2.0000           -0.2317600              -6.3065 (HOMO)
        71                         -0.1529348              -4.1616 (LUMO)
        72                         -0.1193269              -3.2471
        73                         -0.0126916              -0.3454
        74                          0.0366991               0.9986
        75                          0.0809943               2.2040
       ...                                ...                  ...
       117                          0.9855656              26.8186
      -------------------------------------------------------------
                  HL-Gap            0.0788252 Eh            2.1449 eV
             Fermi-level           -0.1923474 Eh           -5.2340 eV

 SCC (total)                   0 d,  0 h,  0 min,  0.060 sec
 SCC setup                      ...        0 min,  0.000 sec (  0.266%)
 Dispersion                     ...        0 min,  0.000 sec (  0.818%)
 classical contributions        ...        0 min,  0.000 sec (  0.104%)
 integral evaluation            ...        0 min,  0.003 sec (  4.811%)
 iterations                     ...        0 min,  0.030 sec ( 50.060%)
 molecular gradient             ...        0 min,  0.026 sec ( 43.594%)
 printout                       ...        0 min,  0.000 sec (  0.316%)

         :::::::::::::::::::::::::::::::::::::::::::::::::::::
         ::                     SUMMARY                     ::
         :::::::::::::::::::::::::::::::::::::::::::::::::::::
         :: total energy             -81.488596406153 Eh    ::
         :: gradient norm              0.361982906124 Eh/a0 ::
         :: HOMO-LUMO gap              2.144941917846 eV    ::
         ::.................................................::
         :: SCC energy               -82.300322764840 Eh    ::
         :: -> isotropic ES            0.253060432644 Eh    ::
         :: -> anisotropic ES          0.008443567217 Eh    ::
         :: -> anisotropic XC         -0.013418624300 Eh    ::
         :: -> dispersion             -0.051998934390 Eh    ::
         :: repulsion energy           0.811726358687 Eh    ::
         :: add. restraining           0.000000000000 Eh    ::
         :: total charge              -1.000000000000 e     ::
         :::::::::::::::::::::::::::::::::::::::::::::::::::::

      ----------------------------------------------------------- 
     |                   =====================                   |
     |                        A N C O P T                        |
     |                   =====================                   |
     |               Approximate Normal Coordinate               |
     |                Rational Function Optimizer                |
      ----------------------------------------------------------- 
      ----------------------------------------------------------- 
     |                   =====================                   |
     |                        A N C O P T                        |
     |                   =====================                   |
     |               Approximate Normal Coordinate               |
     |                Rational Function Optimizer                |
      ----------------------------------------------------------- 

          ...................................................
          :                      SETUP                      :
          :.................................................:
          :   optimization level            normal          :
          :   max. optcycles                   200          :
          :   ANC micro-cycles                  20          :
          :   degrees of freedom               120          :
          :.................................................:
          :   RF solver                   davidson          :
          :   write xtbopt.log                true          :
          :   linear?                        false          :
          :   energy convergence         0.5000000E-05 Eh   :
          :   grad. convergence          0.1000000E-02 Eh/α :
          :   maxmium RF displ.          1.0000000          :
          :   Hlow (freq-cutoff)         0.1000000E-01      :
          :   Hmax (freq-cutoff)         5.0000000          :
          :   S6 in model hess.         20.0000000          :
          ...................................................

generating ANC from exact Hessian ...
Using Lindh-Hessian (1995)
 Shifting diagonal of input Hessian by    8.7919355115126420E-003
 Lowest  eigenvalues of input Hessian
    0.000000    0.000000    0.000000    0.000000    0.000000    0.000000
    0.010000    0.010961    0.011253    0.014845    0.015654    0.016561
    0.017802    0.018217    0.018633    0.019465    0.020279    0.021705
 Highest eigenvalues
    1.788729    1.940117    2.045353    2.050563    2.323203    2.361090


........................................................................
.............................. CYCLE    1 ..............................
........................................................................

 iter      E             dE          RMSdq      gap      omega  full diag
   1    -82.3012715 -0.823013E+02  0.109E-04    2.14       0.0  T
   2    -82.3012715 -0.590461E-10  0.659E-05    2.14     234.1  T
   3    -82.3012715  0.405009E-11  0.357E-05    2.14     431.8  T
     SCC iter.                  ...        0 min,  0.006 sec
     gradient                   ...        0 min,  0.007 sec
 * total energy  :   -81.4885964 Eh     change       -0.6857874E-09 Eh
   gradient norm :     0.3619815 Eh/α   predicted     0.0000000E+00 (-100.00%)
   displ. norm   :     0.5711668 α      lambda       -0.1683548E+00
   maximum displ.:     0.1631197 α      in ANC's #67, #78, #87, ...

........................................................................
.............................. CYCLE    2 ..............................
........................................................................

 iter      E             dE          RMSdq      gap      omega  full diag
   1    -82.3751981 -0.823752E+02  0.524E-01    2.78       0.0  T
   2    -82.3778319 -0.263385E-02  0.355E-01    2.74       1.0  T
   3    -82.3804255 -0.259358E-02  0.199E-01    2.75       1.0  T
   4    -82.3809407 -0.515197E-03  0.602E-02    2.74       1.0  T
   5    -82.3809816 -0.409027E-04  0.273E-02    2.73       1.0  T
   6    -82.3809969 -0.153234E-04  0.978E-03    2.73       1.6  T
   7    -82.3809983 -0.133117E-05  0.310E-03    2.74       5.0  T
   8    -82.3809983 -0.678841E-07  0.136E-03    2.74      11.4  T
   9    -82.3809984 -0.289835E-07  0.558E-04    2.74      27.6  T
  10    -82.3809984 -0.228405E-08  0.276E-04    2.74      55.8  T
     SCC iter.                  ...        0 min,  0.021 sec
     gradient                   ...        0 min,  0.007 sec
 * total energy  :   -81.6124712 Eh     change       -0.1238748E+00 Eh
   gradient norm :     0.1847015 Eh/α   predicted    -0.1116389E+00 (  -9.88%)
   displ. norm   :     0.5547153 α      lambda       -0.8157357E-01
   maximum displ.:     0.1642056 α      in ANC's #38, #23, #87, ...

........................................................................
.............................. CYCLE    3 ..............................
........................................................................

 iter      E             dE          RMSdq      gap      omega  full diag
   1    -82.4144276 -0.824144E+02  0.376E-01    2.85       0.0  T
   2    -82.4158492 -0.142162E-02  0.239E-01    3.00       1.0  T
   3    -82.4167514 -0.902237E-03  0.135E-01    2.94       1.0  T
   4    -82.4169689 -0.217492E-03  0.385E-02    3.00       1.0  T
   5    -82.4169845 -0.155237E-04  0.186E-02    2.99       1.0  T
   6    -82.4169921 -0.761782E-05  0.693E-03    2.99       2.2  T
   7    -82.4169928 -0.753519E-06  0.208E-03    2.99       7.4  T
   8    -82.4169929 -0.372095E-07  0.908E-04    2.99      17.0  T
   9    -82.4169929 -0.134539E-07  0.384E-04    2.99      40.2  T
     SCC iter.                  ...        0 min,  0.017 sec
     gradient                   ...        0 min,  0.007 sec
 * total energy  :   -81.6749136 Eh     change       -0.6244234E-01 Eh
   gradient norm :     0.1051208 Eh/α   predicted    -0.5333728E-01 ( -14.58%)
   displ. norm   :     0.6230964 α      lambda       -0.5036785E-01
   maximum displ.:     0.1933556 α      in ANC's #23, #38, #7, ...

........................................................................
.............................. CYCLE    4 ..............................
........................................................................

 iter      E             dE          RMSdq      gap      omega  full diag
   1    -82.4386586 -0.824387E+02  0.323E-01    2.89       0.0  T
   2    -82.4397609 -0.110226E-02  0.210E-01    3.02       1.0  T
   3    -82.4405759 -0.815002E-03  0.111E-01    2.98       1.0  T
   4    -82.4406523 -0.763937E-04  0.269E-02    3.02       1.0  T
   5    -82.4406602 -0.796616E-05  0.133E-02    3.01       1.2  T
   6    -82.4406638 -0.360078E-05  0.505E-03    3.02       3.1  T
   7    -82.4406644 -0.552236E-06  0.185E-03    3.02       8.3  T
   8    -82.4406644 -0.414842E-07  0.820E-04    3.02      18.8  T
   9    -82.4406644 -0.825409E-08  0.332E-04    3.02      46.4  T
     SCC iter.                  ...        0 min,  0.017 sec
     gradient                   ...        0 min,  0.007 sec
 * total energy  :   -81.7142227 Eh     change       -0.3930908E-01 Eh
   gradient norm :     0.0675495 Eh/α   predicted    -0.3496160E-01 ( -11.06%)
   displ. norm   :     0.6592849 α      lambda       -0.3119066E-01
   maximum displ.:     0.2414076 α      in ANC's #7, #38, #8, ...

........................................................................
.............................. CYCLE    5 ..............................
........................................................................

 iter      E             dE          RMSdq      gap      omega  full diag
   1    -82.4573044 -0.824573E+02  0.242E-01    2.99       0.0  T
   2    -82.4577528 -0.448409E-03  0.152E-01    3.07       1.0  T
   3    -82.4580236 -0.270740E-03  0.871E-02    3.05       1.0  T
   4    -82.4580797 -0.561593E-04  0.175E-02    3.07       1.0  T
   5    -82.4580828 -0.300913E-05  0.793E-03    3.07       1.9  T
   6    -82.4580838 -0.105862E-05  0.278E-03    3.07       5.5  T
   7    -82.4580840 -0.145889E-06  0.116E-03    3.06      13.3  T
   8    -82.4580840 -0.181878E-07  0.565E-04    3.07      27.3  T
   9    -82.4580840 -0.577661E-08  0.212E-04    3.06      72.9  T
     SCC iter.                  ...        0 min,  0.017 sec
     gradient                   ...        0 min,  0.007 sec
 * total energy  :   -81.7391185 Eh     change       -0.2489582E-01 Eh
   gradient norm :     0.0461342 Eh/α   predicted    -0.2237395E-01 ( -10.13%)
   displ. norm   :     0.6718365 α      lambda       -0.1988955E-01
   maximum displ.:     0.2908919 α      in ANC's #7, #8, #38, ...

........................................................................
.............................. CYCLE    6 ..............................
........................................................................

 iter      E             dE          RMSdq      gap      omega  full diag
   1    -82.4698996 -0.824699E+02  0.190E-01    3.08       0.0  T
   2    -82.4700420 -0.142393E-03  0.114E-01    3.12       1.0  T
   3    -82.4700623 -0.203503E-04  0.694E-02    3.10       1.0  T
   4    -82.4701258 -0.634941E-04  0.113E-02    3.12       1.4  T
   5    -82.4701269 -0.106394E-05  0.459E-03    3.12       3.4  T
   6    -82.4701271 -0.220306E-06  0.171E-03    3.11       9.0  T
   7    -82.4701271 -0.423498E-07  0.609E-04    3.11      25.3  T
   8    -82.4701271 -0.172113E-08  0.231E-04    3.11      66.7  T
     SCC iter.                  ...        0 min,  0.015 sec
     gradient                   ...        0 min,  0.007 sec
 * total energy  :   -81.7547675 Eh     change       -0.1564900E-01 Eh
   gradient norm :     0.0298230 Eh/α   predicted    -0.1443350E-01 (  -7.77%)
   displ. norm   :     0.6642550 α      lambda       -0.1191202E-01
   maximum displ.:     0.3321510 α      in ANC's #7, #8, #4, ...

........................................................................
.............................. CYCLE    7 ..............................
........................................................................

 iter      E             dE          RMSdq      gap      omega  full diag
   1    -82.4778643 -0.824779E+02  0.161E-01    3.14       0.0  T
   2    -82.4779054 -0.410305E-04  0.942E-02    3.15       1.0  T
   3    -82.4778739  0.314707E-04  0.446E-02    3.14       1.0  T
   4    -82.4779199 -0.460283E-04  0.744E-03    3.15       2.1  T
   5    -82.4779205 -0.604486E-06  0.296E-03    3.15       5.2  T
   6    -82.4779206 -0.200989E-07  0.122E-03    3.15      12.6  T
   7    -82.4779206 -0.343347E-07  0.483E-04    3.15      31.9  T
   8    -82.4779206 -0.190792E-08  0.215E-04    3.15      71.7  T
     SCC iter.                  ...        0 min,  0.016 sec
     gradient                   ...        0 min,  0.007 sec
 * total energy  :   -81.7642153 Eh     change       -0.9447859E-02 Eh
   gradient norm :     0.0216931 Eh/α   predicted    -0.8584010E-02 (  -9.14%)
   displ. norm   :     0.6695494 α      lambda       -0.7704190E-02
   maximum displ.:     0.3549761 α      in ANC's #7, #8, #2, ...

........................................................................
.............................. CYCLE    8 ..............................
........................................................................

 iter      E             dE          RMSdq      gap      omega  full diag
   1    -82.4831362 -0.824831E+02  0.149E-01    3.17       0.0  T
   2    -82.4831570 -0.207806E-04  0.882E-02    3.17       1.0  T
   3    -82.4831434  0.135981E-04  0.213E-02    3.17       1.0  T
   4    -82.4831615 -0.180385E-04  0.589E-03    3.17       2.6  T
   5    -82.4831623 -0.821471E-06  0.253E-03    3.17       6.1  T
   6    -82.4831623 -0.208835E-07  0.919E-04    3.17      16.8  T
   7    -82.4831623 -0.990150E-08  0.419E-04    3.17      36.8  T
     SCC iter.                  ...        0 min,  0.013 sec
     gradient                   ...        0 min,  0.007 sec
 * total energy  :   -81.7704292 Eh     change       -0.6213822E-02 Eh
   gradient norm :     0.0192974 Eh/α   predicted    -0.5578981E-02 ( -10.22%)
   displ. norm   :     0.6757018 α      lambda       -0.5475633E-02
   maximum displ.:     0.3544278 α      in ANC's #7, #8, #2, ...

........................................................................
.............................. CYCLE    9 ..............................
........................................................................

 iter      E             dE          RMSdq      gap      omega  full diag
   1    -82.4871808 -0.824872E+02  0.146E-01    3.19       0.0  T
   2    -82.4872066 -0.258290E-04  0.880E-02    3.19       1.0  T
   3    -82.4871790  0.275868E-04  0.360E-02    3.19       1.0  T
   4    -82.4872170 -0.380093E-04  0.586E-03    3.19       2.6  T
   5    -82.4872173 -0.309465E-06  0.274E-03    3.18       5.6  T
   6    -82.4872174 -0.485374E-07  0.131E-03    3.19      11.7  T
   7    -82.4872174 -0.178161E-07  0.526E-04    3.19      29.3  T
   8    -82.4872174 -0.431042E-08  0.178E-04    3.19      86.7  T
     SCC iter.                  ...        0 min,  0.015 sec
     gradient                   ...        0 min,  0.007 sec
 * total energy  :   -81.7748547 Eh     change       -0.4425547E-02 Eh
   gradient norm :     0.0186756 Eh/α   predicted    -0.3987839E-02 (  -9.89%)
   displ. norm   :     0.6533137 α      lambda       -0.3950037E-02
   maximum displ.:     0.3242690 α      in ANC's #7, #2, #8, ...

........................................................................
.............................. CYCLE   10 ..............................
........................................................................

 iter      E             dE          RMSdq      gap      omega  full diag
   1    -82.4907153 -0.824907E+02  0.146E-01    3.22       0.0  T
   2    -82.4907374 -0.221779E-04  0.874E-02    3.21       1.0  T
   3    -82.4907085  0.289310E-04  0.388E-02    3.21       1.0  T
   4    -82.4907486 -0.400911E-04  0.534E-03    3.21       2.9  T
   5    -82.4907488 -0.198484E-06  0.262E-03    3.21       5.9  T
   6    -82.4907489 -0.602374E-07  0.121E-03    3.21      12.8  T
   7    -82.4907489 -0.131330E-07  0.495E-04    3.21      31.1  T
   8    -82.4907489 -0.457472E-08  0.153E-04    3.21     100.8  T
     SCC iter.                  ...        0 min,  0.015 sec
     gradient                   ...        0 min,  0.007 sec
 * total energy  :   -81.7780040 Eh     change       -0.3149259E-02 Eh
   gradient norm :     0.0189647 Eh/α   predicted    -0.2817995E-02 ( -10.52%)
   displ. norm   :     0.6029508 α      lambda       -0.2888310E-02
   maximum displ.:     0.2726444 α      in ANC's #7, #2, #1, ...

........................................................................
.............................. CYCLE   11 ..............................
........................................................................

 iter      E             dE          RMSdq      gap      omega  full diag
   1    -82.4939764 -0.824940E+02  0.141E-01    3.25       0.0  T
   2    -82.4939833 -0.685237E-05  0.832E-02    3.25       1.0  T
   3    -82.4939735  0.981577E-05  0.207E-02    3.25       1.0  T
   4    -82.4939861 -0.126480E-04  0.387E-03    3.25       4.0  T
   5    -82.4939862 -0.109184E-06  0.200E-03    3.25       7.7  T
   6    -82.4939862 -0.108200E-07  0.652E-04    3.25      23.7  T
   7    -82.4939862 -0.728237E-08  0.282E-04    3.25      54.7  T
     SCC iter.                  ...        0 min,  0.013 sec
     gradient                   ...        0 min,  0.007 sec
 * total energy  :   -81.7802835 Eh     change       -0.2279510E-02 Eh
   gradient norm :     0.0168397 Eh/α   predicted    -0.1969181E-02 ( -13.61%)
   displ. norm   :     0.5489821 α      lambda       -0.2091801E-02
   maximum displ.:     0.2579182 α      in ANC's #2, #1, #7, ...

........................................................................
.............................. CYCLE   12 ..............................
........................................................................

 iter      E             dE          RMSdq      gap      omega  full diag
   1    -82.4968096 -0.824968E+02  0.125E-01    3.28       0.0  T
   2    -82.4968181 -0.842941E-05  0.741E-02    3.29       1.0  T
   3    -82.4968131  0.496148E-05  0.135E-02    3.29       1.1  T
   4    -82.4968199 -0.678974E-05  0.332E-03    3.29       4.6  T
   5    -82.4968201 -0.173904E-06  0.176E-03    3.29       8.8  T
   6    -82.4968201 -0.312418E-07  0.722E-04    3.29      21.4  T
   7    -82.4968201 -0.515510E-08  0.293E-04    3.29      52.6  T
     SCC iter.                  ...        0 min,  0.013 sec
     gradient                   ...        0 min,  0.007 sec
 * total energy  :   -81.7818785 Eh     change       -0.1595001E-02 Eh
   gradient norm :     0.0144814 Eh/α   predicted    -0.1361122E-02 ( -14.66%)
   displ. norm   :     0.4861813 α      lambda       -0.1366121E-02
   maximum displ.:     0.2333169 α      in ANC's #2, #1, #7, ...

........................................................................
.............................. CYCLE   13 ..............................
........................................................................

 iter      E             dE          RMSdq      gap      omega  full diag
   1    -82.4984744 -0.824985E+02  0.977E-02    3.30       0.0  T
   2    -82.4984792 -0.481286E-05  0.580E-02    3.31       1.0  T
   3    -82.4984754  0.382658E-05  0.121E-02    3.31       1.3  T
   4    -82.4984806 -0.520701E-05  0.291E-03    3.31       5.3  T
   5    -82.4984807 -0.876089E-07  0.155E-03    3.31      10.0  T
   6    -82.4984807 -0.203480E-07  0.501E-04    3.31      30.8  T
   7    -82.4984807 -0.268483E-08  0.208E-04    3.31      74.2  T
     SCC iter.                  ...        0 min,  0.015 sec
     gradient                   ...        0 min,  0.007 sec
 * total energy  :   -81.7829175 Eh     change       -0.1039066E-02 Eh
   gradient norm :     0.0134125 Eh/α   predicted    -0.8445178E-03 ( -18.72%)
   displ. norm   :     0.4217365 α      lambda       -0.9811121E-03
   maximum displ.:     0.2197258 α      in ANC's #1, #2, #7, ...

........................................................................
.............................. CYCLE   14 ..............................
........................................................................

 iter      E             dE          RMSdq      gap      omega  full diag
   1    -82.5008225 -0.825008E+02  0.759E-02    3.31       0.0  T
   2    -82.5008259 -0.349116E-05  0.453E-02    3.32       1.0  T
   3    -82.5008216  0.433711E-05  0.139E-02    3.32       1.1  T
   4    -82.5008273 -0.569684E-05  0.257E-03    3.32       6.0  T
   5    -82.5008273 -0.432565E-07  0.125E-03    3.32      12.3  T
   6    -82.5008274 -0.119451E-07  0.427E-04    3.32      36.1  T
   7    -82.5008274 -0.209124E-08  0.177E-04    3.32      87.0  T
     SCC iter.                  ...        0 min,  0.013 sec
     gradient                   ...        0 min,  0.007 sec
 * total energy  :   -81.7836550 Eh     change       -0.7374179E-03 Eh
   gradient norm :     0.0110668 Eh/α   predicted    -0.5778081E-03 ( -21.64%)
   displ. norm   :     0.3836116 α      lambda       -0.7126163E-03
   maximum displ.:     0.2232503 α      in ANC's #1, #2, #7, ...

........................................................................
.............................. CYCLE   15 ..............................
........................................................................

 iter      E             dE          RMSdq      gap      omega  full diag
   1    -82.5015551 -0.825016E+02  0.605E-02    3.32       0.0  T
   2    -82.5015579 -0.282112E-05  0.361E-02    3.33       1.0  T
   3    -82.5015540  0.391394E-05  0.141E-02    3.33       1.1  T
   4    -82.5015592 -0.518818E-05  0.216E-03    3.33       7.1  T
   5    -82.5015592 -0.305232E-07  0.980E-04    3.33      15.8  T
   6    -82.5015592 -0.600461E-08  0.443E-04    3.33      34.8  T
     SCC iter.                  ...        0 min,  0.015 sec
     gradient                   ...        0 min,  0.007 sec
 * total energy  :   -81.7841942 Eh     change       -0.5392836E-03 Eh
   gradient norm :     0.0097453 Eh/α   predicted    -0.4087432E-03 ( -24.21%)
   displ. norm   :     0.3565751 α      lambda       -0.6106762E-03
   maximum displ.:     0.2364091 α      in ANC's #1, #2, #10, ...

........................................................................
.............................. CYCLE   16 ..............................
........................................................................

 iter      E             dE          RMSdq      gap      omega  full diag
   1    -82.5039974 -0.825040E+02  0.514E-02    3.33       0.0  T
   2    -82.5040017 -0.428226E-05  0.310E-02    3.33       1.0  T
   3    -82.5039989  0.277779E-05  0.166E-02    3.33       1.0  T
   4    -82.5040038 -0.494076E-05  0.217E-03    3.33       7.1  T
   5    -82.5040039 -0.370347E-07  0.969E-04    3.33      15.9  T
   6    -82.5040039 -0.704051E-08  0.504E-04    3.33      30.6  T
     SCC iter.                  ...        0 min,  0.012 sec
     gradient                   ...        0 min,  0.007 sec
 * total energy  :   -81.7846492 Eh     change       -0.4549221E-03 Eh
   gradient norm :     0.0101548 Eh/α   predicted    -0.3441676E-03 ( -24.35%)
   displ. norm   :     0.4011398 α      lambda       -0.5727770E-03
   maximum displ.:     0.2807299 α      in ANC's #1, #2, #10, ...

........................................................................
.............................. CYCLE   17 ..............................
........................................................................

 iter      E             dE          RMSdq      gap      omega  full diag
   1    -82.5007287 -0.825007E+02  0.559E-02    3.33       0.0  T
   2    -82.5007328 -0.411113E-05  0.334E-02    3.33       1.0  T
   3    -82.5007306  0.216891E-05  0.118E-02    3.33       1.3  T
   4    -82.5007338 -0.319022E-05  0.296E-03    3.33       5.2  T
   5    -82.5007339 -0.974883E-07  0.122E-03    3.33      12.6  T
   6    -82.5007339 -0.886570E-08  0.483E-04    3.33      32.0  T
   7    -82.5007339 -0.259078E-08  0.214E-04    3.33      72.2  T
     SCC iter.                  ...        0 min,  0.013 sec
     gradient                   ...        0 min,  0.007 sec
 * total energy  :   -81.7850306 Eh     change       -0.3814090E-03 Eh
   gradient norm :     0.0108193 Eh/α   predicted    -0.3324814E-03 ( -12.83%)
   displ. norm   :     0.3275777 α      lambda       -0.6124266E-03
   maximum displ.:     0.2462314 α      in ANC's #1, #8, #10, ...

........................................................................
.............................. CYCLE   18 ..............................
........................................................................

 iter      E             dE          RMSdq      gap      omega  full diag
   1    -82.5057488 -0.825057E+02  0.590E-02    3.34       0.0  T
   2    -82.5057570 -0.821367E-05  0.351E-02    3.33       1.0  T
   3    -82.5057550  0.195815E-05  0.148E-02    3.33       1.0  T
   4    -82.5057587 -0.366213E-05  0.466E-03    3.32       3.3  T
   5    -82.5057590 -0.242809E-06  0.177E-03    3.32       8.7  T
   6    -82.5057590 -0.161961E-07  0.548E-04    3.33      28.2  T
   7    -82.5057590 -0.345598E-08  0.230E-04    3.33      67.0  T
     SCC iter.                  ...        0 min,  0.014 sec
     gradient                   ...        0 min,  0.007 sec
 * total energy  :   -81.7853453 Eh     change       -0.3147152E-03 Eh
   gradient norm :     0.0119442 Eh/α   predicted    -0.3390841E-03 (   7.74%)
   displ. norm   :     0.2657073 α      lambda       -0.3797607E-03
   maximum displ.:     0.2097352 α      in ANC's #1, #10, #2, ...

........................................................................
.............................. CYCLE   19 ..............................
........................................................................

 iter      E             dE          RMSdq      gap      omega  full diag
   1    -82.5027780 -0.825028E+02  0.442E-02    3.33       0.0  T
   2    -82.5027821 -0.408597E-05  0.260E-02    3.33       1.0  T
   3    -82.5027820  0.760799E-07  0.754E-03    3.33       2.0  T
   4    -82.5027826 -0.533908E-06  0.296E-03    3.33       5.2  T
   5    -82.5027827 -0.144024E-06  0.128E-03    3.33      12.1  T
   6    -82.5027827 -0.110168E-07  0.454E-04    3.33      34.0  T
   7    -82.5027827 -0.488639E-08  0.156E-04    3.33      99.2  T
     SCC iter.                  ...        0 min,  0.013 sec
     gradient                   ...        0 min,  0.007 sec
 * total energy  :   -81.7855413 Eh     change       -0.1960231E-03 Eh
   gradient norm :     0.0116405 Eh/α   predicted    -0.2032910E-03 (   3.71%)
   displ. norm   :     0.1703799 α      lambda       -0.4737640E-03
   maximum displ.:     0.1241933 α      in ANC's #1, #16, #9, ...

........................................................................
.............................. CYCLE   20 ..............................
........................................................................

 iter      E             dE          RMSdq      gap      omega  full diag
   1    -82.5024605 -0.825025E+02  0.460E-02    3.33       0.0  T
   2    -82.5024677 -0.723219E-05  0.281E-02    3.32       1.0  T
   3    -82.5024670  0.667466E-06  0.159E-02    3.32       1.0  T
   4    -82.5024703 -0.330509E-05  0.349E-03    3.32       4.4  T
   5    -82.5024705 -0.111406E-06  0.136E-03    3.32      11.4  T
   6    -82.5024705  0.295022E-08  0.664E-04    3.32      23.2  T
   7    -82.5024705 -0.123107E-07  0.211E-04    3.32      73.1  T
     SCC iter.                  ...        0 min,  0.013 sec
     gradient                   ...        0 min,  0.007 sec
 * total energy  :   -81.7857333 Eh     change       -0.1919797E-03 Eh
   gradient norm :     0.0088338 Eh/α   predicted    -0.2437635E-03 (  26.97%)
   displ. norm   :     0.1001386 α      lambda       -0.2085455E-03
   maximum displ.:     0.0706811 α      in ANC's #1, #12, #11, ...
 * RMSD in coord.:     1.1318364 α      energy gain  -0.2971369E+00 Eh

generating ANC from exact Hessian ...
Using Lindh-Hessian (1995)
 Shifting diagonal of input Hessian by    9.6369134368426111E-003
 Lowest  eigenvalues of input Hessian
    0.000000    0.000000    0.000000    0.000000    0.000000    0.000000
    0.010000    0.010077    0.010798    0.011374    0.013722    0.013879
    0.014966    0.015241    0.015629    0.017306    0.018028    0.018774
 Highest eigenvalues
    1.785882    1.825089    1.881367    1.892985    2.149457    2.165207


........................................................................
.............................. CYCLE   21 ..............................
........................................................................

 iter      E             dE          RMSdq      gap      omega  full diag
   1    -82.5031052 -0.825031E+02  0.252E-02    3.32       0.0  T
   2    -82.5031079 -0.273767E-05  0.152E-02    3.31       1.0  T
   3    -82.5031080 -0.803817E-07  0.875E-03    3.31       1.8  T
   4    -82.5031089 -0.929242E-06  0.182E-03    3.32       8.5  T
   5    -82.5031090 -0.293515E-07  0.699E-04    3.32      22.1  T
   6    -82.5031090 -0.298638E-08  0.347E-04    3.32      44.5  T
     SCC iter.                  ...        0 min,  0.011 sec
     gradient                   ...        0 min,  0.007 sec
 * total energy  :   -81.7858676 Eh     change       -0.1343411E-03 Eh
   gradient norm :     0.0053495 Eh/α   predicted     0.0000000E+00 (-100.00%)
   displ. norm   :     0.0640941 α      lambda       -0.9478437E-04
   maximum displ.:     0.0382030 α      in ANC's #1, #4, #13, ...

........................................................................
.............................. CYCLE   22 ..............................
........................................................................

 iter      E             dE          RMSdq      gap      omega  full diag
   1    -82.5040951 -0.825041E+02  0.162E-02    3.31       0.0  T
   2    -82.5040954 -0.248167E-06  0.980E-03    3.32       1.6  T
   3    -82.5040951  0.294384E-06  0.298E-03    3.32       5.2  T
   4    -82.5040955 -0.371705E-06  0.676E-04    3.32      22.8  T
   5    -82.5040955 -0.946544E-08  0.301E-04    3.32      51.2  T
     SCC iter.                  ...        0 min,  0.010 sec
     gradient                   ...        0 min,  0.007 sec
 * total energy  :   -81.7859470 Eh     change       -0.7934580E-04 Eh
   gradient norm :     0.0026669 Eh/α   predicted    -0.4969335E-04 ( -37.37%)
   displ. norm   :     0.1488422 α      lambda       -0.1321399E-03
   maximum displ.:     0.0955524 α      in ANC's #1, #4, #13, ...

........................................................................
.............................. CYCLE   23 ..............................
........................................................................

 iter      E             dE          RMSdq      gap      omega  full diag
   1    -82.5049271 -0.825049E+02  0.300E-02    3.32       0.0  T
   2    -82.5049277 -0.572639E-06  0.180E-02    3.32       1.0  T
   3    -82.5049271  0.588582E-06  0.418E-03    3.32       3.7  T
   4    -82.5049278 -0.761141E-06  0.123E-03    3.32      12.6  T
   5    -82.5049279 -0.236570E-07  0.543E-04    3.32      28.4  T
   6    -82.5049279 -0.426269E-08  0.213E-04    3.32      72.3  T
     SCC iter.                  ...        0 min,  0.011 sec
     gradient                   ...        0 min,  0.007 sec
 * total energy  :   -81.7860358 Eh     change       -0.8877477E-04 Eh
   gradient norm :     0.0022942 Eh/α   predicted    -0.6753486E-04 ( -23.93%)
   displ. norm   :     0.1223475 α      lambda       -0.5916231E-04
   maximum displ.:     0.0884748 α      in ANC's #1, #13, #4, ...

........................................................................
.............................. CYCLE   24 ..............................
........................................................................

 iter      E             dE          RMSdq      gap      omega  full diag
   1    -82.5048804 -0.825049E+02  0.193E-02    3.32       0.0  T
   2    -82.5048806 -0.187377E-06  0.116E-02    3.32       1.3  T
   3    -82.5048804  0.174157E-06  0.261E-03    3.32       5.9  T
   4    -82.5048806 -0.245707E-06  0.693E-04    3.32      22.3  T
   5    -82.5048806 -0.245497E-08  0.326E-04    3.32      47.3  T
     SCC iter.                  ...        0 min,  0.010 sec
     gradient                   ...        0 min,  0.007 sec
 * total energy  :   -81.7860850 Eh     change       -0.4929206E-04 Eh
   gradient norm :     0.0031652 Eh/α   predicted    -0.3002444E-04 ( -39.09%)
   displ. norm   :     0.1380133 α      lambda       -0.6853753E-04
   maximum displ.:     0.1022687 α      in ANC's #1, #13, #4, ...

........................................................................
.............................. CYCLE   25 ..............................
........................................................................

 iter      E             dE          RMSdq      gap      omega  full diag
   1    -82.5045000 -0.825045E+02  0.193E-02    3.32       0.0  T
   2    -82.5045003 -0.227298E-06  0.117E-02    3.32       1.3  T
   3    -82.5044999  0.335638E-06  0.365E-03    3.32       4.2  T
   4    -82.5045004 -0.444120E-06  0.668E-04    3.32      23.1  T
   5    -82.5045004 -0.112611E-08  0.329E-04    3.32      46.9  T
     SCC iter.                  ...        0 min,  0.010 sec
     gradient                   ...        0 min,  0.007 sec
 * total energy  :   -81.7861450 Eh     change       -0.5995881E-04 Eh
   gradient norm :     0.0027839 Eh/α   predicted    -0.3492219E-04 ( -41.76%)
   displ. norm   :     0.1665891 α      lambda       -0.7925235E-04
   maximum displ.:     0.1271566 α      in ANC's #1, #13, #4, ...

........................................................................
.............................. CYCLE   26 ..............................
........................................................................

 iter      E             dE          RMSdq      gap      omega  full diag
   1    -82.5040692 -0.825041E+02  0.223E-02    3.32       0.0  T
   2    -82.5040695 -0.310519E-06  0.136E-02    3.32       1.1  T
   3    -82.5040691  0.447713E-06  0.420E-03    3.32       3.7  T
   4    -82.5040696 -0.590360E-06  0.898E-04    3.32      17.2  T
   5    -82.5040696 -0.326068E-08  0.388E-04    3.32      39.7  T
     SCC iter.                  ...        0 min,  0.009 sec
     gradient                   ...        0 min,  0.007 sec
 * total energy  :   -81.7862122 Eh     change       -0.6718546E-04 Eh
   gradient norm :     0.0020543 Eh/α   predicted    -0.4072638E-04 ( -39.38%)
   displ. norm   :     0.1617459 α      lambda       -0.6502953E-04
   maximum displ.:     0.1277237 α      in ANC's #1, #13, #2, ...

........................................................................
.............................. CYCLE   27 ..............................
........................................................................

 iter      E             dE          RMSdq      gap      omega  full diag
   1    -82.5038931 -0.825039E+02  0.213E-02    3.32       0.0  T
   2    -82.5038934 -0.257885E-06  0.130E-02    3.32       1.2  T
   3    -82.5038932  0.214529E-06  0.310E-03    3.32       5.0  T
   4    -82.5038935 -0.309475E-06  0.104E-03    3.32      14.9  T
   5    -82.5038935 -0.758303E-08  0.360E-04    3.32      42.9  T
   6    -82.5038935 -0.284983E-08  0.135E-04    3.32     114.1  T
     SCC iter.                  ...        0 min,  0.011 sec
     gradient                   ...        0 min,  0.007 sec
 * total energy  :   -81.7862682 Eh     change       -0.5600789E-04 Eh
   gradient norm :     0.0018546 Eh/α   predicted    -0.3336717E-04 ( -40.42%)
   displ. norm   :     0.2001442 α      lambda       -0.4950203E-04
   maximum displ.:     0.1633819 α      in ANC's #1, #13, #2, ...

........................................................................
.............................. CYCLE   28 ..............................
........................................................................

 iter      E             dE          RMSdq      gap      omega  full diag
   1    -82.5040663 -0.825041E+02  0.267E-02    3.32       0.0  T
   2    -82.5040667 -0.438061E-06  0.162E-02    3.32       1.0  T
   3    -82.5040665  0.204494E-06  0.329E-03    3.32       4.7  T
   4    -82.5040669 -0.333596E-06  0.141E-03    3.32      10.9  T
   5    -82.5040669 -0.215239E-07  0.484E-04    3.32      31.9  T
   6    -82.5040669 -0.700960E-08  0.182E-04    3.32      85.0  T
     SCC iter.                  ...        0 min,  0.011 sec
     gradient                   ...        0 min,  0.007 sec
 * total energy  :   -81.7863315 Eh     change       -0.6326548E-04 Eh
   gradient norm :     0.0019854 Eh/α   predicted    -0.2519463E-04 ( -60.18%)
   displ. norm   :     0.1502691 α      lambda       -0.3729048E-04
   maximum displ.:     0.1263764 α      in ANC's #1, #13, #2, ...

........................................................................
.............................. CYCLE   29 ..............................
........................................................................

 iter      E             dE          RMSdq      gap      omega  full diag
   1    -82.5044144 -0.825044E+02  0.207E-02    3.32       0.0  T
   2    -82.5044147 -0.244039E-06  0.125E-02    3.32       1.2  T
   3    -82.5044145  0.176565E-06  0.270E-03    3.32       5.7  T
   4    -82.5044148 -0.261886E-06  0.949E-04    3.32      16.3  T
   5    -82.5044148 -0.567205E-08  0.343E-04    3.32      44.9  T
     SCC iter.                  ...        0 min,  0.010 sec
     gradient                   ...        0 min,  0.007 sec
 * total energy  :   -81.7863831 Eh     change       -0.5161583E-04 Eh
   gradient norm :     0.0017272 Eh/α   predicted    -0.1883275E-04 ( -63.51%)
   displ. norm   :     0.1590755 α      lambda       -0.4182280E-04
   maximum displ.:     0.1326285 α      in ANC's #1, #13, #8, ...

........................................................................
.............................. CYCLE   30 ..............................
........................................................................

 iter      E             dE          RMSdq      gap      omega  full diag
   1    -82.5047265 -0.825047E+02  0.218E-02    3.32       0.0  T
   2    -82.5047268 -0.208834E-06  0.131E-02    3.32       1.2  T
   3    -82.5047266  0.117719E-06  0.236E-03    3.32       6.5  T
   4    -82.5047268 -0.195501E-06  0.809E-04    3.32      19.1  T
   5    -82.5047268 -0.356026E-08  0.329E-04    3.32      46.9  T
     SCC iter.                  ...        0 min,  0.009 sec
     gradient                   ...        0 min,  0.007 sec
 * total energy  :   -81.7864417 Eh     change       -0.5857831E-04 Eh
   gradient norm :     0.0014492 Eh/α   predicted    -0.2114926E-04 ( -63.90%)
   displ. norm   :     0.2115484 α      lambda       -0.5393773E-04
   maximum displ.:     0.1731107 α      in ANC's #1, #13, #8, ...

........................................................................
.............................. CYCLE   31 ..............................
........................................................................

 iter      E             dE          RMSdq      gap      omega  full diag
   1    -82.5047218 -0.825047E+02  0.284E-02    3.32       0.0  T
   2    -82.5047220 -0.249064E-06  0.170E-02    3.32       1.0  T
   3    -82.5047220  0.296961E-08  0.197E-03    3.32       7.8  T
   4    -82.5047221 -0.100502E-06  0.884E-04    3.32      17.5  T
   5    -82.5047221 -0.432392E-08  0.401E-04    3.32      38.5  T
     SCC iter.                  ...        0 min,  0.009 sec
     gradient                   ...        0 min,  0.007 sec
 * total energy  :   -81.7865168 Eh     change       -0.7519006E-04 Eh
   gradient norm :     0.0013940 Eh/α   predicted    -0.2750669E-04 ( -63.42%)
   displ. norm   :     0.2813333 α      lambda       -0.6759880E-04
   maximum displ.:     0.2287722 α      in ANC's #1, #13, #8, ...

........................................................................
.............................. CYCLE   32 ..............................
........................................................................

 iter      E             dE          RMSdq      gap      omega  full diag
   1    -82.5045238 -0.825045E+02  0.369E-02    3.32       0.0  T
   2    -82.5045242 -0.389739E-06  0.221E-02    3.32       1.0  T
   3    -82.5045241  0.435367E-07  0.247E-03    3.32       6.3  T
   4    -82.5045244 -0.206156E-06  0.110E-03    3.32      14.0  T
   5    -82.5045244 -0.111469E-07  0.536E-04    3.32      28.8  T
   6    -82.5045244 -0.413887E-08  0.146E-04    3.32     105.6  T
     SCC iter.                  ...        0 min,  0.012 sec
     gradient                   ...        0 min,  0.007 sec
 * total energy  :   -81.7866104 Eh     change       -0.9351435E-04 Eh
   gradient norm :     0.0016817 Eh/α   predicted    -0.3499104E-04 ( -62.58%)
   displ. norm   :     0.3605864 α      lambda       -0.8264190E-04
   maximum displ.:     0.2946871 α      in ANC's #1, #13, #11, ...

........................................................................
.............................. CYCLE   33 ..............................
........................................................................

 iter      E             dE          RMSdq      gap      omega  full diag
   1    -82.5038465 -0.825038E+02  0.475E-02    3.32       0.0  T
   2    -82.5038472 -0.684635E-06  0.284E-02    3.32       1.0  T
   3    -82.5038470  0.183506E-06  0.342E-03    3.32       4.5  T
   4    -82.5038474 -0.462216E-06  0.137E-03    3.32      11.3  T
   5    -82.5038475 -0.200851E-07  0.680E-04    3.32      22.7  T
   6    -82.5038475 -0.499634E-08  0.197E-04    3.32      78.5  T
     SCC iter.                  ...        0 min,  0.011 sec
     gradient                   ...        0 min,  0.007 sec
 * total energy  :   -81.7867227 Eh     change       -0.1123231E-03 Eh
   gradient norm :     0.0024253 Eh/α   predicted    -0.4370899E-04 ( -61.09%)
   displ. norm   :     0.3059001 α      lambda       -0.1053587E-03
   maximum displ.:     0.2537031 α      in ANC's #1, #13, #11, ...

........................................................................
.............................. CYCLE   34 ..............................
........................................................................

 iter      E             dE          RMSdq      gap      omega  full diag
   1    -82.5036473 -0.825036E+02  0.398E-02    3.32       0.0  T
   2    -82.5036478 -0.494939E-06  0.239E-02    3.32       1.0  T
   3    -82.5036475  0.212352E-06  0.313E-03    3.32       4.9  T
   4    -82.5036480 -0.424381E-06  0.116E-03    3.32      13.3  T
   5    -82.5036480 -0.143577E-07  0.570E-04    3.32      27.0  T
   6    -82.5036480 -0.310592E-08  0.174E-04    3.32      88.9  T
     SCC iter.                  ...        0 min,  0.011 sec
     gradient                   ...        0 min,  0.007 sec
 * total energy  :   -81.7868197 Eh     change       -0.9704453E-04 Eh
   gradient norm :     0.0026177 Eh/α   predicted    -0.5760938E-04 ( -40.64%)
   displ. norm   :     0.4626087 α      lambda       -0.1581524E-03
   maximum displ.:     0.3863869 α      in ANC's #1, #13, #11, ...

........................................................................
.............................. CYCLE   35 ..............................
........................................................................

 iter      E             dE          RMSdq      gap      omega  full diag
   1    -82.5024518 -0.825025E+02  0.613E-02    3.32       0.0  T
   2    -82.5024531 -0.128946E-05  0.367E-02    3.32       1.0  T
   3    -82.5024527  0.370850E-06  0.473E-03    3.31       3.3  T
   4    -82.5024535 -0.854830E-06  0.180E-03    3.32       8.6  T
   5    -82.5024536 -0.385089E-07  0.890E-04    3.32      17.3  T
   6    -82.5024536 -0.659095E-08  0.280E-04    3.32      55.2  T
     SCC iter.                  ...        0 min,  0.011 sec
     gradient                   ...        0 min,  0.007 sec
 * total energy  :   -81.7869577 Eh     change       -0.1379771E-03 Eh
   gradient norm :     0.0043178 Eh/α   predicted    -0.9600017E-04 ( -30.42%)
   displ. norm   :     0.6174224 α      lambda       -0.2245355E-03
   maximum displ.:     0.5267437 α      in ANC's #1, #13, #4, ...

........................................................................
.............................. CYCLE   36 ..............................
........................................................................

 iter      E             dE          RMSdq      gap      omega  full diag
   1    -82.5009762 -0.825010E+02  0.818E-02    3.31       0.0  T
   2    -82.5009785 -0.229716E-05  0.491E-02    3.32       1.0  T
   3    -82.5009775  0.996725E-06  0.689E-03    3.31       2.2  T
   4    -82.5009794 -0.191584E-05  0.245E-03    3.32       6.3  T
   5    -82.5009795 -0.650385E-07  0.122E-03    3.32      12.7  T
   6    -82.5009795 -0.139273E-07  0.397E-04    3.32      38.9  T
   7    -82.5009795 -0.235070E-08  0.152E-04    3.32     101.8  T
     SCC iter.                  ...        0 min,  0.016 sec
     gradient                   ...        0 min,  0.007 sec
 * total energy  :   -81.7871357 Eh     change       -0.1780017E-03 Eh
   gradient norm :     0.0055137 Eh/α   predicted    -0.1550703E-03 ( -12.88%)
   displ. norm   :     0.4975236 α      lambda       -0.2351967E-03
   maximum displ.:     0.4303218 α      in ANC's #1, #2, #4, ...

........................................................................
.............................. CYCLE   37 ..............................
........................................................................

 iter      E             dE          RMSdq      gap      omega  full diag
   1    -82.5026115 -0.825026E+02  0.682E-02    3.31       0.0  T
   2    -82.5026132 -0.170209E-05  0.409E-02    3.32       1.0  T
   3    -82.5026128  0.378515E-06  0.565E-03    3.32       2.7  T
   4    -82.5026138 -0.100048E-05  0.206E-03    3.32       7.5  T
   5    -82.5026138 -0.339063E-07  0.103E-03    3.32      14.9  T
   6    -82.5026138 -0.709350E-08  0.290E-04    3.32      53.2  T
   7    -82.5026138 -0.866862E-09  0.114E-04    3.32     135.7  T
     SCC iter.                  ...        0 min,  0.013 sec
     gradient                   ...        0 min,  0.007 sec
 * total energy  :   -81.7873278 Eh     change       -0.1921280E-03 Eh
   gradient norm :     0.0044645 Eh/α   predicted    -0.1467110E-03 ( -23.64%)
   displ. norm   :     0.6904570 α      lambda       -0.3117927E-03
   maximum displ.:     0.5884333 α      in ANC's #1, #2, #13, ...

........................................................................
.............................. CYCLE   38 ..............................
........................................................................

 iter      E             dE          RMSdq      gap      omega  full diag
   1    -82.5004774 -0.825005E+02  0.965E-02    3.32       0.0  T
   2    -82.5004817 -0.426519E-05  0.578E-02    3.32       1.0  T
   3    -82.5004815  0.182121E-06  0.807E-03    3.32       1.9  T
   4    -82.5004829 -0.136765E-05  0.341E-03    3.32       4.5  T
   5    -82.5004830 -0.133715E-06  0.162E-03    3.32       9.5  T
   6    -82.5004830 -0.916563E-08  0.472E-04    3.32      32.7  T
   7    -82.5004830 -0.307587E-08  0.197E-04    3.32      78.4  T
     SCC iter.                  ...        0 min,  0.013 sec
     gradient                   ...        0 min,  0.007 sec
 * total energy  :   -81.7875530 Eh     change       -0.2251998E-03 Eh
   gradient norm :     0.0082071 Eh/α   predicted    -0.2302201E-03 (   2.23%)
   displ. norm   :     0.4641121 α      lambda       -0.5388578E-03
   maximum displ.:     0.3161484 α      in ANC's #1, #2, #3, ...

........................................................................
.............................. CYCLE   39 ..............................
........................................................................

 iter      E             dE          RMSdq      gap      omega  full diag
   1    -82.5111734 -0.825112E+02  0.761E-02    3.33       0.0  T
   2    -82.5111789 -0.551227E-05  0.453E-02    3.33       1.0  T
   3    -82.5111720  0.691039E-05  0.158E-02    3.34       1.0  T
   4    -82.5111808 -0.886693E-05  0.347E-03    3.33       4.4  T
   5    -82.5111810 -0.178861E-06  0.165E-03    3.34       9.4  T
   6    -82.5111810 -0.114873E-07  0.573E-04    3.33      26.9  T
   7    -82.5111810 -0.419149E-08  0.197E-04    3.34      78.2  T
     SCC iter.                  ...        0 min,  0.013 sec
     gradient                   ...        0 min,  0.007 sec
 * total energy  :   -81.7878003 Eh     change       -0.2473023E-03 Eh
   gradient norm :     0.0083653 Eh/α   predicted    -0.3274671E-03 (  32.42%)
   displ. norm   :     0.6408156 α      lambda       -0.4435494E-03
   maximum displ.:     0.5401229 α      in ANC's #1, #2, #13, ...

........................................................................
.............................. CYCLE   40 ..............................
........................................................................

 iter      E             dE          RMSdq      gap      omega  full diag
   1    -82.5044775 -0.825045E+02  0.933E-02    3.33       0.0  T
   2    -82.5044822 -0.476654E-05  0.561E-02    3.33       1.0  T
   3    -82.5044814  0.773310E-06  0.870E-03    3.33       1.8  T
   4    -82.5044835 -0.205091E-05  0.339E-03    3.33       4.6  T
   5    -82.5044836 -0.148381E-06  0.168E-03    3.33       9.2  T
   6    -82.5044837 -0.302661E-07  0.572E-04    3.33      27.0  T
   7    -82.5044837 -0.427853E-08  0.222E-04    3.33      69.7  T
     SCC iter.                  ...        0 min,  0.013 sec
     gradient                   ...        0 min,  0.007 sec
 * total energy  :   -81.7881530 Eh     change       -0.3526484E-03 Eh
   gradient norm :     0.0051770 Eh/α   predicted    -0.3128463E-03 ( -11.29%)
   displ. norm   :     0.5398512 α      lambda       -0.3333390E-03
   maximum displ.:     0.4312786 α      in ANC's #1, #2, #3, ...

........................................................................
.............................. CYCLE   41 ..............................
........................................................................

 iter      E             dE          RMSdq      gap      omega  full diag
   1    -82.5001687 -0.825002E+02  0.832E-02    3.32       0.0  T
   2    -82.5001729 -0.423217E-05  0.500E-02    3.32       1.0  T
   3    -82.5001713  0.161869E-05  0.967E-03    3.33       1.6  T
   4    -82.5001741 -0.285547E-05  0.297E-03    3.33       5.2  T
   5    -82.5001742 -0.889573E-07  0.152E-03    3.33      10.1  T
   6    -82.5001742 -0.121427E-07  0.539E-04    3.33      28.6  T
   7    -82.5001742 -0.223778E-08  0.204E-04    3.33      75.7  T
     SCC iter.                  ...        0 min,  0.013 sec
     gradient                   ...        0 min,  0.007 sec
 * total energy  :   -81.7883708 Eh     change       -0.2178080E-03 Eh
   gradient norm :     0.0077057 Eh/α   predicted    -0.2152493E-03 (  -1.17%)
   displ. norm   :     0.4289760 α      lambda       -0.3177441E-03
   maximum displ.:     0.3230924 α      in ANC's #1, #2, #9, ...

........................................................................
.............................. CYCLE   42 ..............................
........................................................................

 iter      E             dE          RMSdq      gap      omega  full diag
   1    -82.4992419 -0.824992E+02  0.660E-02    3.34       0.0  T
   2    -82.4992459 -0.402426E-05  0.401E-02    3.33       1.0  T
   3    -82.4992443  0.165373E-05  0.990E-03    3.33       1.6  T
   4    -82.4992470 -0.268754E-05  0.295E-03    3.33       5.2  T
   5    -82.4992471 -0.108201E-06  0.151E-03    3.33      10.2  T
   6    -82.4992471 -0.198717E-07  0.518E-04    3.33      29.8  T
   7    -82.4992471 -0.293636E-08  0.189E-04    3.33      81.7  T
     SCC iter.                  ...        0 min,  0.013 sec
     gradient                   ...        0 min,  0.007 sec
 * total energy  :   -81.7885982 Eh     change       -0.2273694E-03 Eh
   gradient norm :     0.0082169 Eh/α   predicted    -0.1881093E-03 ( -17.27%)
   displ. norm   :     0.4851161 α      lambda       -0.4841305E-03
   maximum displ.:     0.3469147 α      in ANC's #2, #1, #3, ...
 * RMSD in coord.:     0.9836804 α      energy gain  -0.2864872E-02 Eh

generating ANC from exact Hessian ...
Using Lindh-Hessian (1995)
 Shifting diagonal of input Hessian by    9.7169051711744701E-003
 Lowest  eigenvalues of input Hessian
    0.000000    0.000000    0.000000    0.000000    0.000000    0.000000
    0.010000    0.010208    0.010933    0.011122    0.013947    0.014175
    0.015032    0.015481    0.015882    0.016907    0.018298    0.018904
 Highest eigenvalues
    1.787765    1.821824    1.876128    1.895699    2.143785    2.166229


........................................................................
.............................. CYCLE   43 ..............................
........................................................................

 iter      E             dE          RMSdq      gap      omega  full diag
   1    -82.5052946 -0.825053E+02  0.798E-02    3.34       0.0  T
   2    -82.5052995 -0.487381E-05  0.479E-02    3.34       1.0  T
   3    -82.5052901  0.932891E-05  0.181E-02    3.34       1.0  T
   4    -82.5053019 -0.117886E-04  0.307E-03    3.34       5.0  T
   5    -82.5053020 -0.678767E-07  0.169E-03    3.34       9.1  T
   6    -82.5053020 -0.159890E-07  0.678E-04    3.34      22.8  T
   7    -82.5053020 -0.571960E-08  0.158E-04    3.34      97.6  T
     SCC iter.                  ...        0 min,  0.013 sec
     gradient                   ...        0 min,  0.007 sec
 * total energy  :   -81.7889399 Eh     change       -0.3417455E-03 Eh
   gradient norm :     0.0075648 Eh/α   predicted     0.0000000E+00 (-100.00%)
   displ. norm   :     0.0959210 α      lambda       -0.2372540E-03
   maximum displ.:     0.0713070 α      in ANC's #2, #3, #1, ...

........................................................................
.............................. CYCLE   44 ..............................
........................................................................

 iter      E             dE          RMSdq      gap      omega  full diag
   1    -82.5065592 -0.825066E+02  0.318E-02    3.35       0.0  T
   2    -82.5065602 -0.968840E-06  0.189E-02    3.35       1.0  T
   3    -82.5065599  0.251694E-06  0.386E-03    3.35       4.0  T
   4    -82.5065603 -0.396304E-06  0.122E-03    3.35      12.6  T
   5    -82.5065603 -0.250533E-07  0.573E-04    3.35      26.9  T
   6    -82.5065603 -0.384716E-09  0.261E-04    3.35      59.1  T
     SCC iter.                  ...        0 min,  0.012 sec
     gradient                   ...        0 min,  0.007 sec
 * total energy  :   -81.7891190 Eh     change       -0.1791023E-03 Eh
   gradient norm :     0.0029610 Eh/α   predicted    -0.1199787E-03 ( -33.01%)
   displ. norm   :     0.1761708 α      lambda       -0.2107172E-03
   maximum displ.:     0.1338067 α      in ANC's #2, #1, #3, ...

........................................................................
.............................. CYCLE   45 ..............................
........................................................................

 iter      E             dE          RMSdq      gap      omega  full diag
   1    -82.5076116 -0.825076E+02  0.437E-02    3.35       0.0  T
   2    -82.5076129 -0.125948E-05  0.261E-02    3.35       1.0  T
   3    -82.5076123  0.541598E-06  0.497E-03    3.35       3.1  T
   4    -82.5076132 -0.853850E-06  0.142E-03    3.35      10.9  T
   5    -82.5076132 -0.181463E-07  0.696E-04    3.35      22.2  T
   6    -82.5076132 -0.116047E-08  0.278E-04    3.35      55.5  T
     SCC iter.                  ...        0 min,  0.011 sec
     gradient                   ...        0 min,  0.007 sec
 * total energy  :   -81.7892827 Eh     change       -0.1636968E-03 Eh
   gradient norm :     0.0030343 Eh/α   predicted    -0.1086538E-03 ( -33.62%)
   displ. norm   :     0.2153654 α      lambda       -0.1821963E-03
   maximum displ.:     0.1623593 α      in ANC's #2, #1, #3, ...

........................................................................
.............................. CYCLE   46 ..............................
........................................................................

 iter      E             dE          RMSdq      gap      omega  full diag
   1    -82.5077852 -0.825078E+02  0.473E-02    3.35       0.0  T
   2    -82.5077862 -0.944572E-06  0.283E-02    3.35       1.0  T
   3    -82.5077856  0.572783E-06  0.497E-03    3.35       3.1  T
   4    -82.5077865 -0.927726E-06  0.152E-03    3.35      10.1  T
   5    -82.5077866 -0.101801E-07  0.735E-04    3.35      21.0  T
   6    -82.5077866 -0.471940E-08  0.302E-04    3.35      51.2  T
     SCC iter.                  ...        0 min,  0.011 sec
     gradient                   ...        0 min,  0.007 sec
 * total energy  :   -81.7894441 Eh     change       -0.1613510E-03 Eh
   gradient norm :     0.0044298 Eh/α   predicted    -0.9533138E-04 ( -40.92%)
   displ. norm   :     0.2603702 α      lambda       -0.2141831E-03
   maximum displ.:     0.1938556 α      in ANC's #2, #1, #3, ...

........................................................................
.............................. CYCLE   47 ..............................
........................................................................

 iter      E             dE          RMSdq      gap      omega  full diag
   1    -82.5074223 -0.825074E+02  0.551E-02    3.35       0.0  T
   2    -82.5074232 -0.912051E-06  0.330E-02    3.35       1.0  T
   3    -82.5074225  0.682181E-06  0.577E-03    3.35       2.7  T
   4    -82.5074236 -0.112569E-05  0.176E-03    3.35       8.8  T
   5    -82.5074236 -0.817076E-08  0.812E-04    3.35      19.0  T
   6    -82.5074236 -0.582870E-08  0.279E-04    3.35      55.3  T
     SCC iter.                  ...        0 min,  0.011 sec
     gradient                   ...        0 min,  0.007 sec
 * total energy  :   -81.7896390 Eh     change       -0.1949151E-03 Eh
   gradient norm :     0.0041877 Eh/α   predicted    -0.1143527E-03 ( -41.33%)
   displ. norm   :     0.3050964 α      lambda       -0.2431576E-03
   maximum displ.:     0.2273971 α      in ANC's #2, #1, #13, ...

........................................................................
.............................. CYCLE   48 ..............................
........................................................................

 iter      E             dE          RMSdq      gap      omega  full diag
   1    -82.5069467 -0.825069E+02  0.628E-02    3.34       0.0  T
   2    -82.5069477 -0.100667E-05  0.376E-02    3.34       1.0  T
   3    -82.5069470  0.648034E-06  0.625E-03    3.34       2.5  T
   4    -82.5069482 -0.115701E-05  0.195E-03    3.34       7.9  T
   5    -82.5069482 -0.133616E-07  0.879E-04    3.34      17.5  T
   6    -82.5069482 -0.239847E-08  0.237E-04    3.34      65.1  T
     SCC iter.                  ...        0 min,  0.011 sec
     gradient                   ...        0 min,  0.007 sec
 * total energy  :   -81.7898586 Eh     change       -0.2196593E-03 Eh
   gradient norm :     0.0036352 Eh/α   predicted    -0.1328965E-03 ( -39.50%)
   displ. norm   :     0.3451724 α      lambda       -0.2636591E-03
   maximum displ.:     0.2565928 α      in ANC's #2, #1, #13, ...

........................................................................
.............................. CYCLE   49 ..............................
........................................................................

 iter      E             dE          RMSdq      gap      omega  full diag
   1    -82.5065392 -0.825065E+02  0.682E-02    3.34       0.0  T
   2    -82.5065403 -0.104051E-05  0.409E-02    3.34       1.0  T
   3    -82.5065399  0.372007E-06  0.570E-03    3.34       2.7  T
   4    -82.5065408 -0.892014E-06  0.208E-03    3.34       7.4  T
   5    -82.5065408 -0.163263E-07  0.955E-04    3.34      16.2  T
   6    -82.5065408 -0.420840E-08  0.210E-04    3.34      73.6  T
     SCC iter.                  ...        0 min,  0.011 sec
     gradient                   ...        0 min,  0.007 sec
 * total energy  :   -81.7900994 Eh     change       -0.2407935E-03 Eh
   gradient norm :     0.0042498 Eh/α   predicted    -0.1475375E-03 ( -38.73%)
   displ. norm   :     0.4313947 α      lambda       -0.3323204E-03
   maximum displ.:     0.3177732 α      in ANC's #2, #1, #13, ...

........................................................................
.............................. CYCLE   50 ..............................
........................................................................

 iter      E             dE          RMSdq      gap      omega  full diag
   1    -82.5060481 -0.825060E+02  0.812E-02    3.34       0.0  T
   2    -82.5060495 -0.134148E-05  0.488E-02    3.34       1.0  T
   3    -82.5060494  0.721484E-07  0.527E-03    3.33       2.9  T
   4    -82.5060501 -0.744046E-06  0.241E-03    3.34       6.4  T
   5    -82.5060502 -0.205538E-07  0.108E-03    3.33      14.2  T
   6    -82.5060502 -0.115741E-07  0.231E-04    3.33      66.8  T
   7    -82.5060502 -0.180455E-08  0.712E-05    3.33     216.6  T
     SCC iter.                  ...        0 min,  0.013 sec
     gradient                   ...        0 min,  0.007 sec
 * total energy  :   -81.7904049 Eh     change       -0.3054518E-03 Eh
   gradient norm :     0.0056884 Eh/α   predicted    -0.1970873E-03 ( -35.48%)
   displ. norm   :     0.5999492 α      lambda       -0.4778834E-03
   maximum displ.:     0.4412827 α      in ANC's #2, #1, #13, ...

........................................................................
.............................. CYCLE   51 ..............................
........................................................................

 iter      E             dE          RMSdq      gap      omega  full diag
   1    -82.5049223 -0.825049E+02  0.108E-01    3.34       0.0  T
   2    -82.5049247 -0.242975E-05  0.649E-02    3.33       1.0  T
   3    -82.5049247 -0.237185E-07  0.644E-03    3.33       2.4  T
   4    -82.5049259 -0.118452E-05  0.316E-03    3.33       4.9  T
   5    -82.5049259 -0.366809E-07  0.133E-03    3.33      11.6  T
   6    -82.5049260 -0.266370E-07  0.315E-04    3.33      48.9  T
   7    -82.5049260 -0.317121E-08  0.106E-04    3.33     145.9  T
     SCC iter.                  ...        0 min,  0.013 sec
     gradient                   ...        0 min,  0.007 sec
 * total energy  :   -81.7908321 Eh     change       -0.4271923E-03 Eh
   gradient norm :     0.0075943 Eh/α   predicted    -0.3249476E-03 ( -23.93%)
   displ. norm   :     0.7293426 α      lambda       -0.6150351E-03
   maximum displ.:     0.5425897 α      in ANC's #2, #1, #13, ...

........................................................................
.............................. CYCLE   52 ..............................
........................................................................

 iter      E             dE          RMSdq      gap      omega  full diag
   1    -82.5038907 -0.825039E+02  0.126E-01    3.34       0.0  T
   2    -82.5038942 -0.348332E-05  0.758E-02    3.34       1.0  T
   3    -82.5038940  0.160533E-06  0.846E-03    3.34       1.8  T
   4    -82.5038960 -0.195792E-05  0.378E-03    3.34       4.1  T
   5    -82.5038960 -0.353711E-07  0.152E-03    3.34      10.2  T
   6    -82.5038961 -0.272512E-07  0.347E-04    3.34      44.5  T
   7    -82.5038961 -0.205794E-08  0.122E-04    3.34     126.8  T
     SCC iter.                  ...        0 min,  0.013 sec
     gradient                   ...        0 min,  0.007 sec
 * total energy  :   -81.7913540 Eh     change       -0.5218981E-03 Eh
   gradient norm :     0.0091454 Eh/α   predicted    -0.4711107E-03 (  -9.73%)
   displ. norm   :     0.6067328 α      lambda       -0.6577808E-03
   maximum displ.:     0.4523790 α      in ANC's #2, #1, #3, ...

........................................................................
.............................. CYCLE   53 ..............................
........................................................................

 iter      E             dE          RMSdq      gap      omega  full diag
   1    -82.5079610 -0.825080E+02  0.999E-02    3.37       0.0  T
   2    -82.5079645 -0.355675E-05  0.604E-02    3.37       1.0  T
   3    -82.5079590  0.554798E-05  0.160E-02    3.37       1.0  T
   4    -82.5079666 -0.758536E-05  0.332E-03    3.36       4.6  T
   5    -82.5079666 -0.222420E-07  0.168E-03    3.36       9.2  T
   6    -82.5079666 -0.191016E-07  0.441E-04    3.36      35.0  T
   7    -82.5079666 -0.546649E-08  0.149E-04    3.36     103.4  T
     SCC iter.                  ...        0 min,  0.013 sec
     gradient                   ...        0 min,  0.007 sec
 * total energy  :   -81.7918794 Eh     change       -0.5254273E-03 Eh
   gradient norm :     0.0081986 Eh/α   predicted    -0.4499655E-03 ( -14.36%)
   displ. norm   :     0.7340331 α      lambda       -0.6559581E-03
   maximum displ.:     0.5545053 α      in ANC's #2, #1, #13, ...

........................................................................
.............................. CYCLE   54 ..............................
........................................................................

 iter      E             dE          RMSdq      gap      omega  full diag
   1    -82.5043135 -0.825043E+02  0.124E-01    3.36       0.0  T
   2    -82.5043216 -0.809715E-05  0.749E-02    3.36       1.0  T
   3    -82.5043203  0.129400E-05  0.119E-02    3.36       1.3  T
   4    -82.5043243 -0.395854E-05  0.418E-03    3.36       3.7  T
   5    -82.5043244 -0.891333E-07  0.205E-03    3.36       7.5  T
   6    -82.5043244 -0.975672E-08  0.706E-04    3.36      21.9  T
   7    -82.5043244 -0.171532E-07  0.208E-04    3.36      74.2  T
     SCC iter.                  ...        0 min,  0.013 sec
     gradient                   ...        0 min,  0.007 sec
 * total energy  :   -81.7923797 Eh     change       -0.5002783E-03 Eh
   gradient norm :     0.0093814 Eh/α   predicted    -0.5046959E-03 (   0.88%)
   displ. norm   :     0.4875926 α      lambda       -0.7804611E-03
   maximum displ.:     0.3535749 α      in ANC's #2, #1, #3, ...

........................................................................
.............................. CYCLE   55 ..............................
........................................................................

 iter      E             dE          RMSdq      gap      omega  full diag
   1    -82.5138674 -0.825139E+02  0.935E-02    3.39       0.0  T
   2    -82.5138822 -0.148108E-04  0.569E-02    3.39       1.0  T
   3    -82.5138657  0.165032E-04  0.265E-02    3.40       1.0  T
   4    -82.5138886 -0.229202E-04  0.453E-03    3.39       3.4  T
   5    -82.5138889 -0.266783E-06  0.232E-03    3.39       6.6  T
   6    -82.5138889 -0.510145E-07  0.101E-03    3.39      15.3  T
   7    -82.5138889 -0.103457E-07  0.341E-04    3.39      45.2  T
   8    -82.5138889 -0.191049E-08  0.107E-04    3.39     144.3  T
     SCC iter.                  ...        0 min,  0.015 sec
     gradient                   ...        0 min,  0.007 sec
 * total energy  :   -81.7928145 Eh     change       -0.4348201E-03 Eh
   gradient norm :     0.0083925 Eh/α   predicted    -0.4830074E-03 (  11.08%)
   displ. norm   :     0.6790045 α      lambda       -0.5389185E-03
   maximum displ.:     0.5094171 α      in ANC's #2, #1, #3, ...

........................................................................
.............................. CYCLE   56 ..............................
........................................................................

 iter      E             dE          RMSdq      gap      omega  full diag
   1    -82.5064608 -0.825065E+02  0.117E-01    3.38       0.0  T
   2    -82.5064673 -0.654192E-05  0.702E-02    3.38       1.0  T
   3    -82.5064640  0.329978E-05  0.141E-02    3.38       1.1  T
   4    -82.5064699 -0.584333E-05  0.407E-03    3.38       3.8  T
   5    -82.5064699 -0.666036E-07  0.197E-03    3.38       7.8  T
   6    -82.5064700 -0.283295E-07  0.752E-04    3.38      20.5  T
   7    -82.5064700 -0.676538E-08  0.190E-04    3.38      81.1  T
     SCC iter.                  ...        0 min,  0.015 sec
     gradient                   ...        0 min,  0.007 sec
 * total energy  :   -81.7931880 Eh     change       -0.3734625E-03 Eh
   gradient norm :     0.0108837 Eh/α   predicted    -0.3936961E-03 (   5.42%)
   displ. norm   :     0.4299740 α      lambda       -0.4980598E-03
   maximum displ.:     0.2915891 α      in ANC's #2, #1, #3, ...

........................................................................
.............................. CYCLE   57 ..............................
........................................................................

 iter      E             dE          RMSdq      gap      omega  full diag
   1    -82.5056762 -0.825057E+02  0.732E-02    3.41       0.0  T
   2    -82.5056864 -0.101917E-04  0.452E-02    3.40       1.0  T
   3    -82.5056770  0.937669E-05  0.258E-02    3.41       1.0  T
   4    -82.5056929 -0.159347E-04  0.321E-03    3.40       4.8  T
   5    -82.5056930 -0.968232E-07  0.164E-03    3.40       9.4  T
   6    -82.5056931 -0.311654E-07  0.793E-04    3.40      19.5  T
   7    -82.5056931 -0.428265E-08  0.250E-04    3.40      61.8  T
     SCC iter.                  ...        0 min,  0.013 sec
     gradient                   ...        0 min,  0.007 sec
 * total energy  :   -81.7935751 Eh     change       -0.3870975E-03 Eh
   gradient norm :     0.0079359 Eh/α   predicted    -0.2950820E-03 ( -23.77%)
   displ. norm   :     0.4934602 α      lambda       -0.6201193E-03
   maximum displ.:     0.2938079 α      in ANC's #2, #1, #3, ...

........................................................................
[...]
H33-C6-C1-C25=315.51          C1-C6-C5-C4=  1.59            C1-C6-C5-H30=242.37           C1-C6-C5-H31=121.58           
H32-C6-C5-C4=121.70           H32-C6-C5-H30=  2.48          H32-C6-C5-H31=241.69          H33-C6-C5-C4=242.58           
H33-C6-C5-H30=123.36          H33-C6-C5-H31=  2.57          C4-C7-C1-C2=307.10            C4-C7-C1-C6= 55.19            
C4-C7-C1-C25=181.20           C8-C7-C1-C2=189.47            C8-C7-C1-C6=297.56            C8-C7-C1-C25= 63.57           
C9-C7-C1-C2= 65.41            C9-C7-C1-C6=173.50            C9-C7-C1-C25=299.51           C1-C7-C4-C3= 56.06            
C1-C7-C4-C5=305.32            C1-C7-C4-H29=180.39           C8-C7-C4-C3=174.96            C8-C7-C4-C5= 64.22            
C8-C7-C4-H29=299.29           C9-C7-C4-C3=297.17            C9-C7-C4-C5=186.43            C9-C7-C4-H29= 61.50           
H34-C8-C7-C1=175.35           H34-C8-C7-C4= 69.88           H34-C8-C7-C9=303.61           H35-C8-C7-C1=293.57           
H35-C8-C7-C4=188.09           H35-C8-C7-C9= 61.83           H36-C8-C7-C1= 54.92           H36-C8-C7-C4=309.44           
H36-C8-C7-C9=183.18           H37-C9-C7-C1=324.06           H37-C9-C7-C4= 69.81           H37-C9-C7-C8=195.69           
H38-C9-C7-C1= 83.71           H38-C9-C7-C4=189.47           H38-C9-C7-C8=315.34           H39-C9-C7-C1=202.55           
H39-C9-C7-C4=308.30           H39-C9-C7-C8= 74.18           C11-O10-C2-C1=177.79          C11-O10-C2-C3= 62.72          
C11-O10-C2-H26=297.60         
           -------------------------------------------------
          |                Final Singlepoint                |
           -------------------------------------------------

          ...................................................
          :                      SETUP                      :
          :.................................................:
          :  # basis functions                 117          :
          :  # atomic orbitals                 117          :
          :  # shells                           67          :
          :  # electrons                       140          :
          :  max. iterations                   250          :
          :  Hamiltonian                  GFN2-xTB          :
          :  restarted?                      false          :
          :  GBSA solvation                  false          :
          :  PC potential                    false          :
          :  electronic temp.          300.0000000     K    :
          :  accuracy                    1.0000000          :
          :  -> integral cutoff          0.2500000E+02      :
          :  -> integral neglect         0.1000000E-07      :
          :  -> SCF convergence          0.1000000E-05 Eh   :
          :  -> wf. convergence          0.1000000E-03 e    :
          :  Broyden damping             0.4000000          :
          :  net charge                         -1          :
          :  unpaired electrons                  0          :
          ...................................................

 iter      E             dE          RMSdq      gap      omega  full diag
   1    -82.5207655 -0.825208E+02  0.729E-05    3.42       0.0  T
   2    -82.5207655 -0.345182E-10  0.439E-05    3.42     351.5  T
   3    -82.5207655 -0.802913E-11  0.268E-05    3.42     575.0  T

   *** convergence criteria satisfied after 3 iterations ***

         #    Occupation            Energy/Eh            Energy/eV
      -------------------------------------------------------------
         1        2.0000           -0.7318085             -19.9135
       ...           ...                  ...                  ...
        64        2.0000           -0.3021403              -8.2217
        65        2.0000           -0.2997697              -8.1571
        66        2.0000           -0.2920615              -7.9474
        67        2.0000           -0.2910541              -7.9200
        68        2.0000           -0.2897771              -7.8852
        69        2.0000           -0.2891500              -7.8682
        70        2.0000           -0.2652250              -7.2171 (HOMO)
        71                         -0.1394815              -3.7955 (LUMO)
        72                         -0.1349652              -3.6726
        73                         -0.0107289              -0.2919
        74                          0.0623235               1.6959
        75                          0.0847041               2.3049
       ...                                ...                  ...
       117                          0.7344214              19.9846
      -------------------------------------------------------------
                  HL-Gap            0.1257435 Eh            3.4217 eV
             Fermi-level           -0.2023533 Eh           -5.5063 eV

 SCC (total)                   0 d,  0 h,  0 min,  0.015 sec
 SCC setup                      ...        0 min,  0.000 sec (  0.636%)
 Dispersion                     ...        0 min,  0.000 sec (  1.359%)
 classical contributions        ...        0 min,  0.000 sec (  0.254%)
 integral evaluation            ...        0 min,  0.002 sec ( 12.925%)
 iterations                     ...        0 min,  0.006 sec ( 38.578%)
 molecular gradient             ...        0 min,  0.007 sec ( 45.309%)
 printout                       ...        0 min,  0.000 sec (  0.832%)

         :::::::::::::::::::::::::::::::::::::::::::::::::::::
         ::                     SUMMARY                     ::
         :::::::::::::::::::::::::::::::::::::::::::::::::::::
         :: total energy             -81.801378464810 Eh    ::
         :: gradient norm              0.000855408698 Eh/a0 ::
         :: HOMO-LUMO gap              3.421654854090 eV    ::
         ::.................................................::
         :: SCC energy               -82.520291762650 Eh    ::
         :: -> isotropic ES            0.239299888140 Eh    ::
         :: -> anisotropic ES          0.007491495896 Eh    ::
         :: -> anisotropic XC         -0.012820851500 Eh    ::
         :: -> dispersion             -0.046529149125 Eh    ::
         :: repulsion energy           0.718913297839 Eh    ::
         :: add. restraining           0.000000000000 Eh    ::
         :: total charge              -1.000000000000 e     ::
         :::::::::::::::::::::::::::::::::::::::::::::::::::::

           -------------------------------------------------
          |                Property Printout                |
           -------------------------------------------------

    * Orbital Energies and Occupations

         #    Occupation            Energy/Eh            Energy/eV
      -------------------------------------------------------------
         1        2.0000           -0.7318085             -19.9135
       ...           ...                  ...                  ...
        58        2.0000           -0.3456173              -9.4047
        59        2.0000           -0.3427810              -9.3275
        60        2.0000           -0.3401244              -9.2553
        61        2.0000           -0.3367015              -9.1621
        62        2.0000           -0.3339611              -9.0875
        63        2.0000           -0.3033245              -8.2539
        64        2.0000           -0.3021403              -8.2217
        65        2.0000           -0.2997697              -8.1571
        66        2.0000           -0.2920615              -7.9474
        67        2.0000           -0.2910541              -7.9200
        68        2.0000           -0.2897771              -7.8852
        69        2.0000           -0.2891500              -7.8682
        70        2.0000           -0.2652250              -7.2171 (HOMO)
        71                         -0.1394815              -3.7955 (LUMO)
        72                         -0.1349652              -3.6726
        73                         -0.0107289              -0.2919
        74                          0.0623235               1.6959
        75                          0.0847041               2.3049
        76                          0.0904732               2.4619
        77                          0.1017378               2.7684
        78                          0.1180081               3.2112
        79                          0.1388169               3.7774
        80                          0.1443189               3.9271
        81                          0.1485844               4.0432
       ...                                ...                  ...
       117                          0.7344214              19.9846
      -------------------------------------------------------------
                  HL-Gap            0.1257435 Eh            3.4217 eV
             Fermi-level           -0.2023533 Eh           -5.5063 eV

     #   Z          covCN         q      C6AA      α(0)
     1   6 C        4.015     0.009    20.347     6.408
     2   6 C        3.771     0.112    18.776     6.175
     3   6 C        3.834    -0.068    21.769     6.638
     4   6 C        3.974    -0.025    20.940     6.502
     5   6 C        3.832    -0.062    21.671     6.623
     6   6 C        3.839    -0.066    21.729     6.631
     7   6 C        3.956     0.015    20.249     6.394
     8   6 C        3.759    -0.105    22.564     6.772
     9   6 C        3.759    -0.112    22.692     6.791
    10   8 O        1.705    -0.255    18.222     5.763
    11   6 C        2.852     0.103    25.719     8.312
    12   6 C        2.787     0.106    25.634     8.293
    13   6 C        2.791     0.147    24.798     8.157
    14   6 C        2.858    -0.123    31.126     9.145
    15   6 C        2.794     0.149    24.760     8.151
    16   6 C        2.783     0.097    25.838     8.326
    17   9 F        0.785    -0.224    11.488     4.004
    18   9 F        0.788    -0.187    11.099     3.935
    19   5 B        3.037     0.596    13.537     6.137
    20   9 F        0.721    -0.408    13.634     4.360
    21   9 F        0.721    -0.407    13.614     4.357
    22   9 F        0.721    -0.401    13.539     4.345
    23   9 F        0.788    -0.187    11.104     3.936
    24   9 F        0.786    -0.211    11.352     3.980
    25   6 C        3.753    -0.105    22.565     6.774
    26   1 H        0.924     0.034     2.536     2.491
    27   1 H        0.925     0.042     2.417     2.431
    28   1 H        0.925     0.043     2.413     2.429
    29   1 H        0.925     0.023     2.689     2.564
    30   1 H        0.925     0.032     2.563     2.504
    31   1 H        0.924     0.026     2.648     2.545
    32   1 H        0.925     0.028     2.616     2.529
    33   1 H        0.925     0.031     2.576     2.510
    34   1 H        0.925     0.032     2.562     2.503
    35   1 H        0.925     0.033     2.542     2.493
    36   1 H        0.925     0.034     2.534     2.489
    37   1 H        0.925     0.065     2.143     2.289
    38   1 H        0.925     0.035     2.516     2.481
    39   1 H        0.925     0.027     2.625     2.534
    40   1 H        0.925     0.032     2.561     2.503
    41   1 H        0.925     0.062     2.179     2.309
    42   1 H        0.925     0.035     2.518     2.481

 Mol. C6AA /au·bohr⁶  :      18354.849268
 Mol. C8AA /au·bohr⁸  :     419287.332719
 Mol. α(0) /au        :        198.995920


Wiberg/Mayer (AO) data.
largest (>0.10) Wiberg bond orders for each atom

 ---------------------------------------------------------------------------
     #   Z sym  total        # sym  WBO       # sym  WBO       # sym  WBO
 ---------------------------------------------------------------------------
     1   6 C    3.986 --    25 C    1.009     6 C    0.983     2 C    0.962
                             7 C    0.955
     2   6 C    3.936 --     3 C    0.981     1 C    0.962    26 H    0.961
                            10 O    0.951
     3   6 C    3.994 --     4 C    0.997     2 C    0.981    27 H    0.977
                            28 H    0.974
     4   6 C    3.994 --     3 C    0.997     5 C    0.996    29 H    0.971
                             7 C    0.969
     5   6 C    3.997 --     6 C    1.001     4 C    0.996    30 H    0.979
                            31 H    0.979
     6   6 C    3.997 --     5 C    1.001     1 C    0.983    32 H    0.979
                            33 H    0.978
     7   6 C    3.988 --     9 C    1.001     8 C    1.001     4 C    0.969
                             1 C    0.955
     8   6 C    3.997 --     7 C    1.001    34 H    0.985    35 H    0.984
                            36 H    0.981
     9   6 C    3.993 --     7 C    1.001    39 H    0.985    38 H    0.984
                            37 H    0.975
    10   8 O    2.244 --    11 C    1.069     2 C    0.951
    11   6 C    3.946 --    16 C    1.338    12 C    1.312    10 O    1.069
    12   6 C    3.878 --    13 C    1.363    11 C    1.312    24 F    0.959
    13   6 C    3.895 --    14 C    1.366    12 C    1.363    23 F    0.985
    14   6 C    3.848 --    15 C    1.386    13 C    1.366    19 B    0.781
    15   6 C    3.895 --    14 C    1.386    16 C    1.340    18 F    0.986
    16   6 C    3.872 --    15 C    1.340    11 C    1.338    17 F    0.946
    17   9 F    1.072 --    16 C    0.946
    18   9 F    1.127 --    15 C    0.986
    19   5 B    3.322 --    22 F    0.847    21 F    0.833    20 F    0.830
                            14 C    0.781
    20   9 F    0.918 --    19 B    0.830
    21   9 F    0.920 --    19 B    0.833
    22   9 F    0.929 --    19 B    0.847
    23   9 F    1.125 --    13 C    0.985
    24   9 F    1.085 --    12 C    0.959
    25   6 C    3.996 --     1 C    1.009    42 H    0.984    40 H    0.983
                            41 H    0.981
    26   1 H    0.999 --     2 C    0.961
    27   1 H    0.998 --     3 C    0.977
    28   1 H    0.998 --     3 C    0.974
    29   1 H    0.999 --     4 C    0.971
    30   1 H    0.999 --     5 C    0.979
    31   1 H    0.999 --     5 C    0.979
    32   1 H    0.999 --     6 C    0.979
    33   1 H    0.999 --     6 C    0.978
    34   1 H    0.999 --     8 C    0.985
    35   1 H    0.999 --     8 C    0.984
    36   1 H    0.999 --     8 C    0.981
    37   1 H    0.996 --     9 C    0.975
    38   1 H    0.999 --     9 C    0.984
    39   1 H    0.999 --     9 C    0.985
    40   1 H    0.999 --    25 C    0.983
    41   1 H    0.996 --    25 C    0.981
    42   1 H    0.999 --    25 C    0.984
 ---------------------------------------------------------------------------

Topologies differ in total number of bonds
Writing topology from bond orders to xtbtopo.mol

molecular dipole:
                 x           y           z       tot (Debye)
 q only:       12.407       0.870      -7.718
   full:       12.609       0.919      -8.003      38.032
molecular quadrupole (traceless):
                xx          xy          yy          xz          yz          zz
 q only:     -126.061      -9.017     111.891     140.437      15.004      14.170
  q+dip:     -129.048      -7.943     116.679     145.937      18.359      12.369
   full:     -130.325      -7.357     117.918     146.136      18.319      12.407

           -------------------------------------------------
          |                Geometry Summary                 |
           -------------------------------------------------

      molecular mass/u    :      369.1060222
   center of mass at/Å    :       -2.8583804      -0.4938078       2.2969060
  moments of inertia/u·Å² :        0.9864431E+03   0.4560534E+04   0.5053506E+04
rotational constants/cm⁻¹ :        0.1708931E-01   0.3696416E-02   0.3335829E-02

 * 37 selected distances

     #   Z          #   Z                                           value/Å
     2   6 C        3   6 C                                       1.5439268 (max)
     3   6 C        4   6 C                                       1.5299890
     4   6 C        5   6 C                                       1.5354234
     1   6 C        6   6 C                                       1.5400207
     5   6 C        6   6 C                                       1.5409245
     4   6 C        7   6 C                                       1.5413020
     7   6 C        8   6 C                                       1.5301386
     7   6 C        9   6 C                                       1.5289916
     2   6 C       10   8 O                                       1.4167233
    10   8 O       11   6 C                                       1.3606427
    11   6 C       12   6 C                                       1.3983528
    12   6 C       13   6 C                                       1.3870628
    13   6 C       14   6 C                                       1.3887418
    14   6 C       15   6 C                                       1.3858909
    11   6 C       16   6 C                                       1.3913761
    15   6 C       16   6 C                                       1.3932911
    19   5 B       20   9 F                                       1.3952819
    19   5 B       21   9 F                                       1.3931092
    19   5 B       22   9 F                                       1.3841306
     1   6 C       25   6 C                                       1.5150783
     2   6 C       26   1 H                                       1.0956472
     3   6 C       27   1 H                                       1.0890455
     3   6 C       28   1 H                                       1.0899666
     4   6 C       29   1 H                                       1.0897824
     5   6 C       30   1 H                                       1.0897407
     5   6 C       31   1 H                                       1.0903657
     6   6 C       32   1 H                                       1.0898770
     6   6 C       33   1 H                                       1.0901100
     8   6 C       34   1 H                                       1.0889242
     8   6 C       35   1 H                                       1.0880637
     8   6 C       36   1 H                                       1.0840397
     9   6 C       37   1 H                                       1.0822277 (min)
     9   6 C       38   1 H                                       1.0881086
     9   6 C       39   1 H                                       1.0892963
    25   6 C       40   1 H                                       1.0881082
    25   6 C       41   1 H                                       1.0858820
    25   6 C       42   1 H                                       1.0882597

 * 4 distinct bonds (by element types)

   Z      Z             #   av. dist./Å        max./Å        min./Å
   1 H    6 C          17     1.0886733     1.0956472     1.0822277
   6 C    6 C          15     1.4767007     1.5439268     1.3858909
   6 C    8 O           2     1.3886830     1.4167233     1.3606427
   5 B    9 F           3     1.3908406     1.3952819     1.3841306


optimized geometry written to: xtbopt.xyz


           -------------------------------------------------
          | TOTAL ENERGY              -81.801378464810 Eh   |
          | GRADIENT NORM               0.000855408698 Eh/α |
          | HOMO-LUMO GAP               3.421654854090 eV   |
           -------------------------------------------------

------------------------------------------------------------------------
 * finished run on 2024/12/20 at 01:53:04.386     
------------------------------------------------------------------------
 total:
 * wall-time:     0 d,  0 h,  0 min,  2.832 sec
 *  cpu-time:     0 d,  0 h,  0 min, 22.429 sec
 * ratio c/w:     7.919 speedup
 SCF:
 * wall-time:     0 d,  0 h,  0 min,  0.060 sec
 *  cpu-time:     0 d,  0 h,  0 min,  0.450 sec
 * ratio c/w:     7.474 speedup
 ANC optimizer:
 * wall-time:     0 d,  0 h,  0 min,  2.754 sec
 *  cpu-time:     0 d,  0 h,  0 min, 21.848 sec
 * ratio c/w:     7.935 speedup

