      -----------------------------------------------------------      
     |                   =====================                   |     
     |                           x T B                           |     
     |                   =====================                   |     
     |                         S. Grimme                         |     
     |          Mulliken Center for Theoretical Chemistry        |     
     |                    University of Bonn                     |     
      -----------------------------------------------------------      

   * xtb version 6.7.1 (edcfbbe) compiled by 'conda@3ef47c1a292c' on 2024-11-25

   xtb is free software: you can redistribute it and/or modify it under
   the terms of the GNU Lesser General Public License as published by
   the Free Software Foundation, either version 3 of the License, or
   (at your option) any later version.
   
   xtb is distributed in the hope that it will be useful,
   but WITHOUT ANY WARRANTY; without even the implied warranty of
   MERCHANTABILITY or FITNESS FOR A PARTICULAR PURPOSE.  See the
   GNU Lesser General Public License for more details.
   
   Cite this work as:
   * C. Bannwarth, E. Caldeweyher, S. Ehlert, A. Hansen, P. Pracht,
     J. Seibert, S. Spicher, S. Grimme, WIREs Comput. Mol. Sci., 2020, 11,
     e01493. DOI: 10.1002/wcms.1493
   
   for GFN2-xTB:
   * C. Bannwarth, S. Ehlert and S. Grimme., J. Chem. Theory Comput., 2019,
     15, 1652-1671. DOI: 10.1021/acs.jctc.8b01176
   for GFN1-xTB:
   * S. Grimme, C. Bannwarth, P. Shushkov, J. Chem. Theory Comput., 2017,
     13, 1989-2009. DOI: 10.1021/acs.jctc.7b00118
   for GFN0-xTB:
   * P. Pracht, E. Caldeweyher, S. Ehlert, S. Grimme, ChemRxiv, 2019, preprint.
     DOI: 10.26434/chemrxiv.8326202.v1
   for GFN-FF:
   * S. Spicher and S. Grimme, Angew. Chem. Int. Ed., 2020, 59, 15665-15673.
     DOI: 10.1002/anie.202004239
   
   for ALPB and GBSA implicit solvation:
   * S. Ehlert, M. Stahn, S. Spicher, S. Grimme, J. Chem. Theory Comput.,
     2021, 17, 4250-4261. DOI: 10.1021/acs.jctc.1c00471
   
   for ddCOSMO and CPCM-X implicit solvation:
   * M. Stahn, S. Ehlert, S. Grimme, J. Phys. Chem. A,
     2023, XX, XXXX-XXXX. DOI: 10.1021/acs.jpca.3c04382
   
   for DFT-D4:
   * E. Caldeweyher, C. Bannwarth and S. Grimme, J. Chem. Phys., 2017,
     147, 034112. DOI: 10.1063/1.4993215
   * E. Caldeweyher, S. Ehlert, A. Hansen, H. Neugebauer, S. Spicher,
     C. Bannwarth and S. Grimme, J. Chem. Phys., 2019, 150, 154122.
     DOI: 10.1063/1.5090222
   * E. Caldeweyher, J.-M. Mewes, S. Ehlert and S. Grimme, Phys. Chem. Chem. Phys.
     2020, 22, 8499-8512. DOI: 10.1039/D0CP00502A
   
   for sTDA-xTB:
   * S. Grimme and C. Bannwarth, J. Chem. Phys., 2016, 145, 054103.
     DOI: 10.1063/1.4959605
   
   in the mass-spec context:
   * V. Asgeirsson, C. Bauer and S. Grimme, Chem. Sci., 2017, 8, 4879.
     DOI: 10.1039/c7sc00601b
   * J. Koopman and S. Grimme, ACS Omega 2019, 4, 12, 15120-15133.
     DOI: 10.1021/acsomega.9b02011
   
   for metadynamics refer to:
   * S. Grimme, J. Chem. Theory Comput., 2019, 155, 2847-2862
     DOI: 10.1021/acs.jctc.9b00143
   
   for SPH calculations refer to:
   * S. Spicher and S. Grimme, J. Chem. Theory Comput., 2021, 17, 1701-1714
     DOI: 10.1021/acs.jctc.0c01306
   
   for ONIOM refer to:
   * C. Plett, A. Katbashev, S. Ehlert, S. Grimme, M. Bursch,
     Phys. Chem. Chem. Phys., 2023, 25, 17860-17868. DOI: 10.1039/D3CP02178E
   
   for DIPRO refer to:
   * J. Kohn, N. Gildemeister, S. Grimme, D. Fazzi, A. Hansen,
     J. Chem. Phys., 2023, just accepted.
   
   for PTB refer to:
   * S. Grimme, M. Mueller, A. Hansen, J. Chem. Phys., 2023, 158, 124111.
     DOI: 10.1063/5.0137838
   
   with help from (in alphabetical order)
   P. Atkinson, C. Bannwarth, F. Bohle, G. Brandenburg, E. Caldeweyher
   M. Checinski, S. Dohm, S. Ehlert, S. Ehrlich, I. Gerasimov, C. Hölzer
   A. Katbashev, J. Kohn, J. Koopman, C. Lavigne, S. Lehtola, F. März, M. Müller,
   F. Musil, H. Neugebauer, J. Pisarek, C. Plett, P. Pracht, F. Pultar,
   J. Seibert, P. Shushkov, S. Spicher, M. Stahn, M. Steiner, T. Strunk,
   J. Stückrath, T. Rose, and J. Unsleber
   
 * started run on 2024/12/20 at 01:53:04.394     
   ID    Z sym.   atoms
    1    9 F      1, 6, 7
    2    6 C      2, 3
    3    8 O      4, 5

           -------------------------------------------------
          |                Calculation Setup                |
           -------------------------------------------------

          program call               : xtb A083.xyz --opt --namespace A083 --charge -1
          calculation namespace      : A083
          coordinate file            : A083.xyz
          omp threads                :                     8


           -------------------------------------------------
          |                 G F N 2 - x T B                 |
           -------------------------------------------------

        Reference                      10.1021/acs.jctc.8b01176
      * Hamiltonian:
        H0-scaling (s, p, d)           1.850000    2.230000    2.230000
        zeta-weighting                 0.500000
      * Dispersion:
        s8                             2.700000
        a1                             0.520000
        a2                             5.000000
        s9                             5.000000
      * Repulsion:
        kExp                           1.500000    1.000000
        rExp                           1.000000
      * Coulomb:
        alpha                          2.000000
        third order                    shell-resolved
        anisotropic                    true
        a3                             3.000000
        a5                             4.000000
        cn-shift                       1.200000
        cn-exp                         4.000000
        max-rad                        5.000000


          ...................................................
          :                      SETUP                      :
          :.................................................:
          :  # basis functions                  28          :
          :  # atomic orbitals                  28          :
          :  # shells                           14          :
          :  # electrons                        42          :
          :  max. iterations                   250          :
          :  Hamiltonian                  GFN2-xTB          :
          :  restarted?                      false          :
          :  GBSA solvation                  false          :
          :  PC potential                    false          :
          :  electronic temp.          300.0000000     K    :
          :  accuracy                    1.0000000          :
          :  -> integral cutoff          0.2500000E+02      :
          :  -> integral neglect         0.1000000E-07      :
          :  -> SCF convergence          0.1000000E-05 Eh   :
          :  -> wf. convergence          0.1000000E-03 e    :
          :  Broyden damping             0.4000000          :
          :  net charge                         -1          :
          :  unpaired electrons                  0          :
          ...................................................

 iter      E             dE          RMSdq      gap      omega  full diag
   1    -26.8587901 -0.268588E+02  0.655E+00    4.55       0.0  T
   2    -26.9438044 -0.850144E-01  0.307E+00    4.50       1.0  T
   3    -26.9493226 -0.551818E-02  0.186E+00    4.77       1.0  T
   4    -26.9507693 -0.144667E-02  0.411E-01    4.63       1.0  T
   5    -26.9511627 -0.393378E-03  0.159E-01    4.74       1.0  T
   6    -26.9512323 -0.696811E-04  0.320E-02    4.72       1.2  T
   7    -26.9512344 -0.206619E-05  0.189E-02    4.71       2.0  T
   8    -26.9512363 -0.193442E-05  0.680E-04    4.71      55.6  T
   9    -26.9512363 -0.113151E-08  0.330E-04    4.71     114.6  T
  10    -26.9512363 -0.376019E-10  0.795E-05    4.71     475.5  T

   *** convergence criteria satisfied after 10 iterations ***

         #    Occupation            Energy/Eh            Energy/eV
      -------------------------------------------------------------
         1        2.0000           -0.7188098             -19.5598
       ...           ...                  ...                  ...
        15        2.0000           -0.3785756             -10.3016
        16        2.0000           -0.3529981              -9.6056
        17        2.0000           -0.3485914              -9.4857
        18        2.0000           -0.3351005              -9.1185
        19        2.0000           -0.2392301              -6.5098
        20        2.0000           -0.2260295              -6.1506
        21        2.0000           -0.2247661              -6.1162 (HOMO)
        22                         -0.0515358              -1.4024 (LUMO)
        23                          0.1788171               4.8659
        24                          0.1892576               5.1500
        25                          0.2230824               6.0704
        26                          0.2625181               7.1435
       ...                                ...                  ...
        28                          0.6978412              18.9892
      -------------------------------------------------------------
                  HL-Gap            0.1732303 Eh            4.7138 eV
             Fermi-level           -0.1381509 Eh           -3.7593 eV

 SCC (total)                   0 d,  0 h,  0 min,  0.005 sec
 SCC setup                      ...        0 min,  0.000 sec (  1.756%)
 Dispersion                     ...        0 min,  0.000 sec (  1.038%)
 classical contributions        ...        0 min,  0.000 sec (  0.594%)
 integral evaluation            ...        0 min,  0.000 sec (  5.811%)
 iterations                     ...        0 min,  0.004 sec ( 76.641%)
 molecular gradient             ...        0 min,  0.001 sec ( 12.075%)
 printout                       ...        0 min,  0.000 sec (  1.796%)

         :::::::::::::::::::::::::::::::::::::::::::::::::::::
         ::                     SUMMARY                     ::
         :::::::::::::::::::::::::::::::::::::::::::::::::::::
         :: total energy             -26.870621001547 Eh    ::
         :: gradient norm              0.110561601846 Eh/a0 ::
         :: HOMO-LUMO gap              4.713835506336 eV    ::
         ::.................................................::
         :: SCC energy               -26.951235549902 Eh    ::
         :: -> isotropic ES            0.211569980409 Eh    ::
         :: -> anisotropic ES         -0.002648721304 Eh    ::
         :: -> anisotropic XC         -0.020303178959 Eh    ::
         :: -> dispersion             -0.004094482987 Eh    ::
         :: repulsion energy           0.080614548355 Eh    ::
         :: add. restraining           0.000000000000 Eh    ::
         :: total charge              -1.000000000000 e     ::
         :::::::::::::::::::::::::::::::::::::::::::::::::::::

      ----------------------------------------------------------- 
     |                   =====================                   |
     |                        A N C O P T                        |
     |                   =====================                   |
     |               Approximate Normal Coordinate               |
     |                Rational Function Optimizer                |
      ----------------------------------------------------------- 
      ----------------------------------------------------------- 
     |                   =====================                   |
     |                        A N C O P T                        |
     |                   =====================                   |
     |               Approximate Normal Coordinate               |
     |                Rational Function Optimizer                |
      ----------------------------------------------------------- 

          ...................................................
          :                      SETUP                      :
          :.................................................:
          :   optimization level            normal          :
          :   max. optcycles                   200          :
          :   ANC micro-cycles                  20          :
          :   degrees of freedom                15          :
          :.................................................:
          :   RF solver                   davidson          :
          :   write xtbopt.log                true          :
          :   linear?                        false          :
          :   energy convergence         0.5000000E-05 Eh   :
          :   grad. convergence          0.1000000E-02 Eh/α :
          :   maxmium RF displ.          1.0000000          :
          :   Hlow (freq-cutoff)         0.1000000E-01      :
          :   Hmax (freq-cutoff)         5.0000000          :
          :   S6 in model hess.         20.0000000          :
          ...................................................

generating ANC from exact Hessian ...
Using Lindh-Hessian (1995)
 Shifting diagonal of input Hessian by    0.0000000000000000     
 Lowest  eigenvalues of input Hessian
    0.000000    0.000000    0.000000    0.000000    0.000000    0.000000
    0.024228    0.037383    0.049493    0.107709    0.131036    0.134926
    0.227520    0.237646    0.365369    0.571489    1.132578    1.590129
 Highest eigenvalues
    0.571489    1.132578    1.590129    1.607684    1.621920    2.179560


........................................................................
.............................. CYCLE    1 ..............................
........................................................................

 iter      E             dE          RMSdq      gap      omega  full diag
   1    -26.9512363 -0.269512E+02  0.350E-05    4.71       0.0  T
   2    -26.9512363 -0.307310E-11  0.177E-05    4.71    2139.7  T
   3    -26.9512363 -0.472511E-12  0.113E-05    4.71    3333.2  T
     SCC iter.                  ...        0 min,  0.001 sec
     gradient                   ...        0 min,  0.001 sec
 * total energy  :   -26.8706210 Eh     change       -0.6110668E-11 Eh
   gradient norm :     0.1105623 Eh/α   predicted     0.0000000E+00 (-100.00%)
   displ. norm   :     0.1143685 α      lambda       -0.1040587E-01
   maximum displ.:     0.0607047 α      in ANC's #9, #10, #14, ...

........................................................................
.............................. CYCLE    2 ..............................
........................................................................

 iter      E             dE          RMSdq      gap      omega  full diag
   1    -26.9723544 -0.269724E+02  0.299E-01    5.18       0.0  T
   2    -26.9727625 -0.408112E-03  0.183E-01    5.07       1.0  T
   3    -26.9728302 -0.677165E-04  0.103E-01    5.09       1.0  T
   4    -26.9728333 -0.309735E-05  0.269E-02    5.09       1.4  T
   5    -26.9728337 -0.399843E-06  0.353E-03    5.09      10.7  T
   6    -26.9728337 -0.439227E-07  0.900E-04    5.09      42.0  T
   7    -26.9728337 -0.212168E-09  0.171E-04    5.09     220.6  T
     SCC iter.                  ...        0 min,  0.001 sec
     gradient                   ...        0 min,  0.001 sec
 * total energy  :   -26.8776771 Eh     change       -0.7056128E-02 Eh
   gradient norm :     0.0469187 Eh/α   predicted    -0.5270987E-02 ( -25.30%)
   displ. norm   :     0.0748202 α      lambda       -0.2793754E-02
   maximum displ.:     0.0433178 α      in ANC's #9, #14, #4, ...

........................................................................
.............................. CYCLE    3 ..............................
........................................................................

 iter      E             dE          RMSdq      gap      omega  full diag
   1    -26.9816282 -0.269816E+02  0.207E-01    5.34       0.0  T
   2    -26.9818494 -0.221277E-03  0.112E-01    5.26       1.0  T
   3    -26.9818786 -0.291557E-04  0.618E-02    5.27       1.0  T
   4    -26.9818813 -0.268031E-05  0.259E-02    5.27       1.5  T
   5    -26.9818813 -0.342181E-07  0.616E-03    5.27       6.1  T
   6    -26.9818814 -0.728358E-07  0.694E-04    5.27      54.5  T
   7    -26.9818814 -0.687059E-10  0.149E-04    5.27     253.5  T
     SCC iter.                  ...        0 min,  0.001 sec
     gradient                   ...        0 min,  0.001 sec
 * total energy  :   -26.8793297 Eh     change       -0.1652577E-02 Eh
   gradient norm :     0.0187993 Eh/α   predicted    -0.1404696E-02 ( -15.00%)
   displ. norm   :     0.0409103 α      lambda       -0.6314197E-03
   maximum displ.:     0.0269181 α      in ANC's #10, #4, #14, ...

........................................................................
.............................. CYCLE    4 ..............................
........................................................................

 iter      E             dE          RMSdq      gap      omega  full diag
   1    -26.9818889 -0.269819E+02  0.131E-01    5.30       0.0  T
   2    -26.9819471 -0.581938E-04  0.690E-02    5.27       1.0  T
   3    -26.9819529 -0.583124E-05  0.364E-02    5.28       1.0  T
   4    -26.9819536 -0.655316E-06  0.114E-02    5.27       3.3  T
   5    -26.9819536 -0.365345E-07  0.366E-03    5.27      10.3  T
   6    -26.9819536 -0.257920E-07  0.660E-04    5.27      57.3  T
   7    -26.9819536 -0.133554E-09  0.504E-05    5.27     750.0  T
     SCC iter.                  ...        0 min,  0.001 sec
     gradient                   ...        0 min,  0.001 sec
 * total energy  :   -26.8797890 Eh     change       -0.4593408E-03 Eh
   gradient norm :     0.0104557 Eh/α   predicted    -0.3162376E-03 ( -31.15%)
   displ. norm   :     0.0412171 α      lambda       -0.3602817E-03
   maximum displ.:     0.0292804 α      in ANC's #10, #4, #14, ...

........................................................................
.............................. CYCLE    5 ..............................
........................................................................

 iter      E             dE          RMSdq      gap      omega  full diag
   1    -26.9810602 -0.269811E+02  0.137E-01    5.31       0.0  T
   2    -26.9811304 -0.702131E-04  0.717E-02    5.28       1.0  T
   3    -26.9811372 -0.675072E-05  0.373E-02    5.28       1.0  T
   4    -26.9811377 -0.516884E-06  0.974E-03    5.28       3.9  T
   5    -26.9811377 -0.423905E-07  0.368E-03    5.28      10.3  T
   6    -26.9811378 -0.247085E-07  0.499E-04    5.28      75.8  T
   7    -26.9811378 -0.573905E-10  0.816E-05    5.28     463.2  T
     SCC iter.                  ...        0 min,  0.001 sec
     gradient                   ...        0 min,  0.001 sec
 * total energy  :   -26.8800022 Eh     change       -0.2131728E-03 Eh
   gradient norm :     0.0028135 Eh/α   predicted    -0.1804468E-03 ( -15.35%)
   displ. norm   :     0.0160624 α      lambda       -0.3560859E-04
   maximum displ.:     0.0116622 α      in ANC's #4, #9, #10, ...

........................................................................
.............................. CYCLE    6 ..............................
........................................................................

 iter      E             dE          RMSdq      gap      omega  full diag
   1    -26.9810156 -0.269810E+02  0.398E-02    5.30       0.0  T
   2    -26.9810232 -0.759901E-05  0.218E-02    5.29       1.7  T
   3    -26.9810240 -0.749804E-06  0.112E-02    5.29       3.4  T
   4    -26.9810240 -0.364536E-07  0.268E-03    5.29      14.1  T
   5    -26.9810240 -0.499147E-08  0.118E-03    5.29      32.1  T
   6    -26.9810240 -0.211114E-08  0.822E-05    5.29     460.0  T
   7    -26.9810240 -0.112621E-11  0.211E-05    5.29    1792.9  T
     SCC iter.                  ...        0 min,  0.001 sec
     gradient                   ...        0 min,  0.001 sec
 * total energy  :   -26.8800244 Eh     change       -0.2218313E-04 Eh
   gradient norm :     0.0009029 Eh/α   predicted    -0.1780961E-04 ( -19.72%)
   displ. norm   :     0.0110176 α      lambda       -0.4843459E-05
   maximum displ.:     0.0087035 α      in ANC's #4, #9, #3, ...

........................................................................
.............................. CYCLE    7 ..............................
........................................................................

 iter      E             dE          RMSdq      gap      omega  full diag
   1    -26.9810157 -0.269810E+02  0.174E-02    5.31       0.0  T
   2    -26.9810171 -0.136611E-05  0.105E-02    5.30       3.6  T
   3    -26.9810172 -0.135166E-06  0.567E-03    5.30       6.7  T
   4    -26.9810172 -0.531275E-08  0.103E-03    5.30      36.8  T
   5    -26.9810172 -0.122600E-08  0.455E-04    5.30      83.0  T
   6    -26.9810172 -0.382371E-09  0.604E-05    5.30     625.5  T
     SCC iter.                  ...        0 min,  0.001 sec
     gradient                   ...        0 min,  0.001 sec
 * total energy  :   -26.8800269 Eh     change       -0.2493698E-05 Eh
   gradient norm :     0.0003785 Eh/α   predicted    -0.2421572E-05 (  -2.89%)
   displ. norm   :     0.0028896 α      lambda       -0.5390681E-06
   maximum displ.:     0.0018889 α      in ANC's #4, #9, #3, ...

   *** GEOMETRY OPTIMIZATION CONVERGED AFTER 7 ITERATIONS ***

------------------------------------------------------------------------
 total energy gain   :        -0.0094059 Eh       -5.9023 kcal/mol
 total RMSD          :         0.0871760 a0        0.0461 Å
 total power (kW/mol):        -3.5278823 (step)-1568.4504 (real)
------------------------------------------------------------------------

 ANCopt (total)                0 d,  0 h,  0 min,  0.016 sec
 optimizer setup                ...        0 min,  0.000 sec (  0.410%)
 model hessian                  ...        0 min,  0.000 sec (  2.050%)
 ANC generation                 ...        0 min,  0.000 sec (  0.534%)
 coordinate transformation      ...        0 min,  0.000 sec (  0.208%)
 single point calculation       ...        0 min,  0.014 sec ( 91.009%)
 optimization log               ...        0 min,  0.000 sec (  1.531%)
 hessian update                 ...        0 min,  0.000 sec (  0.201%)
 rational function              ...        0 min,  0.000 sec (  2.373%)

================
 final structure:
================
7
 xtb: 6.7.1 (edcfbbe)
F            0.91164306917282        0.07049572566032        0.04749807209490
C            2.26848833427809        0.05392797701005       -0.04226707665697
C            2.81098467864174       -0.29579477311776       -1.56411640444395
O            3.50063909670354        0.58738516369874       -2.04276788713109
O            2.42523099327727       -1.38621550913807       -1.94948636351577
F            2.66757962080845        1.25727308723038        0.43935774093818
F            2.67532420711809       -0.85081167134365        0.88794191871468

 Bond Distances (Angstroems)
 ---------------------------
F1-C2=1.3599         C2-F1=1.3599         C2-C3=1.6531         C2-F6=1.3562         C2-F7=1.3599         C3-C2=1.6531         
C3-O4=1.2185         C3-O5=1.2192         O4-C3=1.2185         O5-C3=1.2192         F6-C2=1.3562         F7-C2=1.3599         
 C  C  Rav=1.6531 sigma=0.0000  Rmin=1.6531  Rmax=1.6531     1
 O  C  Rav=1.2188 sigma=0.0003  Rmin=1.2185  Rmax=1.2192     2
 F  C  Rav=1.3587 sigma=0.0018  Rmin=1.3562  Rmax=1.3599     3

 selected bond angles (degree)
 --------------------
C3-C2-F1=113.00                F6-C2-F1=105.03                F6-C2-C3=114.71                F7-C2-F1=105.16                
F7-C2-C3=113.00                F7-C2-F6=105.03                O4-C3-C2=113.21                O5-C3-C2=112.11                
O5-C3-O4=134.68                

 selected dihedral angles (degree)
 ---------------------------------
O4-C3-C2-F1=120.38            O4-C3-C2-F6=  0.00            O4-C3-C2-F7=239.64            O5-C3-C2-F1=300.36            
O5-C3-C2-F6=179.99            O5-C3-C2-F7= 59.62            
           -------------------------------------------------
          |                Final Singlepoint                |
           -------------------------------------------------

          ...................................................
          :                      SETUP                      :
          :.................................................:
          :  # basis functions                  28          :
          :  # atomic orbitals                  28          :
          :  # shells                           14          :
          :  # electrons                        42          :
          :  max. iterations                   250          :
          :  Hamiltonian                  GFN2-xTB          :
          :  restarted?                      false          :
          :  GBSA solvation                  false          :
          :  PC potential                    false          :
          :  electronic temp.          300.0000000     K    :
          :  accuracy                    1.0000000          :
          :  -> integral cutoff          0.2500000E+02      :
          :  -> integral neglect         0.1000000E-07      :
          :  -> SCF convergence          0.1000000E-05 Eh   :
          :  -> wf. convergence          0.1000000E-03 e    :
          :  Broyden damping             0.4000000          :
          :  net charge                         -1          :
          :  unpaired electrons                  0          :
          ...................................................

 iter      E             dE          RMSdq      gap      omega  full diag
   1    -26.9810172 -0.269810E+02  0.456E-06    5.30       0.0  T
   2    -26.9810172  0.142109E-13  0.243E-06    5.30   15543.0  T
   3    -26.9810172  0.106581E-13  0.125E-06    5.30   30124.9  T

   *** convergence criteria satisfied after 3 iterations ***

         #    Occupation            Energy/Eh            Energy/eV
      -------------------------------------------------------------
         1        2.0000           -0.7044452             -19.1689
       ...           ...                  ...                  ...
        15        2.0000           -0.3622749              -9.8580
        16        2.0000           -0.3619131              -9.8482
        17        2.0000           -0.3577906              -9.7360
        18        2.0000           -0.3439985              -9.3607
        19        2.0000           -0.2542281              -6.9179
        20        2.0000           -0.2428697              -6.6088
        21        2.0000           -0.2216925              -6.0326 (HOMO)
        22                         -0.0267978              -0.7292 (LUMO)
        23                          0.1523009               4.1443
        24                          0.2074817               5.6459
        25                          0.2260330               6.1507
        26                          0.2928999               7.9702
       ...                                ...                  ...
        28                          0.9281537              25.2563
      -------------------------------------------------------------
                  HL-Gap            0.1948947 Eh            5.3034 eV
             Fermi-level           -0.1242451 Eh           -3.3809 eV

 SCC (total)                   0 d,  0 h,  0 min,  0.002 sec
 SCC setup                      ...        0 min,  0.000 sec (  2.697%)
 Dispersion                     ...        0 min,  0.000 sec (  1.052%)
 classical contributions        ...        0 min,  0.000 sec (  0.325%)
 integral evaluation            ...        0 min,  0.000 sec ( 17.566%)
 iterations                     ...        0 min,  0.001 sec ( 36.673%)
 molecular gradient             ...        0 min,  0.001 sec ( 36.588%)
 printout                       ...        0 min,  0.000 sec (  4.249%)

         :::::::::::::::::::::::::::::::::::::::::::::::::::::
         ::                     SUMMARY                     ::
         :::::::::::::::::::::::::::::::::::::::::::::::::::::
         :: total energy             -26.880026897349 Eh    ::
         :: gradient norm              0.000378539001 Eh/a0 ::
         :: HOMO-LUMO gap              5.303353939209 eV    ::
         ::.................................................::
         :: SCC energy               -26.981016421719 Eh    ::
         :: -> isotropic ES            0.202590871463 Eh    ::
         :: -> anisotropic ES         -0.003423624702 Eh    ::
         :: -> anisotropic XC         -0.020711208494 Eh    ::
         :: -> dispersion             -0.004089407048 Eh    ::
         :: repulsion energy           0.100989524371 Eh    ::
         :: add. restraining           0.000000000000 Eh    ::
         :: total charge              -1.000000000000 e     ::
         :::::::::::::::::::::::::::::::::::::::::::::::::::::

           -------------------------------------------------
          |                Property Printout                |
           -------------------------------------------------

    * Orbital Energies and Occupations

         #    Occupation            Energy/Eh            Energy/eV
      -------------------------------------------------------------
         1        2.0000           -0.7044452             -19.1689
       ...           ...                  ...                  ...
         9        2.0000           -0.4434073             -12.0657
        10        2.0000           -0.3996608             -10.8753
        11        2.0000           -0.3785166             -10.3000
        12        2.0000           -0.3761121             -10.2345
        13        2.0000           -0.3693530             -10.0506
        14        2.0000           -0.3640373              -9.9060
        15        2.0000           -0.3622749              -9.8580
        16        2.0000           -0.3619131              -9.8482
        17        2.0000           -0.3577906              -9.7360
        18        2.0000           -0.3439985              -9.3607
        19        2.0000           -0.2542281              -6.9179
        20        2.0000           -0.2428697              -6.6088
        21        2.0000           -0.2216925              -6.0326 (HOMO)
        22                         -0.0267978              -0.7292 (LUMO)
        23                          0.1523009               4.1443
        24                          0.2074817               5.6459
        25                          0.2260330               6.1507
        26                          0.2928999               7.9702
        27                          0.5719070              15.5624
        28                          0.9281537              25.2563
      -------------------------------------------------------------
                  HL-Gap            0.1948947 Eh            5.3034 eV
             Fermi-level           -0.1242451 Eh           -3.3809 eV

     #   Z          covCN         q      C6AA      α(0)
     1   9 F        0.788    -0.244    11.700     4.040
     2   6 C        3.300     0.400    18.979     6.976
     3   6 C        2.660     0.369    20.755     7.454
     4   8 O        0.856    -0.520    24.231     6.600
     5   8 O        0.856    -0.521    24.254     6.603
     6   9 F        0.789    -0.240    11.651     4.032
     7   9 F        0.788    -0.244    11.700     4.040

 Mol. C6AA /au·bohr⁶  :        831.894170
 Mol. C8AA /au·bohr⁸  :      17891.523832
 Mol. α(0) /au        :         39.745082


Wiberg/Mayer (AO) data.
largest (>0.10) Wiberg bond orders for each atom

 ---------------------------------------------------------------------------
     #   Z sym  total        # sym  WBO       # sym  WBO       # sym  WBO
 ---------------------------------------------------------------------------
     1   9 F    1.039 --     2 C    0.930
     2   6 C    3.666 --     6 F    0.935     7 F    0.930     1 F    0.930
                             3 C    0.723
     3   6 C    3.951 --     4 O    1.590     5 O    1.587     2 C    0.723
     4   8 O    1.941 --     3 C    1.590     5 O    0.260
     5   8 O    1.939 --     3 C    1.587     4 O    0.260
     6   9 F    1.046 --     2 C    0.935
     7   9 F    1.039 --     2 C    0.930
 ---------------------------------------------------------------------------

Topologies differ in total number of bonds
Writing topology from bond orders to xtbtopo.mol

molecular dipole:
                 x           y           z       tot (Debye)
 q only:       -5.016       0.413       2.175
   full:       -5.087       0.455       2.369      14.310
molecular quadrupole (traceless):
                xx          xy          yy          xz          yz          zz
 q only:      -19.728       0.864      14.639      19.559      -3.017       5.089
  q+dip:      -19.867       0.149      14.099      21.087      -3.098       5.767
   full:      -19.398      -0.141      14.154      21.602      -3.379       5.243

           -------------------------------------------------
          |                Geometry Summary                 |
           -------------------------------------------------

      molecular mass/u    :      113.0154911
   center of mass at/Å    :        2.4301539      -0.0586148      -0.5047855
  moments of inertia/u·Å² :        0.1288464E+03   0.2095931E+03   0.2497982E+03
rotational constants/cm⁻¹ :        0.1308351E+00   0.8043027E-01   0.6748501E-01

 * 5 selected distances

     #   Z          #   Z                                           value/Å
     1   9 F        2   6 C                                       1.3599124 (max)
     3   6 C        4   8 O                                       1.2184981 (min)
     3   6 C        5   8 O                                       1.2191528
     2   6 C        6   9 F                                       1.3561991
     2   6 C        7   9 F                                       1.3599112

 * 2 distinct bonds (by element types)

   Z      Z             #   av. dist./Å        max./Å        min./Å
   6 C    8 O           2     1.2188254     1.2191528     1.2184981
   6 C    9 F           3     1.3586742     1.3599124     1.3561991


optimized geometry written to: xtbopt.xyz


           -------------------------------------------------
          | TOTAL ENERGY              -26.880026897349 Eh   |
          | GRADIENT NORM               0.000378539001 Eh/α |
          | HOMO-LUMO GAP               5.303353939209 eV   |
           -------------------------------------------------

------------------------------------------------------------------------
 * finished run on 2024/12/20 at 01:53:04.430     
------------------------------------------------------------------------
 total:
 * wall-time:     0 d,  0 h,  0 min,  0.037 sec
 *  cpu-time:     0 d,  0 h,  0 min,  0.281 sec
 * ratio c/w:     7.644 speedup
 SCF:
 * wall-time:     0 d,  0 h,  0 min,  0.005 sec
 *  cpu-time:     0 d,  0 h,  0 min,  0.038 sec
 * ratio c/w:     7.825 speedup
 ANC optimizer:
 * wall-time:     0 d,  0 h,  0 min,  0.018 sec
 *  cpu-time:     0 d,  0 h,  0 min,  0.141 sec
 * ratio c/w:     7.996 speedup

