      -----------------------------------------------------------      
     |                   =====================                   |     
     |                           x T B                           |     
     |                   =====================                   |     
     |                         S. Grimme                         |     
     |          Mulliken Center for Theoretical Chemistry        |     
     |                    University of Bonn                     |     
      -----------------------------------------------------------      

   * xtb version 6.7.1 (edcfbbe) compiled by 'conda@3ef47c1a292c' on 2024-11-25

   xtb is free software: you can redistribute it and/or modify it under
   the terms of the GNU Lesser General Public License as published by
   the Free Software Foundation, either version 3 of the License, or
   (at your option) any later version.
   
   xtb is distributed in the hope that it will be useful,
   but WITHOUT ANY WARRANTY; without even the implied warranty of
   MERCHANTABILITY or FITNESS FOR A PARTICULAR PURPOSE.  See the
   GNU Lesser General Public License for more details.
   
   Cite this work as:
   * C. Bannwarth, E. Caldeweyher, S. Ehlert, A. Hansen, P. Pracht,
     J. Seibert, S. Spicher, S. Grimme, WIREs Comput. Mol. Sci., 2020, 11,
     e01493. DOI: 10.1002/wcms.1493
   
   for GFN2-xTB:
   * C. Bannwarth, S. Ehlert and S. Grimme., J. Chem. Theory Comput., 2019,
     15, 1652-1671. DOI: 10.1021/acs.jctc.8b01176
   for GFN1-xTB:
   * S. Grimme, C. Bannwarth, P. Shushkov, J. Chem. Theory Comput., 2017,
     13, 1989-2009. DOI: 10.1021/acs.jctc.7b00118
   for GFN0-xTB:
   * P. Pracht, E. Caldeweyher, S. Ehlert, S. Grimme, ChemRxiv, 2019, preprint.
     DOI: 10.26434/chemrxiv.8326202.v1
   for GFN-FF:
   * S. Spicher and S. Grimme, Angew. Chem. Int. Ed., 2020, 59, 15665-15673.
     DOI: 10.1002/anie.202004239
   
   for ALPB and GBSA implicit solvation:
   * S. Ehlert, M. Stahn, S. Spicher, S. Grimme, J. Chem. Theory Comput.,
     2021, 17, 4250-4261. DOI: 10.1021/acs.jctc.1c00471
   
   for ddCOSMO and CPCM-X implicit solvation:
   * M. Stahn, S. Ehlert, S. Grimme, J. Phys. Chem. A,
     2023, XX, XXXX-XXXX. DOI: 10.1021/acs.jpca.3c04382
   
   for DFT-D4:
   * E. Caldeweyher, C. Bannwarth and S. Grimme, J. Chem. Phys., 2017,
     147, 034112. DOI: 10.1063/1.4993215
   * E. Caldeweyher, S. Ehlert, A. Hansen, H. Neugebauer, S. Spicher,
     C. Bannwarth and S. Grimme, J. Chem. Phys., 2019, 150, 154122.
     DOI: 10.1063/1.5090222
   * E. Caldeweyher, J.-M. Mewes, S. Ehlert and S. Grimme, Phys. Chem. Chem. Phys.
     2020, 22, 8499-8512. DOI: 10.1039/D0CP00502A
   
   for sTDA-xTB:
   * S. Grimme and C. Bannwarth, J. Chem. Phys., 2016, 145, 054103.
     DOI: 10.1063/1.4959605
   
   in the mass-spec context:
   * V. Asgeirsson, C. Bauer and S. Grimme, Chem. Sci., 2017, 8, 4879.
     DOI: 10.1039/c7sc00601b
   * J. Koopman and S. Grimme, ACS Omega 2019, 4, 12, 15120-15133.
     DOI: 10.1021/acsomega.9b02011
   
   for metadynamics refer to:
   * S. Grimme, J. Chem. Theory Comput., 2019, 155, 2847-2862
     DOI: 10.1021/acs.jctc.9b00143
   
   for SPH calculations refer to:
   * S. Spicher and S. Grimme, J. Chem. Theory Comput., 2021, 17, 1701-1714
     DOI: 10.1021/acs.jctc.0c01306
   
   for ONIOM refer to:
   * C. Plett, A. Katbashev, S. Ehlert, S. Grimme, M. Bursch,
     Phys. Chem. Chem. Phys., 2023, 25, 17860-17868. DOI: 10.1039/D3CP02178E
   
   for DIPRO refer to:
   * J. Kohn, N. Gildemeister, S. Grimme, D. Fazzi, A. Hansen,
     J. Chem. Phys., 2023, just accepted.
   
   for PTB refer to:
   * S. Grimme, M. Mueller, A. Hansen, J. Chem. Phys., 2023, 158, 124111.
     DOI: 10.1063/5.0137838
   
   with help from (in alphabetical order)
   P. Atkinson, C. Bannwarth, F. Bohle, G. Brandenburg, E. Caldeweyher
   M. Checinski, S. Dohm, S. Ehlert, S. Ehrlich, I. Gerasimov, C. Hölzer
   A. Katbashev, J. Kohn, J. Koopman, C. Lavigne, S. Lehtola, F. März, M. Müller,
   F. Musil, H. Neugebauer, J. Pisarek, C. Plett, P. Pracht, F. Pultar,
   J. Seibert, P. Shushkov, S. Spicher, M. Stahn, M. Steiner, T. Strunk,
   J. Stückrath, T. Rose, and J. Unsleber
   
 * started run on 2024/12/20 at 01:53:05.834     
   ID    Z sym.   atoms
    1    6 C      1-4, 6-9, 12-19, 25-28
    2    8 O      5, 10, 11, 21-24
    3   16 S      20
    4    1 H      29-65

           -------------------------------------------------
          |                Calculation Setup                |
           -------------------------------------------------

          program call               : xtb A084.xyz --opt --namespace A084 --charge -1
          calculation namespace      : A084
          coordinate file            : A084.xyz
          omp threads                :                     8


           -------------------------------------------------
          |                 G F N 2 - x T B                 |
           -------------------------------------------------

        Reference                      10.1021/acs.jctc.8b01176
      * Hamiltonian:
        H0-scaling (s, p, d)           1.850000    2.230000    2.230000
        zeta-weighting                 0.500000
      * Dispersion:
        s8                             2.700000
        a1                             0.520000
        a2                             5.000000
        s9                             5.000000
      * Repulsion:
        kExp                           1.500000    1.000000
        rExp                           1.000000
      * Coulomb:
        alpha                          2.000000
        third order                    shell-resolved
        anisotropic                    true
        a3                             3.000000
        a5                             4.000000
        cn-shift                       1.200000
        cn-exp                         4.000000
        max-rad                        5.000000


          ...................................................
          :                      SETUP                      :
          :.................................................:
          :  # basis functions                 155          :
          :  # atomic orbitals                 154          :
          :  # shells                           94          :
          :  # electrons                       166          :
          :  max. iterations                   250          :
          :  Hamiltonian                  GFN2-xTB          :
          :  restarted?                      false          :
          :  GBSA solvation                  false          :
          :  PC potential                    false          :
          :  electronic temp.          300.0000000     K    :
          :  accuracy                    1.0000000          :
          :  -> integral cutoff          0.2500000E+02      :
          :  -> integral neglect         0.1000000E-07      :
          :  -> SCF convergence          0.1000000E-05 Eh   :
          :  -> wf. convergence          0.1000000E-03 e    :
          :  Broyden damping             0.4000000          :
          :  net charge                         -1          :
          :  unpaired electrons                  0          :
          ...................................................

 iter      E             dE          RMSdq      gap      omega  full diag
   1    -94.4301139 -0.944301E+02  0.438E+00    4.56       0.0  T
   2    -94.6589189 -0.228805E+00  0.241E+00    2.90       1.0  T
   3    -94.6644057 -0.548673E-02  0.127E+00    2.79       1.0  T
   4    -94.6802380 -0.158323E-01  0.338E-01    1.99       1.0  T
   5    -94.6830559 -0.281799E-02  0.148E-01    2.22       1.0  T
   6    -94.6832068 -0.150855E-03  0.825E-02    2.26       1.0  T
   7    -94.6832888 -0.820035E-04  0.364E-02    2.29       1.0  T
   8    -94.6833050 -0.162012E-04  0.154E-02    2.28       1.0  T
   9    -94.6833077 -0.265395E-05  0.559E-03    2.28       2.2  T
  10    -94.6833080 -0.347181E-06  0.201E-03    2.28       6.2  T
  11    -94.6833080 -0.134095E-07  0.819E-04    2.28      15.2  T
  12    -94.6833080 -0.100891E-07  0.284E-04    2.28      43.7  T

   *** convergence criteria satisfied after 12 iterations ***

         #    Occupation            Energy/Eh            Energy/eV
      -------------------------------------------------------------
         1        2.0000           -0.6250147             -17.0075
       ...           ...                  ...                  ...
        77        2.0000           -0.3012368              -8.1971
        78        2.0000           -0.2670897              -7.2679
        79        2.0000           -0.2660089              -7.2385
        80        2.0000           -0.2485521              -6.7634
        81        2.0000           -0.2471600              -6.7256
        82        2.0000           -0.2375775              -6.4648
        83        2.0000           -0.2349876              -6.3943 (HOMO)
        84                         -0.1512737              -4.1164 (LUMO)
        85                         -0.1236570              -3.3649
        86                          0.0822334               2.2377
        87                          0.0975767               2.6552
        88                          0.1011683               2.7529
       ...                                ...                  ...
       154                          1.3530479              36.8183
      -------------------------------------------------------------
                  HL-Gap            0.0837139 Eh            2.2780 eV
             Fermi-level           -0.1931307 Eh           -5.2554 eV

 SCC (total)                   0 d,  0 h,  0 min,  0.063 sec
 SCC setup                      ...        0 min,  0.000 sec (  0.372%)
 Dispersion                     ...        0 min,  0.001 sec (  1.758%)
 classical contributions        ...        0 min,  0.000 sec (  0.150%)
 integral evaluation            ...        0 min,  0.005 sec (  8.355%)
 iterations                     ...        0 min,  0.041 sec ( 64.743%)
 molecular gradient             ...        0 min,  0.015 sec ( 24.148%)
 printout                       ...        0 min,  0.000 sec (  0.445%)

         :::::::::::::::::::::::::::::::::::::::::::::::::::::
         ::                     SUMMARY                     ::
         :::::::::::::::::::::::::::::::::::::::::::::::::::::
         :: total energy             -93.690381754869 Eh    ::
         :: gradient norm              0.104281642178 Eh/a0 ::
         :: HOMO-LUMO gap              2.277971997353 eV    ::
         ::.................................................::
         :: SCC energy               -94.682279213015 Eh    ::
         :: -> isotropic ES            0.298886458903 Eh    ::
         :: -> anisotropic ES         -0.001404959027 Eh    ::
         :: -> anisotropic XC          0.021016692381 Eh    ::
         :: -> dispersion             -0.066031933355 Eh    ::
         :: repulsion energy           0.991897458145 Eh    ::
         :: add. restraining           0.000000000000 Eh    ::
         :: total charge              -1.000000000000 e     ::
         :::::::::::::::::::::::::::::::::::::::::::::::::::::

      ----------------------------------------------------------- 
     |                   =====================                   |
     |                        A N C O P T                        |
     |                   =====================                   |
     |               Approximate Normal Coordinate               |
     |                Rational Function Optimizer                |
      ----------------------------------------------------------- 
      ----------------------------------------------------------- 
     |                   =====================                   |
     |                        A N C O P T                        |
     |                   =====================                   |
     |               Approximate Normal Coordinate               |
     |                Rational Function Optimizer                |
      ----------------------------------------------------------- 

          ...................................................
          :                      SETUP                      :
          :.................................................:
          :   optimization level            normal          :
          :   max. optcycles                   200          :
          :   ANC micro-cycles                  20          :
          :   degrees of freedom               189          :
          :.................................................:
          :   RF solver                   davidson          :
          :   write xtbopt.log                true          :
          :   linear?                        false          :
          :   energy convergence         0.5000000E-05 Eh   :
          :   grad. convergence          0.1000000E-02 Eh/α :
          :   maxmium RF displ.          1.0000000          :
          :   Hlow (freq-cutoff)         0.1000000E-01      :
          :   Hmax (freq-cutoff)         5.0000000          :
          :   S6 in model hess.         20.0000000          :
          ...................................................

generating ANC from exact Hessian ...
Using Lindh-Hessian (1995)
 Shifting diagonal of input Hessian by    9.9507788250332452E-003
 Lowest  eigenvalues of input Hessian
    0.000000    0.000000    0.000000    0.000000    0.000000    0.000000
    0.010000    0.010017    0.010094    0.010184    0.010450    0.010604
    0.010781    0.010945    0.011129    0.011354    0.011687    0.012284
 Highest eigenvalues
    1.736978    1.862529    2.219438    2.242519    3.386367    3.476842


........................................................................
.............................. CYCLE    1 ..............................
........................................................................

 iter      E             dE          RMSdq      gap      omega  full diag
   1    -94.6833080 -0.946833E+02  0.946E-05    2.28       0.0  T
   2    -94.6833080 -0.351719E-10  0.630E-05    2.28     196.9  T
   3    -94.6833080 -0.812861E-11  0.219E-05    2.28     565.6  T
     SCC iter.                  ...        0 min,  0.012 sec
     gradient                   ...        0 min,  0.016 sec
 * total energy  :   -93.6903818 Eh     change       -0.7078143E-09 Eh
   gradient norm :     0.1042858 Eh/α   predicted     0.0000000E+00 (-100.00%)
   displ. norm   :     0.2979245 α      lambda       -0.1480470E-01
   maximum displ.:     0.0785650 α      in ANC's #80, #94, #87, ...

........................................................................
.............................. CYCLE    2 ..............................
........................................................................

 iter      E             dE          RMSdq      gap      omega  full diag
   1    -94.7193794 -0.947194E+02  0.184E-01    2.48       0.0  T
   2    -94.7195773 -0.197917E-03  0.114E-01    2.49       1.0  T
   3    -94.7195711  0.618380E-05  0.423E-02    2.49       1.0  T
   4    -94.7196045 -0.333249E-04  0.112E-02    2.51       1.1  T
   5    -94.7196051 -0.593481E-06  0.434E-03    2.50       2.9  T
   6    -94.7196053 -0.287347E-06  0.176E-03    2.50       7.0  T
   7    -94.7196054 -0.326471E-07  0.704E-04    2.50      17.6  T
   8    -94.7196054 -0.414089E-08  0.360E-04    2.50      34.4  T
     SCC iter.                  ...        0 min,  0.027 sec
     gradient                   ...        0 min,  0.019 sec
 * total energy  :   -93.7000982 Eh     change       -0.9716477E-02 Eh
   gradient norm :     0.0444709 Eh/α   predicted    -0.8067072E-02 ( -16.98%)
   displ. norm   :     0.2767152 α      lambda       -0.4305266E-02
   maximum displ.:     0.0841622 α      in ANC's #20, #10, #40, ...

........................................................................
.............................. CYCLE    3 ..............................
........................................................................

 iter      E             dE          RMSdq      gap      omega  full diag
   1    -94.7364761 -0.947365E+02  0.100E-01    2.59       0.0  T
   2    -94.7365878 -0.111744E-03  0.685E-02    2.61       1.0  T
   3    -94.7365992 -0.113657E-04  0.296E-02    2.61       1.0  T
   4    -94.7366059 -0.671760E-05  0.895E-03    2.63       1.4  T
   5    -94.7366065 -0.575947E-06  0.343E-03    2.63       3.6  T
   6    -94.7366066 -0.123228E-06  0.122E-03    2.63      10.2  T
   7    -94.7366066 -0.173293E-07  0.547E-04    2.63      22.7  T
   8    -94.7366066 -0.296853E-08  0.270E-04    2.63      45.9  T
     SCC iter.                  ...        0 min,  0.028 sec
     gradient                   ...        0 min,  0.015 sec
 * total energy  :   -93.7028223 Eh     change       -0.2724043E-02 Eh
   gradient norm :     0.0225120 Eh/α   predicted    -0.2325179E-02 ( -14.64%)
   displ. norm   :     0.2793884 α      lambda       -0.1479305E-02
   maximum displ.:     0.1067328 α      in ANC's #10, #6, #9, ...

........................................................................
.............................. CYCLE    4 ..............................
........................................................................

 iter      E             dE          RMSdq      gap      omega  full diag
   1    -94.7376769 -0.947377E+02  0.546E-02    2.58       0.0  T
   2    -94.7377097 -0.328031E-04  0.386E-02    2.63       1.0  T
   3    -94.7377141 -0.434237E-05  0.178E-02    2.63       1.0  T
   4    -94.7377165 -0.240041E-05  0.504E-03    2.65       2.5  T
   5    -94.7377168 -0.281725E-06  0.211E-03    2.65       5.9  T
   6    -94.7377168 -0.313096E-07  0.590E-04    2.65      21.0  T
   7    -94.7377168 -0.269527E-08  0.279E-04    2.65      44.5  T
     SCC iter.                  ...        0 min,  0.024 sec
     gradient                   ...        0 min,  0.015 sec
 * total energy  :   -93.7038965 Eh     change       -0.1074198E-02 Eh
   gradient norm :     0.0114327 Eh/α   predicted    -0.7975579E-03 ( -25.75%)
   displ. norm   :     0.3750992 α      lambda       -0.1095641E-02
   maximum displ.:     0.1578495 α      in ANC's #10, #6, #9, ...

........................................................................
.............................. CYCLE    5 ..............................
........................................................................

 iter      E             dE          RMSdq      gap      omega  full diag
   1    -94.7355642 -0.947356E+02  0.557E-02    2.61       0.0  T
   2    -94.7355840 -0.198076E-04  0.374E-02    2.64       1.0  T
   3    -94.7355847 -0.750672E-06  0.160E-02    2.65       1.0  T
   4    -94.7355885 -0.374931E-05  0.418E-03    2.66       3.0  T
   5    -94.7355887 -0.222116E-06  0.179E-03    2.66       6.9  T
   6    -94.7355887 -0.254219E-07  0.605E-04    2.66      20.5  T
   7    -94.7355887 -0.276013E-08  0.267E-04    2.66      46.5  T
     SCC iter.                  ...        0 min,  0.024 sec
     gradient                   ...        0 min,  0.015 sec
 * total energy  :   -93.7046866 Eh     change       -0.7900840E-03 Eh
   gradient norm :     0.0087834 Eh/α   predicted    -0.6249104E-03 ( -20.91%)
   displ. norm   :     0.4003688 α      lambda       -0.7517212E-03
   maximum displ.:     0.1765549 α      in ANC's #10, #6, #9, ...

........................................................................
.............................. CYCLE    6 ..............................
........................................................................

 iter      E             dE          RMSdq      gap      omega  full diag
   1    -94.7328514 -0.947329E+02  0.576E-02    2.63       0.0  T
   2    -94.7328582 -0.681513E-05  0.346E-02    2.65       1.0  T
   3    -94.7328574  0.803050E-06  0.917E-03    2.66       1.4  T
   4    -94.7328594 -0.202545E-05  0.301E-03    2.66       4.1  T
   5    -94.7328596 -0.165490E-06  0.119E-03    2.66      10.4  T
   6    -94.7328596 -0.119319E-07  0.484E-04    2.66      25.6  T
   7    -94.7328596 -0.161448E-08  0.193E-04    2.66      64.3  T
     SCC iter.                  ...        0 min,  0.024 sec
     gradient                   ...        0 min,  0.015 sec
 * total energy  :   -93.7052636 Eh     change       -0.5770610E-03 Eh
   gradient norm :     0.0130277 Eh/α   predicted    -0.4361118E-03 ( -24.43%)
   displ. norm   :     0.4500204 α      lambda       -0.7668792E-03
   maximum displ.:     0.1993401 α      in ANC's #10, #6, #9, ...

........................................................................
.............................. CYCLE    7 ..............................
........................................................................

 iter      E             dE          RMSdq      gap      omega  full diag
   1    -94.7308528 -0.947309E+02  0.724E-02    2.66       0.0  T
   2    -94.7308579 -0.508989E-05  0.422E-02    2.67       1.0  T
   3    -94.7308580 -0.515330E-07  0.638E-03    2.68       1.9  T
   4    -94.7308587 -0.758541E-06  0.241E-03    2.67       5.1  T
   5    -94.7308589 -0.154541E-06  0.107E-03    2.67      11.6  T
   6    -94.7308589 -0.864253E-08  0.430E-04    2.67      28.9  T
   7    -94.7308589 -0.127515E-08  0.164E-04    2.67      75.4  T
     SCC iter.                  ...        0 min,  0.043 sec
     gradient                   ...        0 min,  0.015 sec
 * total energy  :   -93.7058727 Eh     change       -0.6090447E-03 Eh
   gradient norm :     0.0153209 Eh/α   predicted    -0.4610940E-03 ( -24.29%)
   displ. norm   :     0.4817381 α      lambda       -0.8808033E-03
   maximum displ.:     0.2054188 α      in ANC's #6, #10, #9, ...

........................................................................
.............................. CYCLE    8 ..............................
........................................................................

 iter      E             dE          RMSdq      gap      omega  full diag
   1    -94.7309732 -0.947310E+02  0.864E-02    2.70       0.0  T
   2    -94.7309831 -0.996554E-05  0.511E-02    2.69       1.0  T
   3    -94.7309778  0.537974E-05  0.140E-02    2.70       1.0  T
   4    -94.7309857 -0.789804E-05  0.284E-03    2.69       4.4  T
   5    -94.7309857 -0.943153E-07  0.119E-03    2.69      10.4  T
   6    -94.7309858 -0.761227E-08  0.466E-04    2.69      26.6  T
   7    -94.7309858 -0.108861E-08  0.194E-04    2.69      64.1  T
     SCC iter.                  ...        0 min,  0.024 sec
     gradient                   ...        0 min,  0.015 sec
 * total energy  :   -93.7065594 Eh     change       -0.6867086E-03 Eh
   gradient norm :     0.0132111 Eh/α   predicted    -0.5426102E-03 ( -20.98%)
   displ. norm   :     0.4459290 α      lambda       -0.7959699E-03
   maximum displ.:     0.1783877 α      in ANC's #6, #10, #9, ...

........................................................................
.............................. CYCLE    9 ..............................
........................................................................

 iter      E             dE          RMSdq      gap      omega  full diag
   1    -94.7341655 -0.947342E+02  0.856E-02    2.73       0.0  T
   2    -94.7341773 -0.117766E-04  0.509E-02    2.72       1.0  T
   3    -94.7341715  0.577725E-05  0.149E-02    2.72       1.0  T
   4    -94.7341802 -0.874506E-05  0.345E-03    2.71       3.6  T
   5    -94.7341803 -0.126546E-06  0.119E-03    2.72      10.5  T
   6    -94.7341804 -0.970722E-08  0.510E-04    2.72      24.3  T
   7    -94.7341804 -0.141260E-08  0.224E-04    2.72      55.4  T
     SCC iter.                  ...        0 min,  0.024 sec
     gradient                   ...        0 min,  0.015 sec
 * total energy  :   -93.7071436 Eh     change       -0.5841884E-03 Eh
   gradient norm :     0.0087072 Eh/α   predicted    -0.4771288E-03 ( -18.33%)
   displ. norm   :     0.4297707 α      lambda       -0.5202305E-03
   maximum displ.:     0.1630214 α      in ANC's #6, #10, #15, ...

........................................................................
.............................. CYCLE   10 ..............................
........................................................................

 iter      E             dE          RMSdq      gap      omega  full diag
   1    -94.7354654 -0.947355E+02  0.770E-02    2.73       0.0  T
   2    -94.7354702 -0.485044E-05  0.446E-02    2.73       1.0  T
   3    -94.7354697  0.578101E-06  0.714E-03    2.73       1.7  T
   4    -94.7354710 -0.132990E-05  0.305E-03    2.72       4.1  T
   5    -94.7354712 -0.171694E-06  0.903E-04    2.73      13.7  T
   6    -94.7354712 -0.527919E-08  0.371E-04    2.73      33.5  T
     SCC iter.                  ...        0 min,  0.021 sec
     gradient                   ...        0 min,  0.015 sec
 * total energy  :   -93.7075398 Eh     change       -0.3962559E-03 Eh
   gradient norm :     0.0092690 Eh/α   predicted    -0.3081653E-03 ( -22.23%)
   displ. norm   :     0.4126317 α      lambda       -0.5603335E-03
   maximum displ.:     0.1801255 α      in ANC's #15, #24, #19, ...

........................................................................
.............................. CYCLE   11 ..............................
........................................................................

 iter      E             dE          RMSdq      gap      omega  full diag
   1    -94.7407625 -0.947408E+02  0.769E-02    2.75       0.0  T
   2    -94.7407704 -0.790344E-05  0.431E-02    2.74       1.0  T
   3    -94.7407708 -0.451512E-06  0.870E-03    2.74       1.4  T
   4    -94.7407713 -0.448977E-06  0.338E-03    2.74       3.7  T
   5    -94.7407714 -0.170731E-06  0.109E-03    2.74      11.3  T
   6    -94.7407715 -0.158338E-07  0.401E-04    2.74      30.9  T
   7    -94.7407715 -0.103915E-08  0.216E-04    2.74      57.4  T
     SCC iter.                  ...        0 min,  0.024 sec
     gradient                   ...        0 min,  0.016 sec
 * total energy  :   -93.7079159 Eh     change       -0.3760687E-03 Eh
   gradient norm :     0.0103419 Eh/α   predicted    -0.3278825E-03 ( -12.81%)
   displ. norm   :     0.5572722 α      lambda       -0.5619859E-03
   maximum displ.:     0.2156272 α      in ANC's #15, #10, #6, ...

........................................................................
.............................. CYCLE   12 ..............................
........................................................................

 iter      E             dE          RMSdq      gap      omega  full diag
   1    -94.7357575 -0.947358E+02  0.958E-02    2.74       0.0  T
   2    -94.7357679 -0.104477E-04  0.542E-02    2.75       1.0  T
   3    -94.7357679  0.424248E-08  0.115E-02    2.76       1.1  T
   4    -94.7357693 -0.139028E-05  0.468E-03    2.76       2.6  T
   5    -94.7357697 -0.410659E-06  0.166E-03    2.76       7.5  T
   6    -94.7357697 -0.299535E-07  0.505E-04    2.76      24.6  T
   7    -94.7357697 -0.113303E-08  0.247E-04    2.76      50.3  T
     SCC iter.                  ...        0 min,  0.024 sec
     gradient                   ...        0 min,  0.015 sec
 * total energy  :   -93.7082446 Eh     change       -0.3287544E-03 Eh
   gradient norm :     0.0118046 Eh/α   predicted    -0.3682568E-03 (  12.02%)
   displ. norm   :     0.2597370 α      lambda       -0.4666511E-03
   maximum displ.:     0.1287650 α      in ANC's #15, #24, #14, ...

........................................................................
.............................. CYCLE   13 ..............................
........................................................................

 iter      E             dE          RMSdq      gap      omega  full diag
   1    -94.7392636 -0.947393E+02  0.514E-02    2.78       0.0  T
   2    -94.7392710 -0.736417E-05  0.273E-02    2.79       1.0  T
   3    -94.7392710 -0.404052E-08  0.104E-02    2.79       1.2  T
   4    -94.7392719 -0.930329E-06  0.458E-03    2.79       2.7  T
   5    -94.7392722 -0.306673E-06  0.141E-03    2.79       8.8  T
   6    -94.7392722 -0.487660E-08  0.320E-04    2.79      38.8  T
   7    -94.7392722 -0.110323E-08  0.181E-04    2.79      68.4  T
     SCC iter.                  ...        0 min,  0.023 sec
     gradient                   ...        0 min,  0.016 sec
 * total energy  :   -93.7085757 Eh     change       -0.3310190E-03 Eh
   gradient norm :     0.0080836 Eh/α   predicted    -0.2490702E-03 ( -24.76%)
   displ. norm   :     0.4159894 α      lambda       -0.4666789E-03
   maximum displ.:     0.2124350 α      in ANC's #15, #24, #12, ...

........................................................................
.............................. CYCLE   14 ..............................
........................................................................

 iter      E             dE          RMSdq      gap      omega  full diag
   1    -94.7355806 -0.947356E+02  0.823E-02    2.80       0.0  T
   2    -94.7355995 -0.189559E-04  0.448E-02    2.82       1.0  T
   3    -94.7356003 -0.732531E-06  0.140E-02    2.82       1.0  T
   4    -94.7356010 -0.797319E-06  0.530E-03    2.82       2.3  T
   5    -94.7356015 -0.411257E-06  0.188E-03    2.82       6.6  T
   6    -94.7356015 -0.524959E-07  0.621E-04    2.82      20.0  T
   7    -94.7356015 -0.228346E-08  0.308E-04    2.82      40.3  T
     SCC iter.                  ...        0 min,  0.024 sec
     gradient                   ...        0 min,  0.015 sec
 * total energy  :   -93.7088025 Eh     change       -0.2268571E-03 Eh
   gradient norm :     0.0122969 Eh/α   predicted    -0.2737207E-03 (  20.66%)
   displ. norm   :     0.2555167 α      lambda       -0.3649750E-03
   maximum displ.:     0.0981644 α      in ANC's #15, #14, #4, ...

........................................................................
.............................. CYCLE   15 ..............................
........................................................................

 iter      E             dE          RMSdq      gap      omega  full diag
   1    -94.7378529 -0.947379E+02  0.475E-02    2.83       0.0  T
   2    -94.7378614 -0.856407E-05  0.250E-02    2.84       1.0  T
   3    -94.7378617 -0.250416E-06  0.927E-03    2.85       1.3  T
   4    -94.7378620 -0.371570E-06  0.403E-03    2.85       3.1  T
   5    -94.7378623 -0.236569E-06  0.125E-03    2.85       9.9  T
   6    -94.7378623 -0.790665E-08  0.390E-04    2.85      31.8  T
   7    -94.7378623 -0.986347E-09  0.199E-04    2.85      62.4  T
     SCC iter.                  ...        0 min,  0.024 sec
     gradient                   ...        0 min,  0.015 sec
 * total energy  :   -93.7090447 Eh     change       -0.2422066E-03 Eh
   gradient norm :     0.0085498 Eh/α   predicted    -0.1944047E-03 ( -19.74%)
   displ. norm   :     0.3269054 α      lambda       -0.3053265E-03
   maximum displ.:     0.1377996 α      in ANC's #15, #12, #10, ...

........................................................................
.............................. CYCLE   16 ..............................
........................................................................

 iter      E             dE          RMSdq      gap      omega  full diag
   1    -94.7380644 -0.947381E+02  0.567E-02    2.85       0.0  T
   2    -94.7380715 -0.712401E-05  0.306E-02    2.87       1.0  T
   3    -94.7380719 -0.409528E-06  0.858E-03    2.87       1.4  T
   4    -94.7380721 -0.189010E-06  0.346E-03    2.87       3.6  T
   5    -94.7380723 -0.202789E-06  0.107E-03    2.87      11.6  T
   6    -94.7380724 -0.180484E-07  0.417E-04    2.87      29.7  T
   7    -94.7380724 -0.622393E-09  0.178E-04    2.87      69.8  T
     SCC iter.                  ...        0 min,  0.025 sec
     gradient                   ...        0 min,  0.015 sec
 * total energy  :   -93.7092942 Eh     change       -0.2494576E-03 Eh
   gradient norm :     0.0103401 Eh/α   predicted    -0.1689801E-03 ( -32.26%)
   displ. norm   :     0.5164396 α      lambda       -0.6446278E-03
   maximum displ.:     0.1850909 α      in ANC's #6, #15, #4, ...

........................................................................
.............................. CYCLE   17 ..............................
........................................................................

 iter      E             dE          RMSdq      gap      omega  full diag
   1    -94.7429718 -0.947430E+02  0.980E-02    2.89       0.0  T
   2    -94.7429918 -0.200605E-04  0.538E-02    2.93       1.0  T
   3    -94.7429934 -0.158076E-05  0.135E-02    2.93       1.0  T
   4    -94.7429938 -0.385198E-06  0.508E-03    2.94       2.4  T
   5    -94.7429945 -0.697124E-06  0.164E-03    2.93       7.6  T
   6    -94.7429945 -0.215769E-07  0.713E-04    2.93      17.4  T
   7    -94.7429945 -0.384340E-08  0.345E-04    2.93      36.0  T
     SCC iter.                  ...        0 min,  0.025 sec
     gradient                   ...        0 min,  0.019 sec
 * total energy  :   -93.7097243 Eh     change       -0.4301045E-03 Eh
   gradient norm :     0.0125640 Eh/α   predicted    -0.4082850E-03 (  -5.07%)
   displ. norm   :     0.6668065 α      lambda       -0.6829822E-03
   maximum displ.:     0.2955322 α      in ANC's #15, #12, #4, ...

........................................................................
.............................. CYCLE   18 ..............................
........................................................................

 iter      E             dE          RMSdq      gap      omega  full diag
   1    -94.7363882 -0.947364E+02  0.121E-01    2.96       0.0  T
   2    -94.7364180 -0.298483E-04  0.660E-02    3.01       1.0  T
   3    -94.7364185 -0.452549E-06  0.185E-02    3.01       1.0  T
   4    -94.7364212 -0.267563E-05  0.795E-03    3.02       1.6  T
   5    -94.7364225 -0.133422E-05  0.235E-03    3.01       5.3  T
   6    -94.7364225 -0.395872E-07  0.903E-04    3.01      13.7  T
   7    -94.7364226 -0.367912E-08  0.441E-04    3.01      28.1  T
     SCC iter.                  ...        0 min,  0.025 sec
     gradient                   ...        0 min,  0.015 sec
 * total energy  :   -93.7102061 Eh     change       -0.4817734E-03 Eh
   gradient norm :     0.0182483 Eh/α   predicted    -0.4933289E-03 (   2.40%)
   displ. norm   :     0.4695610 α      lambda       -0.9066318E-03
   maximum displ.:     0.2651479 α      in ANC's #6, #1, #15, ...

........................................................................
.............................. CYCLE   19 ..............................
........................................................................

 iter      E             dE          RMSdq      gap      omega  full diag
   1    -94.7415864 -0.947416E+02  0.896E-02    3.08       0.0  T
   2    -94.7416070 -0.206156E-04  0.487E-02    3.09       1.0  T
   3    -94.7416078 -0.745460E-06  0.132E-02    3.10       1.0  T
   4    -94.7416090 -0.123005E-05  0.471E-03    3.10       2.6  T
   5    -94.7416093 -0.304321E-06  0.164E-03    3.10       7.5  T
   6    -94.7416093 -0.311292E-07  0.600E-04    3.10      20.7  T
   7    -94.7416093 -0.306792E-08  0.325E-04    3.10      38.1  T
     SCC iter.                  ...        0 min,  0.024 sec
     gradient                   ...        0 min,  0.015 sec
 * total energy  :   -93.7108348 Eh     change       -0.6287591E-03 Eh
   gradient norm :     0.0212971 Eh/α   predicted    -0.5532715E-03 ( -12.01%)
   displ. norm   :     0.5376034 α      lambda       -0.1669304E-02
   maximum displ.:     0.2541619 α      in ANC's #6, #1, #14, ...

........................................................................
.............................. CYCLE   20 ..............................
........................................................................

 iter      E             dE          RMSdq      gap      omega  full diag
   1    -94.7409851 -0.947410E+02  0.133E-01    3.13       0.0  T
   2    -94.7410928 -0.107613E-03  0.701E-02    3.16       1.0  T
   3    -94.7410943 -0.152108E-05  0.249E-02    3.18       1.0  T
   4    -94.7410972 -0.288891E-05  0.862E-03    3.17       1.4  T
   5    -94.7410989 -0.169963E-05  0.310E-03    3.17       4.0  T
   6    -94.7410989 -0.488189E-07  0.103E-03    3.17      12.0  T
   7    -94.7410989 -0.109972E-07  0.493E-04    3.17      25.2  T
   8    -94.7410989 -0.115327E-08  0.190E-04    3.17      65.4  T
     SCC iter.                  ...        0 min,  0.027 sec
     gradient                   ...        0 min,  0.015 sec
 * total energy  :   -93.7120337 Eh     change       -0.1198874E-02 Eh
   gradient norm :     0.0211748 Eh/α   predicted    -0.1075894E-02 ( -10.26%)
   displ. norm   :     0.6306854 α      lambda       -0.1712280E-02
   maximum displ.:     0.3250845 α      in ANC's #6, #1, #14, ...
 * RMSD in coord.:     0.7410547 α      energy gain  -0.2165194E-01 Eh

generating ANC from exact Hessian ...
Using Lindh-Hessian (1995)
 Shifting diagonal of input Hessian by    9.9735297446117092E-003
 Lowest  eigenvalues of input Hessian
    0.000000    0.000000    0.000000    0.000000    0.000000    0.000000
    0.010000    0.010041    0.010100    0.010186    0.010259    0.010659
    0.010779    0.011006    0.011131    0.011344    0.011793    0.012203
 Highest eigenvalues
    1.742460    1.867772    2.301413    2.373568    3.326307    3.472402


........................................................................
.............................. CYCLE   21 ..............................
........................................................................

 iter      E             dE          RMSdq      gap      omega  full diag
   1    -94.7428415 -0.947428E+02  0.118E-01    3.30       0.0  T
   2    -94.7428959 -0.544311E-04  0.648E-02    3.31       1.0  T
   3    -94.7428973 -0.136186E-05  0.218E-02    3.33       1.0  T
   4    -94.7429010 -0.372339E-05  0.735E-03    3.32       1.7  T
   5    -94.7429018 -0.800160E-06  0.290E-03    3.32       4.3  T
   6    -94.7429019 -0.480375E-07  0.943E-04    3.32      13.2  T
   7    -94.7429019 -0.360541E-08  0.540E-04    3.32      22.9  T
     SCC iter.                  ...        0 min,  0.024 sec
     gradient                   ...        0 min,  0.015 sec
 * total energy  :   -93.7134123 Eh     change       -0.1378560E-02 Eh
   gradient norm :     0.0199414 Eh/α   predicted     0.0000000E+00 (-100.00%)
   displ. norm   :     0.1790025 α      lambda       -0.1231062E-02
   maximum displ.:     0.0642363 α      in ANC's #14, #31, #41, ...

........................................................................
.............................. CYCLE   22 ..............................
........................................................................

 iter      E             dE          RMSdq      gap      omega  full diag
   1    -94.7445155 -0.947445E+02  0.641E-02    3.33       0.0  T
   2    -94.7445371 -0.215269E-04  0.347E-02    3.36       1.0  T
   3    -94.7445373 -0.270213E-06  0.116E-02    3.36       1.1  T
   4    -94.7445379 -0.580923E-06  0.319E-03    3.36       3.9  T
   5    -94.7445381 -0.220963E-06  0.140E-03    3.36       8.9  T
   6    -94.7445382 -0.188484E-07  0.498E-04    3.36      24.9  T
   7    -94.7445382 -0.141497E-08  0.233E-04    3.36      53.3  T
     SCC iter.                  ...        0 min,  0.031 sec
     gradient                   ...        0 min,  0.015 sec
 * total energy  :   -93.7144092 Eh     change       -0.9969094E-03 Eh
   gradient norm :     0.0107598 Eh/α   predicted    -0.6353095E-03 ( -36.27%)
   displ. norm   :     0.4565316 α      lambda       -0.1963563E-02
   maximum displ.:     0.1802411 α      in ANC's #14, #11, #31, ...

........................................................................
.............................. CYCLE   23 ..............................
........................................................................

 iter      E             dE          RMSdq      gap      omega  full diag
   1    -94.7443474 -0.947443E+02  0.145E-01    3.35       0.0  T
   2    -94.7444991 -0.151711E-03  0.792E-02    3.41       1.0  T
   3    -94.7445005 -0.140334E-05  0.305E-02    3.42       1.0  T
   4    -94.7445040 -0.346462E-05  0.754E-03    3.42       1.6  T
   5    -94.7445056 -0.163230E-05  0.290E-03    3.42       4.3  T
   6    -94.7445057 -0.636309E-07  0.139E-03    3.42       8.9  T
   7    -94.7445057 -0.841196E-08  0.443E-04    3.42      28.0  T
   8    -94.7445057 -0.865768E-09  0.178E-04    3.42      69.5  T
     SCC iter.                  ...        0 min,  0.028 sec
     gradient                   ...        0 min,  0.015 sec
 * total energy  :   -93.7158277 Eh     change       -0.1418586E-02 Eh
   gradient norm :     0.0202792 Eh/α   predicted    -0.1186690E-02 ( -16.35%)
   displ. norm   :     0.4877002 α      lambda       -0.1530702E-02
   maximum displ.:     0.2049075 α      in ANC's #14, #11, #2, ...

........................................................................
.............................. CYCLE   24 ..............................
........................................................................

 iter      E             dE          RMSdq      gap      omega  full diag
   1    -94.7436795 -0.947437E+02  0.128E-01    3.42       0.0  T
   2    -94.7437928 -0.113306E-03  0.700E-02    3.48       1.0  T
   3    -94.7437948 -0.200239E-05  0.266E-02    3.49       1.0  T
   4    -94.7437969 -0.203453E-05  0.606E-03    3.49       2.0  T
   5    -94.7437979 -0.105661E-05  0.261E-03    3.49       4.7  T
   6    -94.7437979 -0.324974E-07  0.135E-03    3.49       9.2  T
   7    -94.7437980 -0.111655E-07  0.311E-04    3.49      39.8  T
   8    -94.7437980 -0.822311E-09  0.158E-04    3.49      78.6  T
     SCC iter.                  ...        0 min,  0.027 sec
     gradient                   ...        0 min,  0.016 sec
 * total energy  :   -93.7171187 Eh     change       -0.1290990E-02 Eh
   gradient norm :     0.0319337 Eh/α   predicted    -0.9474159E-03 ( -26.61%)
   displ. norm   :     0.6353661 α      lambda       -0.2527861E-02
   maximum displ.:     0.2840221 α      in ANC's #11, #14, #2, ...

........................................................................
.............................. CYCLE   25 ..............................
........................................................................

 iter      E             dE          RMSdq      gap      omega  full diag
   1    -94.7439886 -0.947440E+02  0.145E-01    3.52       0.0  T
   2    -94.7440919 -0.103300E-03  0.813E-02    3.57       1.0  T
   3    -94.7440959 -0.393992E-05  0.262E-02    3.58       1.0  T
   4    -94.7440978 -0.189750E-05  0.618E-03    3.58       2.0  T
   5    -94.7440985 -0.724114E-06  0.330E-03    3.58       3.8  T
   6    -94.7440985 -0.431280E-07  0.137E-03    3.58       9.0  T
   7    -94.7440986 -0.180196E-07  0.430E-04    3.58      28.9  T
   8    -94.7440986 -0.134830E-08  0.187E-04    3.58      66.2  T
     SCC iter.                  ...        0 min,  0.027 sec
     gradient                   ...        0 min,  0.015 sec
 * total energy  :   -93.7192640 Eh     change       -0.2145311E-02 Eh
   gradient norm :     0.0347629 Eh/α   predicted    -0.1774281E-02 ( -17.29%)
   displ. norm   :     0.5577797 α      lambda       -0.3334995E-02
   maximum displ.:     0.2541872 α      in ANC's #11, #14, #8, ...

........................................................................
.............................. CYCLE   26 ..............................
........................................................................

 iter      E             dE          RMSdq      gap      omega  full diag
   1    -94.7496463 -0.947496E+02  0.137E-01    3.66       0.0  T
   2    -94.7497106 -0.643518E-04  0.757E-02    3.67       1.0  T
   3    -94.7497100  0.656018E-06  0.254E-02    3.69       1.0  T
   4    -94.7497185 -0.855157E-05  0.725E-03    3.68       1.7  T
   5    -94.7497195 -0.917252E-06  0.331E-03    3.68       3.8  T
   6    -94.7497195 -0.516994E-07  0.117E-03    3.68      10.6  T
   7    -94.7497195 -0.753265E-08  0.605E-04    3.68      20.5  T
   8    -94.7497195 -0.337307E-08  0.153E-04    3.68      81.2  T
     SCC iter.                  ...        0 min,  0.034 sec
     gradient                   ...        0 min,  0.015 sec
 * total energy  :   -93.7217358 Eh     change       -0.2471774E-02 Eh
   gradient norm :     0.0239390 Eh/α   predicted    -0.2186291E-02 ( -11.55%)
   displ. norm   :     0.6259648 α      lambda       -0.2628980E-02
   maximum displ.:     0.2775606 α      in ANC's #11, #14, #31, ...

........................................................................
.............................. CYCLE   27 ..............................
........................................................................

 iter      E             dE          RMSdq      gap      omega  full diag
   1    -94.7448829 -0.947449E+02  0.174E-01    3.53       0.0  T
   2    -94.7452623 -0.379380E-03  0.970E-02    3.62       1.0  T
   3    -94.7452684 -0.617568E-05  0.436E-02    3.62       1.0  T
   4    -94.7452725 -0.405077E-05  0.108E-02    3.62       1.2  T
   5    -94.7452754 -0.286456E-05  0.354E-03    3.62       3.5  T
   6    -94.7452754 -0.560977E-07  0.175E-03    3.62       7.1  T
   7    -94.7452754 -0.269346E-07  0.624E-04    3.62      19.9  T
   8    -94.7452754 -0.248635E-08  0.277E-04    3.62      44.9  T
     SCC iter.                  ...        0 min,  0.028 sec
     gradient                   ...        0 min,  0.015 sec
 * total energy  :   -93.7228882 Eh     change       -0.1152333E-02 Eh
   gradient norm :     0.0534922 Eh/α   predicted    -0.1829559E-02 (  58.77%)
   displ. norm   :     0.3250024 α      lambda       -0.3734251E-02
   maximum displ.:     0.1113821 α      in ANC's #11, #30, #7, ...

........................................................................
.............................. CYCLE   28 ..............................
........................................................................

 iter      E             dE          RMSdq      gap      omega  full diag
   1    -94.7607931 -0.947608E+02  0.997E-02    3.85       0.0  T
   2    -94.7610129 -0.219828E-03  0.615E-02    3.78       1.0  T
   3    -94.7610400 -0.270481E-04  0.326E-02    3.79       1.0  T
   4    -94.7610444 -0.444106E-05  0.102E-02    3.78       1.2  T
   5    -94.7610448 -0.413497E-06  0.244E-03    3.78       5.1  T
   6    -94.7610449 -0.584578E-07  0.113E-03    3.78      11.0  T
   7    -94.7610449 -0.594690E-08  0.530E-04    3.78      23.4  T
   8    -94.7610449 -0.257769E-08  0.210E-04    3.78      58.9  T
     SCC iter.                  ...        0 min,  0.028 sec
     gradient                   ...        0 min,  0.015 sec
 * total energy  :   -93.7244181 Eh     change       -0.1529977E-02 Eh
   gradient norm :     0.0238090 Eh/α   predicted    -0.2064344E-02 (  34.93%)
   displ. norm   :     0.5036395 α      lambda       -0.2233302E-02
   maximum displ.:     0.2308341 α      in ANC's #11, #14, #2, ...

........................................................................
.............................. CYCLE   29 ..............................
........................................................................

 iter      E             dE          RMSdq      gap      omega  full diag
   1    -94.7546155 -0.947546E+02  0.100E-01    3.73       0.0  T
   2    -94.7547557 -0.140132E-03  0.596E-02    3.76       1.0  T
   3    -94.7547662 -0.104873E-04  0.303E-02    3.76       1.0  T
   4    -94.7547722 -0.600835E-05  0.756E-03    3.77       1.6  T
   5    -94.7547731 -0.959009E-06  0.236E-03    3.77       5.3  T
   6    -94.7547732 -0.419566E-07  0.126E-03    3.76       9.8  T
   7    -94.7547732 -0.489878E-08  0.502E-04    3.76      24.7  T
   8    -94.7547732 -0.336334E-08  0.155E-04    3.76      80.2  T
     SCC iter.                  ...        0 min,  0.027 sec
     gradient                   ...        0 min,  0.015 sec
 * total energy  :   -93.7256711 Eh     change       -0.1252989E-02 Eh
   gradient norm :     0.0226400 Eh/α   predicted    -0.1399902E-02 (  11.73%)
   displ. norm   :     0.3580464 α      lambda       -0.1751236E-02
   maximum displ.:     0.1310854 α      in ANC's #11, #14, #17, ...

........................................................................
.............................. CYCLE   30 ..............................
........................................................................

 iter      E             dE          RMSdq      gap      omega  full diag
   1    -94.7515533 -0.947516E+02  0.964E-02    3.73       0.0  T
   2    -94.7517561 -0.202788E-03  0.534E-02    3.76       1.0  T
   3    -94.7517603 -0.419380E-05  0.283E-02    3.75       1.0  T
   4    -94.7517604 -0.106292E-06  0.758E-03    3.75       1.6  T
   5    -94.7517622 -0.180707E-05  0.172E-03    3.75       7.2  T
   6    -94.7517622 -0.158837E-07  0.880E-04    3.75      14.1  T
   7    -94.7517622 -0.340657E-08  0.312E-04    3.75      39.8  T
     SCC iter.                  ...        0 min,  0.033 sec
     gradient                   ...        0 min,  0.015 sec
 * total energy  :   -93.7267530 Eh     change       -0.1081855E-02 Eh
   gradient norm :     0.0222095 Eh/α   predicted    -0.9878702E-03 (  -8.69%)
   displ. norm   :     0.3306134 α      lambda       -0.1084501E-02
   maximum displ.:     0.1224731 α      in ANC's #21, #17, #14, ...

........................................................................
.............................. CYCLE   31 ..............................
........................................................................

 iter      E             dE          RMSdq      gap      omega  full diag
   1    -94.7555563 -0.947556E+02  0.618E-02    3.83       0.0  T
   2    -94.7555846 -0.283686E-04  0.381E-02    3.81       1.0  T
   3    -94.7555851 -0.445845E-06  0.167E-02    3.81       1.0  T
   4    -94.7555889 -0.383801E-05  0.301E-03    3.81       4.1  T
   5    -94.7555891 -0.141119E-06  0.141E-03    3.81       8.8  T
   6    -94.7555891 -0.131431E-07  0.641E-04    3.81      19.3  T
   7    -94.7555891 -0.205215E-08  0.281E-04    3.81      44.2  T
     SCC iter.                  ...        0 min,  0.024 sec
     gradient                   ...        0 min,  0.015 sec
 * total energy  :   -93.7275364 Eh     change       -0.7834486E-03 Eh
   gradient norm :     0.0124623 Eh/α   predicted    -0.6015489E-03 ( -23.22%)
   displ. norm   :     0.5061404 α      lambda       -0.9206778E-03
   maximum displ.:     0.1712147 α      in ANC's #21, #14, #17, ...

........................................................................
.............................. CYCLE   32 ..............................
........................................................................

 iter      E             dE          RMSdq      gap      omega  full diag
   1    -94.7554873 -0.947555E+02  0.973E-02    3.83       0.0  T
   2    -94.7555005 -0.132216E-04  0.562E-02    3.83       1.0  T
   3    -94.7555008 -0.298587E-06  0.114E-02    3.83       1.1  T
   4    -94.7555031 -0.226004E-05  0.418E-03    3.83       3.0  T
   5    -94.7555032 -0.120218E-06  0.169E-03    3.83       7.3  T
   6    -94.7555032 -0.187552E-07  0.597E-04    3.83      20.8  T
   7    -94.7555032 -0.810573E-09  0.253E-04    3.83      49.1  T
     SCC iter.                  ...        0 min,  0.023 sec
     gradient                   ...        0 min,  0.015 sec
 * total energy  :   -93.7281263 Eh     change       -0.5898361E-03 Eh
   gradient norm :     0.0149693 Eh/α   predicted    -0.5782688E-03 (  -1.96%)
   displ. norm   :     0.3819762 α      lambda       -0.8726823E-03
   maximum displ.:     0.1725207 α      in ANC's #21, #5, #17, ...

........................................................................
.............................. CYCLE   33 ..............................
........................................................................

 iter      E             dE          RMSdq      gap      omega  full diag
   1    -94.7598905 -0.947599E+02  0.726E-02    3.93       0.0  T
   2    -94.7599252 -0.346140E-04  0.437E-02    3.89       1.0  T
   3    -94.7599251  0.100036E-06  0.179E-02    3.89       1.0  T
   4    -94.7599295 -0.443784E-05  0.409E-03    3.89       3.0  T
   5    -94.7599297 -0.244524E-06  0.149E-03    3.89       8.3  T
   6    -94.7599298 -0.150202E-07  0.679E-04    3.89      18.3  T
   7    -94.7599298 -0.306987E-08  0.289E-04    3.89      43.0  T
     SCC iter.                  ...        0 min,  0.029 sec
     gradient                   ...        0 min,  0.015 sec
 * total energy  :   -93.7286493 Eh     change       -0.5230101E-03 Eh
   gradient norm :     0.0172704 Eh/α   predicted    -0.5000087E-03 (  -4.40%)
   displ. norm   :     0.3923204 α      lambda       -0.6822049E-03
   maximum displ.:     0.1549813 α      in ANC's #5, #21, #17, ...

........................................................................
.............................. CYCLE   34 ..............................
........................................................................

 iter      E             dE          RMSdq      gap      omega  full diag
   1    -94.7565436 -0.947565E+02  0.878E-02    3.86       0.0  T
   2    -94.7565548 -0.111826E-04  0.504E-02    3.87       1.0  T
   3    -94.7565543  0.529576E-06  0.116E-02    3.87       1.1  T
   4    -94.7565569 -0.262297E-05  0.335E-03    3.87       3.7  T
   5    -94.7565570 -0.846653E-07  0.134E-03    3.87       9.2  T
   6    -94.7565570 -0.863807E-08  0.508E-04    3.87      24.4  T
   7    -94.7565570 -0.102752E-08  0.212E-04    3.87      58.6  T
     SCC iter.                  ...        0 min,  0.024 sec
     gradient                   ...        0 min,  0.015 sec
 * total energy  :   -93.7291872 Eh     change       -0.5379731E-03 Eh
   gradient norm :     0.0185833 Eh/α   predicted    -0.3936043E-03 ( -26.84%)
   displ. norm   :     0.4489556 α      lambda       -0.1001303E-02
   maximum displ.:     0.1908349 α      in ANC's #5, #11, #3, ...

........................................................................
.............................. CYCLE   35 ..............................
........................................................................

 iter      E             dE          RMSdq      gap      omega  full diag
   1    -94.7564583 -0.947565E+02  0.953E-02    3.82       0.0  T
   2    -94.7564958 -0.375205E-04  0.542E-02    3.83       1.0  T
   3    -94.7564957  0.128819E-06  0.183E-02    3.83       1.0  T
   4    -94.7564987 -0.300978E-05  0.461E-03    3.84       2.7  T
   5    -94.7564992 -0.481733E-06  0.212E-03    3.83       5.9  T
   6    -94.7564992 -0.274418E-07  0.627E-04    3.83      19.8  T
   7    -94.7564992 -0.259352E-08  0.327E-04    3.83      37.9  T
     SCC iter.                  ...        0 min,  0.024 sec
     gradient                   ...        0 min,  0.015 sec
 * total energy  :   -93.7298321 Eh     change       -0.6448526E-03 Eh
   gradient norm :     0.0163101 Eh/α   predicted    -0.6015706E-03 (  -6.71%)
   displ. norm   :     0.4197556 α      lambda       -0.7262686E-03
   maximum displ.:     0.1725225 α      in ANC's #5, #11, #3, ...

........................................................................
.............................. CYCLE   36 ..............................
........................................................................

 iter      E             dE          RMSdq      gap      omega  full diag
   1    -94.7531060 -0.947531E+02  0.929E-02    3.84       0.0  T
   2    -94.7531266 -0.205560E-04  0.544E-02    3.83       1.0  T
   3    -94.7531267 -0.110580E-06  0.159E-02    3.83       1.0  T
   4    -94.7531289 -0.219706E-05  0.345E-03    3.83       3.6  T
   5    -94.7531292 -0.295956E-06  0.171E-03    3.83       7.3  T
   6    -94.7531292 -0.179637E-07  0.536E-04    3.83      23.1  T
   7    -94.7531292 -0.139784E-08  0.236E-04    3.83      52.6  T
     SCC iter.                  ...        0 min,  0.023 sec
     gradient                   ...        0 min,  0.026 sec
 * total energy  :   -93.7302089 Eh     change       -0.3767893E-03 Eh
   gradient norm :     0.0205781 Eh/α   predicted    -0.4271188E-03 (  13.36%)
   displ. norm   :     0.2953203 α      lambda       -0.7323622E-03
   maximum displ.:     0.1062440 α      in ANC's #11, #5, #3, ...

........................................................................
.............................. CYCLE   37 ..............................
........................................................................

 iter      E             dE          RMSdq      gap      omega  full diag
   1    -94.7555691 -0.947556E+02  0.518E-02    3.86       0.0  T
   2    -94.7555940 -0.249202E-04  0.294E-02    3.85       1.0  T
   3    -94.7555950 -0.100672E-05  0.147E-02    3.85       1.0  T
   4    -94.7555955 -0.514415E-06  0.318E-03    3.85       3.9  T
   5    -94.7555959 -0.312311E-06  0.106E-03    3.85      11.7  T
   6    -94.7555959 -0.426736E-08  0.328E-04    3.85      37.8  T
   7    -94.7555959 -0.351335E-09  0.128E-04    3.85      97.1  T
     SCC iter.                  ...        0 min,  0.028 sec
     gradient                   ...        0 min,  0.015 sec
 * total energy  :   -93.7307087 Eh     change       -0.4997794E-03 Eh
   gradient norm :     0.0128215 Eh/α   predicted    -0.3981209E-03 ( -20.34%)
   displ. norm   :     0.3078255 α      lambda       -0.5927199E-03
   maximum displ.:     0.1206020 α      in ANC's #3, #17, #5, ...

........................................................................
.............................. CYCLE   38 ..............................
........................................................................

 iter      E             dE          RMSdq      gap      omega  full diag
   1    -94.7592654 -0.947593E+02  0.542E-02    3.86       0.0  T
   2    -94.7592745 -0.910130E-05  0.300E-02    3.86       1.0  T
   3    -94.7592748 -0.350174E-06  0.948E-03    3.86       1.3  T
   4    -94.7592753 -0.479854E-06  0.295E-03    3.86       4.2  T
   5    -94.7592754 -0.149292E-06  0.121E-03    3.86      10.3  T
   6    -94.7592754 -0.604973E-08  0.289E-04    3.86      42.9  T
   7    -94.7592754 -0.513481E-09  0.153E-04    3.86      81.2  T
     SCC iter.                  ...        0 min,  0.039 sec
     gradient                   ...        0 min,  0.015 sec
 * total energy  :   -93.7311150 Eh     change       -0.4063571E-03 Eh
   gradient norm :     0.0087630 Eh/α   predicted    -0.3244455E-03 ( -20.16%)
   displ. norm   :     0.5971484 α      lambda       -0.7043265E-03
   maximum displ.:     0.2013764 α      in ANC's #3, #17, #5, ...

........................................................................
.............................. CYCLE   39 ..............................
........................................................................

 iter      E             dE          RMSdq      gap      omega  full diag
   1    -94.7526084 -0.947526E+02  0.109E-01    3.87       0.0  T
   2    -94.7526443 -0.358821E-04  0.644E-02    3.85       1.0  T
   3    -94.7526447 -0.401962E-06  0.195E-02    3.84       1.0  T
   4    -94.7526490 -0.428836E-05  0.551E-03    3.84       2.2  T
   5    -94.7526493 -0.348851E-06  0.270E-03    3.84       4.6  T
   6    -94.7526494 -0.713403E-07  0.695E-04    3.84      17.8  T
   7    -94.7526494 -0.253827E-08  0.306E-04    3.84      40.5  T
     SCC iter.                  ...        0 min,  0.025 sec
     gradient                   ...        0 min,  0.015 sec
 * total energy  :   -93.7312662 Eh     change       -0.1511783E-03 Eh
   gradient norm :     0.0208810 Eh/α   predicted    -0.4777414E-03 ( 216.01%)
   displ. norm   :     0.1976058 α      lambda       -0.8543169E-03
   maximum displ.:     0.0853555 α      in ANC's #6, #14, #5, ...

........................................................................
.............................. CYCLE   40 ..............................
........................................................................

 iter      E             dE          RMSdq      gap      omega  full diag
   1    -94.7626138 -0.947626E+02  0.487E-02    3.91       0.0  T
   2    -94.7626299 -0.161785E-04  0.282E-02    3.89       1.0  T
   3    -94.7626302 -0.242936E-06  0.114E-02    3.90       1.1  T
   4    -94.7626316 -0.140794E-05  0.297E-03    3.89       4.2  T
   5    -94.7626317 -0.649876E-07  0.126E-03    3.90       9.8  T
   6    -94.7626317 -0.995358E-08  0.378E-04    3.90      32.8  T
   7    -94.7626317 -0.924913E-09  0.208E-04    3.90      59.5  T
     SCC iter.                  ...        0 min,  0.024 sec
     gradient                   ...        0 min,  0.015 sec
 * total energy  :   -93.7317224 Eh     change       -0.4561831E-03 Eh
   gradient norm :     0.0128561 Eh/α   predicted    -0.4438475E-03 (  -2.70%)
   displ. norm   :     0.2278606 α      lambda       -0.3345933E-03
   maximum displ.:     0.0924484 α      in ANC's #3, #4, #17, ...

........................................................................
.............................. CYCLE   41 ..............................
........................................................................

 iter      E             dE          RMSdq      gap      omega  full diag
   1    -94.7619531 -0.947620E+02  0.404E-02    3.87       0.0  T
   2    -94.7619580 -0.487135E-05  0.230E-02    3.88       1.0  T
   3    -94.7619578  0.237919E-06  0.708E-03    3.88       1.8  T
   4    -94.7619586 -0.873526E-06  0.195E-03    3.88       6.4  T
   5    -94.7619587 -0.346430E-07  0.795E-04    3.88      15.6  T
   6    -94.7619587 -0.405143E-08  0.255E-04    3.88      48.6  T
     SCC iter.                  ...        0 min,  0.021 sec
     gradient                   ...        0 min,  0.015 sec
 * total energy  :   -93.7319756 Eh     change       -0.2532457E-03 Eh
   gradient norm :     0.0082773 Eh/α   predicted    -0.1759829E-03 ( -30.51%)
   displ. norm   :     0.4935476 α      lambda       -0.5760759E-03
   maximum displ.:     0.1905115 α      in ANC's #3, #6, #4, ...

........................................................................
.............................. CYCLE   42 ..............................
........................................................................

 iter      E             dE          RMSdq      gap      omega  full diag
   1    -94.7611516 -0.947612E+02  0.708E-02    3.89       0.0  T
   2    -94.7611638 -0.121490E-04  0.412E-02    3.88       1.0  T
   3    -94.7611644 -0.674846E-06  0.108E-02    3.87       1.1  T
   4    -94.7611651 -0.708090E-06  0.290E-03    3.87       4.3  T
   5    -94.7611652 -0.103195E-06  0.115E-03    3.87      10.8  T
   6    -94.7611653 -0.123278E-07  0.353E-04    3.87      35.2  T
   7    -94.7611653 -0.653117E-09  0.157E-04    3.87      79.0  T
     SCC iter.                  ...        0 min,  0.023 sec
     gradient                   ...        0 min,  0.015 sec
 * total energy  :   -93.7324254 Eh     change       -0.4497791E-03 Eh
   gradient norm :     0.0109533 Eh/α   predicted    -0.3582019E-03 ( -20.36%)
   displ. norm   :     0.5251622 α      lambda       -0.5916747E-03
   maximum displ.:     0.2257130 α      in ANC's #6, #4, #3, ...
 * RMSD in coord.:     0.7759409 α      energy gain  -0.2039172E-01 Eh

generating ANC from exact Hessian ...
Using Lindh-Hessian (1995)
 Shifting diagonal of input Hessian by    9.9448658917565737E-003
 Lowest  eigenvalues of input Hessian
    0.000000    0.000000    0.000000    0.000000    0.000000    0.000000
    0.010000    0.010027    0.010139    0.010199    0.010416    0.010607
    0.010796    0.010970    0.011216    0.011368    0.011765    0.012337
 Highest eigenvalues
    1.838784    1.862449    2.270312    2.380680    3.306393    3.434778


........................................................................
.............................. CYCLE   43 ..............................
........................................................................

 iter      E             dE          RMSdq      gap      omega  full diag
   1    -94.7607516 -0.947608E+02  0.659E-02    3.88       0.0  T
   2    -94.7607581 -0.648785E-05  0.383E-02    3.88       1.0  T
   3    -94.7607587 -0.631974E-06  0.868E-03    3.87       1.4  T
   4    -94.7607591 -0.372776E-06  0.259E-03    3.88       4.8  T
   5    -94.7607592 -0.442818E-07  0.101E-03    3.88      12.3  T
   6    -94.7607592 -0.162901E-07  0.313E-04    3.88      39.6  T
   7    -94.7607592 -0.523499E-09  0.142E-04    3.88      87.2  T
     SCC iter.                  ...        0 min,  0.024 sec
     gradient                   ...        0 min,  0.015 sec
 * total energy  :   -93.7328835 Eh     change       -0.4580823E-03 Eh
   gradient norm :     0.0139746 Eh/α   predicted     0.0000000E+00 (-100.00%)
   displ. norm   :     0.1471302 α      lambda       -0.7169729E-03
   maximum displ.:     0.0442184 α      in ANC's #29, #17, #19, ...

........................................................................
.............................. CYCLE   44 ..............................
........................................................................

 iter      E             dE          RMSdq      gap      omega  full diag
   1    -94.7613268 -0.947613E+02  0.540E-02    3.88       0.0  T
   2    -94.7613350 -0.823605E-05  0.307E-02    3.89       1.0  T
   3    -94.7613352 -0.174846E-06  0.889E-03    3.89       1.4  T
   4    -94.7613355 -0.291525E-06  0.236E-03    3.89       5.3  T
   5    -94.7613355 -0.788030E-07  0.111E-03    3.89      11.1  T
   6    -94.7613356 -0.135042E-07  0.265E-04    3.89      46.8  T
   7    -94.7613356 -0.331667E-09  0.132E-04    3.89      94.2  T
     SCC iter.                  ...        0 min,  0.024 sec
     gradient                   ...        0 min,  0.015 sec
 * total energy  :   -93.7333941 Eh     change       -0.5106481E-03 Eh
   gradient norm :     0.0092834 Eh/α   predicted    -0.3662569E-03 ( -28.28%)
   displ. norm   :     0.2827963 α      lambda       -0.7890216E-03
   maximum displ.:     0.1136473 α      in ANC's #29, #24, #17, ...

........................................................................
.............................. CYCLE   45 ..............................
........................................................................

 iter      E             dE          RMSdq      gap      omega  full diag
   1    -94.7614545 -0.947615E+02  0.731E-02    3.91       0.0  T
   2    -94.7614705 -0.160038E-04  0.417E-02    3.92       1.0  T
   3    -94.7614711 -0.547042E-06  0.138E-02    3.92       1.0  T
   4    -94.7614718 -0.720862E-06  0.256E-03    3.92       4.8  T
   5    -94.7614719 -0.145756E-06  0.117E-03    3.92      10.6  T
   6    -94.7614719 -0.527955E-08  0.422E-04    3.92      29.4  T
   7    -94.7614719 -0.727624E-09  0.157E-04    3.92      79.2  T
     SCC iter.                  ...        0 min,  0.024 sec
     gradient                   ...        0 min,  0.015 sec
 * total energy  :   -93.7339740 Eh     change       -0.5798125E-03 Eh
   gradient norm :     0.0073712 Eh/α   predicted    -0.4261689E-03 ( -26.50%)
   displ. norm   :     0.3684822 α      lambda       -0.6502290E-03
   maximum displ.:     0.1553984 α      in ANC's #29, #17, #24, ...

........................................................................
.............................. CYCLE   46 ..............................
........................................................................

 iter      E             dE          RMSdq      gap      omega  full diag
   1    -94.7601907 -0.947602E+02  0.755E-02    3.95       0.0  T
   2    -94.7602021 -0.113643E-04  0.439E-02    3.95       1.0  T
   3    -94.7602031 -0.990996E-06  0.124E-02    3.95       1.0  T
   4    -94.7602038 -0.727110E-06  0.243E-03    3.95       5.1  T
   5    -94.7602039 -0.992972E-07  0.130E-03    3.95       9.6  T
   6    -94.7602039 -0.124020E-07  0.364E-04    3.95      34.1  T
   7    -94.7602039 -0.703835E-09  0.180E-04    3.95      68.9  T
     SCC iter.                  ...        0 min,  0.024 sec
     gradient                   ...        0 min,  0.015 sec
 * total energy  :   -93.7344317 Eh     change       -0.4577854E-03 Eh
   gradient norm :     0.0129322 Eh/α   predicted    -0.3692604E-03 ( -19.34%)
   displ. norm   :     0.2879756 α      lambda       -0.4584298E-03
   maximum displ.:     0.1092083 α      in ANC's #29, #3, #17, ...

........................................................................
.............................. CYCLE   47 ..............................
........................................................................

 iter      E             dE          RMSdq      gap      omega  full diag
   1    -94.7602920 -0.947603E+02  0.472E-02    3.98       0.0  T
   2    -94.7602964 -0.443795E-05  0.280E-02    3.97       1.0  T
   3    -94.7602968 -0.400288E-06  0.715E-03    3.97       1.7  T
   4    -94.7602973 -0.425699E-06  0.163E-03    3.97       7.6  T
   5    -94.7602973 -0.435389E-07  0.817E-04    3.97      15.2  T
   6    -94.7602973 -0.378965E-08  0.218E-04    3.97      56.8  T
     SCC iter.                  ...        0 min,  0.022 sec
     gradient                   ...        0 min,  0.015 sec
 * total energy  :   -93.7347858 Eh     change       -0.3540242E-03 Eh
   gradient norm :     0.0155897 Eh/α   predicted    -0.2482311E-03 ( -29.88%)
   displ. norm   :     0.3766890 α      lambda       -0.8220806E-03
   maximum displ.:     0.1703575 α      in ANC's #3, #4, #29, ...

........................................................................
.............................. CYCLE   48 ..............................
........................................................................

 iter      E             dE          RMSdq      gap      omega  full diag
   1    -94.7635286 -0.947635E+02  0.586E-02    3.99       0.0  T
   2    -94.7635357 -0.709595E-05  0.342E-02    3.98       1.0  T
   3    -94.7635355  0.120766E-06  0.921E-03    3.98       1.3  T
   4    -94.7635368 -0.126199E-05  0.265E-03    3.98       4.7  T
   5    -94.7635369 -0.656918E-07  0.119E-03    3.98      10.4  T
   6    -94.7635369 -0.110928E-07  0.330E-04    3.98      37.6  T
   7    -94.7635369 -0.708425E-09  0.173E-04    3.98      71.8  T
     SCC iter.                  ...        0 min,  0.025 sec
     gradient                   ...        0 min,  0.015 sec
 * total energy  :   -93.7353961 Eh     change       -0.6103355E-03 Eh
   gradient norm :     0.0112884 Eh/α   predicted    -0.4693752E-03 ( -23.10%)
   displ. norm   :     0.4918065 α      lambda       -0.7049630E-03
   maximum displ.:     0.2271013 α      in ANC's #3, #4, #15, ...

........................................................................
.............................. CYCLE   49 ..............................
........................................................................

 iter      E             dE          RMSdq      gap      omega  full diag
   1    -94.7627024 -0.947627E+02  0.751E-02    3.99       0.0  T
   2    -94.7627109 -0.849816E-05  0.425E-02    3.98       1.0  T
   3    -94.7627119 -0.960031E-06  0.110E-02    3.98       1.1  T
   4    -94.7627124 -0.580599E-06  0.352E-03    3.98       3.5  T
   5    -94.7627125 -0.105309E-06  0.132E-03    3.98       9.4  T
   6    -94.7627126 -0.279405E-07  0.433E-04    3.98      28.6  T
   7    -94.7627126 -0.776865E-09  0.201E-04    3.98      61.7  T
     SCC iter.                  ...        0 min,  0.024 sec
     gradient                   ...        0 min,  0.015 sec
 * total energy  :   -93.7359437 Eh     change       -0.5475981E-03 Eh
   gradient norm :     0.0126680 Eh/α   predicted    -0.4377467E-03 ( -20.06%)
   displ. norm   :     0.4815471 α      lambda       -0.8488363E-03
   maximum displ.:     0.2622172 α      in ANC's #3, #6, #4, ...

........................................................................
.............................. CYCLE   50 ..............................
........................................................................

 iter      E             dE          RMSdq      gap      omega  full diag
   1    -94.7666060 -0.947666E+02  0.889E-02    3.96       0.0  T
   2    -94.7666167 -0.107012E-04  0.496E-02    3.97       1.0  T
   3    -94.7666161  0.546226E-06  0.134E-02    3.97       1.0  T
   4    -94.7666188 -0.267539E-05  0.549E-03    3.97       2.3  T
   5    -94.7666189 -0.157437E-06  0.191E-03    3.97       6.5  T
   6    -94.7666190 -0.439176E-07  0.513E-04    3.97      24.2  T
   7    -94.7666190 -0.519890E-09  0.205E-04    3.97      60.6  T
     SCC iter.                  ...        0 min,  0.024 sec
     gradient                   ...        0 min,  0.015 sec
 * total energy  :   -93.7363903 Eh     change       -0.4466298E-03 Eh
   gradient norm :     0.0092732 Eh/α   predicted    -0.5228351E-03 (  17.06%)
   displ. norm   :     0.5467023 α      lambda       -0.6637902E-03
   maximum displ.:     0.2782598 α      in ANC's #3, #6, #4, ...

........................................................................
.............................. CYCLE   51 ..............................
........................................................................

 iter      E             dE          RMSdq      gap      omega  full diag
   1    -94.7609676 -0.947610E+02  0.871E-02    3.99       0.0  T
   2    -94.7609852 -0.175707E-04  0.493E-02    3.97       1.0  T
   3    -94.7609870 -0.182756E-05  0.148E-02    3.97       1.0  T
   4    -94.7609878 -0.801542E-06  0.448E-03    3.97       2.8  T
   5    -94.7609880 -0.223786E-06  0.205E-03    3.97       6.0  T
   6    -94.7609881 -0.511882E-07  0.608E-04    3.97      20.4  T
   7    -94.7609881 -0.185729E-08  0.278E-04    3.97      44.6  T
     SCC iter.                  ...        0 min,  0.045 sec
     gradient                   ...        0 min,  0.037 sec
 * total energy  :   -93.7366975 Eh     change       -0.3071786E-03 Eh
   gradient norm :     0.0145867 Eh/α   predicted    -0.4310973E-03 (  40.34%)
   displ. norm   :     0.1310425 α      lambda       -0.3758977E-03
   maximum displ.:     0.0773888 α      in ANC's #3, #6, #11, ...

........................................................................
.............................. CYCLE   52 ..............................
........................................................................

 iter      E             dE          RMSdq      gap      omega  full diag
   1    -94.7646976 -0.947647E+02  0.221E-02    3.98       0.0  T
   2    -94.7647007 -0.310276E-05  0.135E-02    3.98       1.0  T
   3    -94.7647007 -0.399154E-07  0.493E-03    3.99       2.5  T
   4    -94.7647010 -0.294300E-06  0.126E-03    3.98       9.8  T
   5    -94.7647011 -0.130816E-07  0.538E-04    3.98      23.1  T
   6    -94.7647011 -0.185345E-08  0.136E-04    3.98      91.2  T
     SCC iter.                  ...        0 min,  0.024 sec
     gradient                   ...        0 min,  0.015 sec
 * total energy  :   -93.7369985 Eh     change       -0.3010467E-03 Eh
   gradient norm :     0.0072733 Eh/α   predicted    -0.1911795E-03 ( -36.50%)
   displ. norm   :     0.4378812 α      lambda       -0.5831479E-03
   maximum displ.:     0.2778420 α      in ANC's #3, #6, #2, ...

........................................................................
.............................. CYCLE   53 ..............................
........................................................................

 iter      E             dE          RMSdq      gap      omega  full diag
   1    -94.7672987 -0.947673E+02  0.599E-02    4.00       0.0  T
   2    -94.7673143 -0.155754E-04  0.345E-02    4.00       1.0  T
   3    -94.7673144 -0.815943E-07  0.115E-02    4.01       1.1  T
   4    -94.7673155 -0.111330E-05  0.272E-03    4.00       4.6  T
   5    -94.7673156 -0.129936E-06  0.122E-03    4.00      10.2  T
   6    -94.7673156 -0.870446E-08  0.383E-04    4.00      32.4  T
   7    -94.7673156 -0.460659E-09  0.179E-04    4.00      69.4  T
     SCC iter.                  ...        0 min,  0.024 sec
     gradient                   ...        0 min,  0.015 sec
 * total energy  :   -93.7374526 Eh     change       -0.4540950E-03 Eh
   gradient norm :     0.0060952 Eh/α   predicted    -0.3474820E-03 ( -23.48%)
   displ. norm   :     0.5679386 α      lambda       -0.5150416E-03
   maximum displ.:     0.3594234 α      in ANC's #3, #6, #2, ...

........................................................................
.............................. CYCLE   54 ..............................
........................................................................

 iter      E             dE          RMSdq      gap      omega  full diag
   1    -94.7666210 -0.947666E+02  0.738E-02    4.01       0.0  T
   2    -94.7666349 -0.138907E-04  0.421E-02    4.01       1.0  T
   3    -94.7666354 -0.456328E-06  0.109E-02    4.01       1.1  T
   4    -94.7666361 -0.757470E-06  0.309E-03    4.01       4.0  T
   5    -94.7666363 -0.157140E-06  0.139E-03    4.01       8.9  T
   6    -94.7666363 -0.131877E-07  0.469E-04    4.01      26.5  T
   7    -94.7666363 -0.743754E-09  0.217E-04    4.01      57.1  T
     SCC iter.                  ...        0 min,  0.024 sec
     gradient                   ...        0 min,  0.015 sec
 * total energy  :   -93.7379046 Eh     change       -0.4519486E-03 Eh
   gradient norm :     0.0081433 Eh/α   predicted    -0.3405888E-03 ( -24.64%)
   displ. norm   :     0.6777732 α      lambda       -0.6025682E-03
   maximum displ.:     0.4274355 α      in ANC's #3, #6, #2, ...

........................................................................
.............................. CYCLE   55 ..............................
........................................................................

 iter      E             dE          RMSdq      gap      omega  full diag
   1    -94.7645591 -0.947646E+02  0.867E-02    4.00       0.0  T
   2    -94.7645701 -0.110411E-04  0.497E-02    4.00       1.0  T
   3    -94.7645708 -0.667420E-06  0.987E-03    4.00       1.3  T
   4    -94.7645716 -0.840952E-06  0.369E-03    4.00       3.4  T
   5    -94.7645718 -0.201661E-06  0.152E-03    4.00       8.1  T
   6    -94.7645719 -0.123294E-07  0.511E-04    4.00      24.3  T
   7    -94.7645719 -0.727255E-09  0.214E-04    4.00      58.0  T
     SCC iter.                  ...        0 min,  0.023 sec
     gradient                   ...        0 min,  0.015 sec
 * total energy  :   -93.7384276 Eh     change       -0.5230552E-03 Eh
   gradient norm :     0.0086147 Eh/α   predicted    -0.4396895E-03 ( -15.94%)
   displ. norm   :     0.6641095 α      lambda       -0.5961503E-03
   maximum displ.:     0.4178501 α      in ANC's #3, #6, #11, ...

........................................................................
.............................. CYCLE   56 ..............................
........................................................................

 iter      E             dE          RMSdq      gap      omega  full diag
   1    -94.7647819 -0.947648E+02  0.795E-02    3.99       0.0  T
   2    -94.7647874 -0.548349E-05  0.458E-02    3.99       1.0  T
   3    -94.7647877 -0.281911E-06  0.790E-03    3.99       1.6  T
   4    -94.7647887 -0.997150E-06  0.337E-03    3.99       3.7  T
   5    -94.7647888 -0.132121E-06  0.111E-03    3.99      11.1  T
   6    -94.7647888 -0.655656E-08  0.449E-04    3.99      27.6  T
   7    -94.7647888 -0.468020E-09  0.187E-04    3.99      66.4  T
     SCC iter.                  ...        0 min,  0.025 sec
     gradient                   ...        0 min,  0.015 sec
 * total energy  :   -93.7389199 Eh     change       -0.4922150E-03 Eh
[...]

 SCC (total)                   0 d,  0 h,  0 min,  0.035 sec
 SCC setup                      ...        0 min,  0.000 sec (  0.378%)
 Dispersion                     ...        0 min,  0.000 sec (  1.302%)
 classical contributions        ...        0 min,  0.000 sec (  0.248%)
 integral evaluation            ...        0 min,  0.004 sec ( 10.929%)
 iterations                     ...        0 min,  0.014 sec ( 39.525%)
 molecular gradient             ...        0 min,  0.016 sec ( 46.470%)
 printout                       ...        0 min,  0.000 sec (  1.085%)

         :::::::::::::::::::::::::::::::::::::::::::::::::::::
         ::                     SUMMARY                     ::
         :::::::::::::::::::::::::::::::::::::::::::::::::::::
         :: total energy             -93.744821377047 Eh    ::
         :: gradient norm              0.000755338795 Eh/a0 ::
         :: HOMO-LUMO gap              4.066804758619 eV    ::
         ::.................................................::
         :: SCC energy               -94.770978793088 Eh    ::
         :: -> isotropic ES            0.279918463172 Eh    ::
         :: -> anisotropic ES         -0.017704787158 Eh    ::
         :: -> anisotropic XC          0.018925257019 Eh    ::
         :: -> dispersion             -0.071386899329 Eh    ::
         :: repulsion energy           1.026157416041 Eh    ::
         :: add. restraining           0.000000000000 Eh    ::
         :: total charge              -1.000000000000 e     ::
         :::::::::::::::::::::::::::::::::::::::::::::::::::::

           -------------------------------------------------
          |                Property Printout                |
           -------------------------------------------------

    * Orbital Energies and Occupations

         #    Occupation            Energy/Eh            Energy/eV
      -------------------------------------------------------------
         1        2.0000           -0.6189058             -16.8413
       ...           ...                  ...                  ...
        71        2.0000           -0.3191366              -8.6841
        72        2.0000           -0.3160707              -8.6007
        73        2.0000           -0.3085005              -8.3947
        74        2.0000           -0.3021740              -8.2226
        75        2.0000           -0.3011040              -8.1935
        76        2.0000           -0.2987765              -8.1301
        77        2.0000           -0.2952124              -8.0331
        78        2.0000           -0.2930743              -7.9750
        79        2.0000           -0.2868414              -7.8054
        80        2.0000           -0.2779729              -7.5640
        81        2.0000           -0.2740975              -7.4586
        82        2.0000           -0.2653753              -7.2212
        83        2.0000           -0.2603629              -7.0848 (HOMO)
        84                         -0.1109106              -3.0180 (LUMO)
        85                         -0.0910905              -2.4787
        86                          0.0409223               1.1136
        87                          0.1038578               2.8261
        88                          0.1078787               2.9355
        89                          0.1253755               3.4116
        90                          0.1324183               3.6033
        91                          0.1364134               3.7120
        92                          0.1461102               3.9759
        93                          0.1618276               4.4036
        94                          0.1705519               4.6410
       ...                                ...                  ...
       154                          1.3678719              37.2217
      -------------------------------------------------------------
                  HL-Gap            0.1494523 Eh            4.0668 eV
             Fermi-level           -0.1856368 Eh           -5.0514 eV

     #   Z          covCN         q      C6AA      α(0)
     1   6 C        3.800    -0.068    21.804     6.648
     2   6 C        3.751    -0.099    22.452     6.758
     3   6 C        3.847    -0.028    21.047     6.526
     4   6 C        3.682     0.049    19.951     6.396
     5   8 O        1.704    -0.262    18.342     5.782
     6   6 C        2.712     0.354    20.987     7.499
     7   6 C        3.842    -0.156    23.484     6.894
     8   6 C        3.853    -0.080    21.981     6.668
     9   6 C        2.717     0.376    20.622     7.434
    10   8 O        0.856    -0.442    22.537     6.365
    11   8 O        1.705    -0.255    18.217     5.763
    12   6 C        3.700     0.082    19.373     6.295
    13   6 C        3.848    -0.038    21.217     6.552
    14   6 C        3.799    -0.070    21.838     6.654
    15   6 C        3.800    -0.064    21.723     6.636
    16   6 C        3.799    -0.052    21.501     6.602
    17   6 C        3.751    -0.097    22.413     6.752
    18   6 C        3.801    -0.055    21.565     6.612
    19   6 C        3.752    -0.104    22.551     6.772
    20  16 S        3.606     1.264    99.394    16.780
    21   8 O        0.860    -0.689    28.400     7.145
    22   8 O        0.860    -0.657    27.550     7.037
    23   8 O        0.860    -0.667    27.823     7.072
    24   8 O        0.857    -0.421    22.102     6.303
    25   6 C        3.803    -0.059    21.635     6.622
    26   6 C        3.800    -0.056    21.576     6.613
    27   6 C        3.799    -0.052    21.505     6.603
    28   6 C        3.751    -0.101    22.491     6.763
    29   1 H        0.924     0.025     2.665     2.553
    30   1 H        0.924     0.067     2.114     2.273
    31   1 H        0.925     0.031     2.576     2.510
    32   1 H        0.925     0.028     2.620     2.531
    33   1 H        0.925     0.029     2.604     2.523
    34   1 H        0.924     0.039     2.465     2.455
    35   1 H        0.924     0.051     2.305     2.374
    36   1 H        0.925     0.080     1.975     2.198
    37   1 H        0.925     0.056     2.242     2.342
    38   1 H        0.925     0.066     2.134     2.284
    39   1 H        0.924     0.068     2.106     2.269
    40   1 H        0.924     0.050     2.315     2.379
    41   1 H        0.924     0.047     2.364     2.404
    42   1 H        0.924     0.084     1.939     2.177
    43   1 H        0.924     0.021     2.714     2.576
    44   1 H        0.924     0.076     2.023     2.224
    45   1 H        0.924     0.025     2.653     2.547
    46   1 H        0.925     0.054     2.269     2.356
    47   1 H        0.924     0.016     2.798     2.616
    48   1 H        0.925     0.027     2.626     2.534
    49   1 H        0.925     0.026     2.645     2.544
    50   1 H        0.925     0.016     2.793     2.613
    51   1 H        0.925     0.034     2.528     2.486
    52   1 H        0.924     0.031     2.572     2.508
    53   1 H        0.924     0.019     2.750     2.593
    54   1 H        0.925     0.043     2.411     2.428
    55   1 H        0.925     0.020     2.733     2.585
    56   1 H        0.925     0.036     2.509     2.477
    57   1 H        0.924     0.044     2.398     2.422
    58   1 H        0.924     0.037     2.490     2.468
    59   1 H        0.924     0.024     2.672     2.556
    60   1 H        0.924     0.029     2.601     2.522
    61   1 H        0.924     0.017     2.774     2.605
    62   1 H        0.924     0.034     2.528     2.486
    63   1 H        0.925     0.029     2.598     2.521
    64   1 H        0.925     0.023     2.684     2.562
    65   1 H        0.925     0.041     2.439     2.442

 Mol. C6AA /au·bohr⁶  :      37762.209798
 Mol. C8AA /au·bohr⁸  :     848444.524135
 Mol. α(0) /au        :        287.491126


Wiberg/Mayer (AO) data.
largest (>0.10) Wiberg bond orders for each atom

 ---------------------------------------------------------------------------
     #   Z sym  total        # sym  WBO       # sym  WBO       # sym  WBO
 ---------------------------------------------------------------------------
     1   6 C    3.993 --     2 C    1.018     3 C    0.996    29 H    0.977
                            30 H    0.963
     2   6 C    3.998 --     1 C    1.018    31 H    0.988    33 H    0.988
                            32 H    0.983
     3   6 C    3.993 --    25 C    0.998     1 C    0.996     4 C    0.977
                            34 H    0.963
     4   6 C    3.919 --     3 C    0.977    35 H    0.969    36 H    0.948
                             5 O    0.945
     5   8 O    2.314 --     6 C    1.126     4 C    0.945    24 O    0.153
     6   6 C    3.923 --    24 O    1.702     5 O    1.126     7 C    1.016
     7   6 C    3.977 --     6 C    1.016     8 C    1.012    37 H    0.948
                            20 S    0.656
     8   6 C    3.997 --     7 C    1.012    38 H    0.971     9 C    0.959
                            39 H    0.947
     9   6 C    3.917 --    10 O    1.703    11 O    1.162     8 C    0.959
    10   8 O    1.997 --     9 C    1.703    11 O    0.166
    11   8 O    2.333 --     9 C    1.162    12 C    0.935    10 O    0.166
    12   6 C    3.921 --    13 C    0.985    41 H    0.966    40 H    0.963
                            11 O    0.935
    13   6 C    3.984 --    14 C    0.994    18 C    0.993    12 C    0.985
                            42 H    0.949
    14   6 C    3.990 --    15 C    1.008    13 C    0.994    43 H    0.974
                            44 H    0.959
    15   6 C    3.994 --    14 C    1.008    16 C    1.006    45 H    0.976
                            46 H    0.967
    16   6 C    3.997 --    17 C    1.019    15 C    1.006    47 H    0.979
                            48 H    0.973
    17   6 C    3.998 --    16 C    1.019    50 H    0.989    49 H    0.988
                            51 H    0.984
    18   6 C    3.998 --    19 C    1.019    13 C    0.993    52 H    0.975
                            53 H    0.974
    19   6 C    3.996 --    18 C    1.019    55 H    0.988    54 H    0.987
                            56 H    0.985
    20  16 S    5.057 --    23 O    1.466    22 O    1.444    21 O    1.425
                             7 C    0.656
    21   8 O    1.774 --    20 S    1.425    23 O    0.107    22 O    0.101
    22   8 O    1.826 --    20 S    1.444    23 O    0.107    21 O    0.101
    23   8 O    1.800 --    20 S    1.466    21 O    0.107    22 O    0.107
    24   8 O    2.008 --     6 C    1.702     5 O    0.153
    25   6 C    3.995 --    26 C    1.007     3 C    0.998    58 H    0.974
                            57 H    0.973
    26   6 C    3.998 --    27 C    1.007    25 C    1.007    59 H    0.977
                            60 H    0.973
    27   6 C    3.998 --    28 C    1.020    26 C    1.007    61 H    0.979
                            62 H    0.974
    28   6 C    3.997 --    27 C    1.020    64 H    0.988    63 H    0.988
                            65 H    0.986
    29   1 H    0.999 --     1 C    0.977
    30   1 H    0.995 --     1 C    0.963
    31   1 H    0.999 --     2 C    0.988
    32   1 H    0.999 --     2 C    0.983
    33   1 H    0.999 --     2 C    0.988
    34   1 H    0.998 --     3 C    0.963
    35   1 H    0.997 --     4 C    0.969
    36   1 H    0.993 --     4 C    0.948
    37   1 H    0.997 --     7 C    0.948
    38   1 H    0.996 --     8 C    0.971
    39   1 H    0.995 --     8 C    0.947
    40   1 H    0.997 --    12 C    0.963
    41   1 H    0.998 --    12 C    0.966
    42   1 H    0.993 --    13 C    0.949
    43   1 H    0.999 --    14 C    0.974
    44   1 H    0.994 --    14 C    0.959
    45   1 H    0.999 --    15 C    0.976
    46   1 H    0.997 --    15 C    0.967
    47   1 H    1.000 --    16 C    0.979
    48   1 H    0.999 --    16 C    0.973
    49   1 H    0.999 --    17 C    0.988
    50   1 H    1.000 --    17 C    0.989
    51   1 H    0.999 --    17 C    0.984
    52   1 H    0.999 --    18 C    0.975
    53   1 H    1.000 --    18 C    0.974
    54   1 H    0.998 --    19 C    0.987
    55   1 H    0.999 --    19 C    0.988
    56   1 H    0.999 --    19 C    0.985
    57   1 H    0.998 --    25 C    0.973
    58   1 H    0.999 --    25 C    0.974
    59   1 H    0.999 --    26 C    0.977
    60   1 H    0.999 --    26 C    0.973
    61   1 H    1.000 --    27 C    0.979
    62   1 H    0.999 --    27 C    0.974
    63   1 H    0.999 --    28 C    0.988
    64   1 H    0.999 --    28 C    0.988
    65   1 H    0.998 --    28 C    0.986
 ---------------------------------------------------------------------------

Topologies differ in total number of bonds
Writing topology from bond orders to xtbtopo.mol

molecular dipole:
                 x           y           z       tot (Debye)
 q only:       -2.390      -0.975      -6.939
   full:       -2.313      -0.899      -7.129      19.186
molecular quadrupole (traceless):
                xx          xy          yy          xz          yz          zz
 q only:        9.616      -3.132      33.742     -26.470     -18.723     -43.358
  q+dip:       11.780      -3.250      35.676     -25.628     -20.599     -47.455
   full:       11.248      -3.789      35.534     -25.887     -21.093     -46.782

           -------------------------------------------------
          |                Geometry Summary                 |
           -------------------------------------------------

      molecular mass/u    :      421.5691476
   center of mass at/Å    :        0.5599929       0.0097892       2.9466672
  moments of inertia/u·Å² :        0.1362957E+04   0.6779187E+04   0.7060310E+04
rotational constants/cm⁻¹ :        0.1236843E-01   0.2486675E-02   0.2387662E-02

 * 61 selected distances

     #   Z          #   Z                                           value/Å
     1   6 C        2   6 C                                       1.5271530
     1   6 C        3   6 C                                       1.5386928
     4   6 C        5   8 O                                       1.4229425
     5   8 O        6   6 C                                       1.3383909
     7   6 C        8   6 C                                       1.5144508
     9   6 C       10   8 O                                       1.2093313
     9   6 C       11   8 O                                       1.3222642
    11   8 O       12   6 C                                       1.4228823
    12   6 C       13   6 C                                       1.5331284
    13   6 C       14   6 C                                       1.5394100
    14   6 C       15   6 C                                       1.5314060
    15   6 C       16   6 C                                       1.5298338
    16   6 C       17   6 C                                       1.5249531
    13   6 C       18   6 C                                       1.5365712
    18   6 C       19   6 C                                       1.5253407
     7   6 C       20  16 S                                       1.8843297 (max)
    20  16 S       21   8 O                                       1.4636446
    20  16 S       22   8 O                                       1.4529399
    20  16 S       23   8 O                                       1.4506768
     6   6 C       24   8 O                                       1.2120916
     3   6 C       25   6 C                                       1.5353692
    25   6 C       26   6 C                                       1.5292254
    26   6 C       27   6 C                                       1.5296232
    27   6 C       28   6 C                                       1.5241719
     1   6 C       29   1 H                                       1.0931259
     1   6 C       30   1 H                                       1.0921910
     2   6 C       31   1 H                                       1.0876306
     2   6 C       32   1 H                                       1.0875586
     2   6 C       33   1 H                                       1.0884262
     3   6 C       34   1 H                                       1.0943384
     4   6 C       35   1 H                                       1.0947423
     4   6 C       36   1 H                                       1.0889590
     7   6 C       37   1 H                                       1.0870079
     8   6 C       38   1 H                                       1.0896301
     8   6 C       39   1 H                                       1.0965187
    12   6 C       40   1 H                                       1.0945253
    12   6 C       41   1 H                                       1.0943410
    13   6 C       42   1 H                                       1.0968402
    14   6 C       43   1 H                                       1.0931211
    14   6 C       44   1 H                                       1.0925918
    15   6 C       45   1 H                                       1.0939495
    15   6 C       46   1 H                                       1.0900253
    16   6 C       47   1 H                                       1.0948606
    16   6 C       48   1 H                                       1.0898652
    17   6 C       49   1 H                                       1.0886588
    17   6 C       50   1 H                                       1.0895408
    17   6 C       51   1 H                                       1.0861950
    18   6 C       52   1 H                                       1.0917842
    18   6 C       53   1 H                                       1.0932654
    19   6 C       54   1 H                                       1.0869182
    19   6 C       55   1 H                                       1.0902050
    19   6 C       56   1 H                                       1.0868377
    25   6 C       57   1 H                                       1.0908935
    25   6 C       58   1 H                                       1.0922534
    26   6 C       59   1 H                                       1.0943258
    26   6 C       60   1 H                                       1.0914155
    27   6 C       61   1 H                                       1.0945298
    27   6 C       62   1 H                                       1.0906843
    28   6 C       63   1 H                                       1.0885104
    28   6 C       64   1 H                                       1.0887180
    28   6 C       65   1 H                                       1.0861918 (min)

 * 5 distinct bonds (by element types)

   Z      Z             #   av. dist./Å        max./Å        min./Å
   1 H    6 C          37     1.0911129     1.0968402     1.0861918
   6 C    6 C          14     1.5299521     1.5394100     1.5144508
   6 C    8 O           6     1.3213171     1.4229425     1.2093313
   6 C   16 S           1     1.8843297     1.8843297     1.8843297
   8 O   16 S           3     1.4557538     1.4636446     1.4506768


optimized geometry written to: xtbopt.xyz


           -------------------------------------------------
          | TOTAL ENERGY              -93.744821377047 Eh   |
          | GRADIENT NORM               0.000755338795 Eh/α |
          | HOMO-LUMO GAP               4.066804758619 eV   |
           -------------------------------------------------

------------------------------------------------------------------------
 * finished run on 2024/12/20 at 01:53:12.576     
------------------------------------------------------------------------
 total:
 * wall-time:     0 d,  0 h,  0 min,  6.742 sec
 *  cpu-time:     0 d,  0 h,  0 min, 52.674 sec
 * ratio c/w:     7.813 speedup
 SCF:
 * wall-time:     0 d,  0 h,  0 min,  0.063 sec
 *  cpu-time:     0 d,  0 h,  0 min,  0.503 sec
 * ratio c/w:     7.974 speedup
 ANC optimizer:
 * wall-time:     0 d,  0 h,  0 min,  6.657 sec
 *  cpu-time:     0 d,  0 h,  0 min, 52.009 sec
 * ratio c/w:     7.813 speedup

