4
 energy: -10.996078439685 gnorm: 0.057283476814 xtb: 6.7.1 (edcfbbe)
C            0.84654000000000        0.07022000000000       -0.06712000000000
O            0.32683000000000        0.12949000000000        1.07884000000000
O            0.32178000000000        0.01107000000000       -1.21080000000000
H            1.98900000000000        0.07009000000000       -0.06960000000000
4
 energy: -10.997889174764 gnorm: 0.020887984634 xtb: 6.7.1 (edcfbbe)
C            0.84114743974626        0.07022076953304       -0.06710531847274
O            0.32670827613566        0.12846029350434        1.05893112130958
O            0.32176534008785        0.01210025847017       -1.19087964165749
H            1.99452894403022        0.07008867849246       -0.06962616117935
4
 energy: -10.998200501329 gnorm: 0.007811640435 xtb: 6.7.1 (edcfbbe)
C            0.83471982570802        0.07022155723740       -0.06709026453230
O            0.32471056655639        0.12806660195066        1.05131996437536
O            0.31980803033433        0.01249451168162       -1.18325595767884
H            2.00491157740126        0.07008732913032       -0.06965374216422
4
 energy: -10.998274391891 gnorm: 0.004241410258 xtb: 6.7.1 (edcfbbe)
C            0.83045990778262        0.07022205064921       -0.06708083093711
O            0.32366173071665        0.12809105923413        1.05179405899406
O            0.31875677227857        0.01247014651737       -1.18372584088312
H            2.01127158922216        0.07008674359929       -0.06966738717383
4
 energy: -10.998301715425 gnorm: 0.000710969936 xtb: 6.7.1 (edcfbbe)
C            0.82644227049530        0.07022250416162       -0.06707216640572
O            0.32344831565449        0.12819057950887        1.05372031917951
O            0.31853337063098        0.01237041346223       -1.18565212619627
H            2.01572604321923        0.07008650286728       -0.06967602657752
4
 energy: -10.998302540317 gnorm: 0.000229034036 xtb: 6.7.1 (edcfbbe)
C            0.82546613191338        0.07022260691749       -0.06707020703729
O            0.32390492635820        0.12822280812722        1.05434505486193
O            0.31898683784237        0.01233790965019       -1.18627898646572
H            2.01579210388606        0.07008667530510       -0.06967586135891
