10
 energy: -24.465752735873 gnorm: 0.110033843070 xtb: 6.7.1 (edcfbbe)
N            1.01972000000000        0.06230000000000       -0.05790000000000
O            0.45027000000000        1.16377000000000       -0.05933000000000
O            0.46028000000000       -1.04427000000000       -0.05713000000000
C            2.40692000000000        0.06855000000000       -0.05699000000000
C            3.27188000000000        1.13225000000000       -0.05782000000000
N            4.56173000000000        0.75323000000000       -0.05589000000000
N            4.56761000000000       -0.59735000000000       -0.05441000000000
C            3.28111000000000       -0.98756000000000       -0.05531000000000
H            3.00301000000000        2.18114000000000       -0.05972000000000
H            3.02125000000000       -2.03871000000000       -0.05467000000000
10
 energy: -24.473161201948 gnorm: 0.041329856961 xtb: 6.7.1 (edcfbbe)
N            1.02674147651786        0.06234877640606       -0.05804257557480
O            0.44131983358753        1.15102002866179       -0.05943395717190
O            0.45113630114772       -1.03153893121070       -0.05722693344453
C            2.40724480788337        0.06853354809516       -0.05711189616447
C            3.27893577222341        1.16590394901231       -0.05770062878316
N            4.53604277317858        0.75627743299235       -0.05633054027766
N            4.54197404865596       -0.60060498783415       -0.05466967681320
C            3.28849175907395       -1.02117714572670       -0.05513745795038
H            3.02663053512292        2.21541000185651       -0.05929449175713
H            3.04526269260869       -2.07282267225264       -0.05422184206277
10
 energy: -24.474152081197 gnorm: 0.013939477132 xtb: 6.7.1 (edcfbbe)
N            1.03279292078480        0.06239311808329       -0.05785122923766
O            0.43202348109742        1.14392480468565       -0.05951377897618
O            0.44168949615512       -1.02445540263638       -0.05727449794282
C            2.40519310442476        0.06849879011476       -0.05711492865000
C            3.28443903180165        1.17715290384576       -0.05781577326653
N            4.52721064151428        0.75729298552455       -0.05624369345274
N            4.53317260272376       -0.60167631694005       -0.05470028948225
C            3.29412746759749       -1.03240905430303       -0.05521166861765
H            3.03716382784454        2.22285018076004       -0.05927100241536
H            3.05596742605618       -2.08022200913458       -0.05417313795881
10
 energy: -24.474243732506 gnorm: 0.005774702747 xtb: 6.7.1 (edcfbbe)
N            1.03513119929341        0.06241208663706       -0.05827739880922
O            0.42798726103991        1.14229367896359       -0.05938976266642
O            0.43758798128946       -1.02281506624641       -0.05709248634427
C            2.40294197023243        0.06847138877324       -0.05723451442280
C            3.28643806072601        1.17788036247075       -0.05772052137683
N            4.52809117193074        0.75757112608535       -0.05635511195568
N            4.53406642982851       -0.60193644021966       -0.05469857143773
C            3.29615345319744       -1.03313724861795       -0.05513507754883
H            3.03825729875625        2.22260548319125       -0.05915321152053
H            3.05712517370585       -2.07999537103721       -0.05411334391768
10
 energy: -24.474263080778 gnorm: 0.001331067313 xtb: 6.7.1 (edcfbbe)
N            1.03688029355269        0.06242695697297       -0.05722465484305
O            0.42661987305888        1.14184230336497       -0.05998560081453
O            0.43617941612187       -1.02234281635831       -0.05764403301937
C            2.40167287559711        0.06845247328356       -0.05681190897651
C            3.28734156984909        1.17698006406742       -0.05776753039953
N            4.52934604513091        0.75776251863743       -0.05649529742869
N            4.53533066430627       -0.60211022101813       -0.05495071078358
C            3.29706390715178       -1.03224226891089       -0.05518265402825
H            3.03721842368120        2.22152109538296       -0.05907851514259
H            3.05612693155019       -2.07894010542198       -0.05402909456389
10
 energy: -24.474260802844 gnorm: 0.001676876074 xtb: 6.7.1 (edcfbbe)
N            1.03767823898620        0.06242970435333       -0.06053164074713
O            0.42693214760831        1.14193395964254       -0.05817236149655
O            0.43647259217971       -1.02241033646547       -0.05576776291535
C            2.40156691661883        0.06844297107030       -0.05804391878177
C            3.28755300103860        1.17616953534067       -0.05770546093028
N            4.52981916250278        0.75794480941992       -0.05581594019836
N            4.53580900909983       -0.60228313189148       -0.05415848156244
C            3.29727510842620       -1.03143561953896       -0.05514321066432
H            3.03587314799592        2.22075028344494       -0.05941026080348
H            3.05480067554362       -2.07819217537581       -0.05442096190031
10
 energy: -24.474264788202 gnorm: 0.000548323818 xtb: 6.7.1 (edcfbbe)
N            1.03760276292256        0.06243223891832       -0.05770972975235
O            0.42726045831123        1.14202012442021       -0.05979786773070
O            0.43680034826397       -1.02249536905167       -0.05738024539201
C            2.40178811308038        0.06844439871774       -0.05694803457288
C            3.28750111118217        1.17613904375746       -0.05769952128491
N            4.52972109251173        0.75800102909459       -0.05651421176382
N            4.53571178553725       -0.60234150969299       -0.05487103842230
C            3.29722332056376       -1.03140580999284       -0.05513851410024
H            3.03562087338426        2.22072146359299       -0.05904943068876
H            3.05455013424269       -2.07816560976381       -0.05406140629204
