3
 energy: -11.763032861637 gnorm: 0.052002838186 xtb: 6.7.1 (edcfbbe)
I            0.95553000000000       -0.07958000000000        0.04110000000000
I            3.73553000000000       -0.07958000000000        0.04110000000000
I            6.51553000000000       -0.07958000000000        0.04110000000000
3
 energy: -11.769625102986 gnorm: 0.019484265307 xtb: 6.7.1 (edcfbbe)
I            0.63569379352621       -0.07958000001623        0.04110000000838
I            3.73553000000000       -0.07957999996754        0.04109999998323
I            6.83536620647379       -0.07958000001623        0.04110000000838
3
 energy: -11.772958786213 gnorm: 0.009891953126 xtb: 6.7.1 (edcfbbe)
I            0.71858889235515       -0.07958000003379        0.04110000001745
I            3.73553001318893       -0.07957999993241        0.04109999996510
I            6.75247109445592       -0.07958000003379        0.04110000001745
3
 energy: -11.773653719763 gnorm: 0.004443858436 xtb: 6.7.1 (edcfbbe)
I            0.80002450715274       -0.07958000036204        0.04110000018698
I            3.73552998024354       -0.07957999927592        0.04109999962605
I            6.67103551260372       -0.07958000036204        0.04110000018698
3
 energy: -11.773779754685 gnorm: 0.000591732997 xtb: 6.7.1 (edcfbbe)
I            0.77489469196986       -0.07958000219870        0.04110000113553
I            3.73553001573431       -0.07957999560260        0.04109999772895
I            6.69616529229583       -0.07958000219870        0.04110000113553
3
 energy: -11.773781775738 gnorm: 0.000253161331 xtb: 6.7.1 (edcfbbe)
I            0.77932395544590       -0.07958002152724        0.04110001111782
I            3.73552995356191       -0.07957995694551        0.04109997776435
I            6.69173609099218       -0.07958002152724        0.04110001111782
