18
 energy: -45.775465772241 gnorm: 0.124679750868 xtb: 6.7.1 (edcfbbe)
F            0.88288000000000        1.89628000000000        2.02783000000000
C            1.54613000000000        1.55689000000000        0.88438000000000
F            1.07564000000000        0.32482000000000        0.54434000000000
F            1.12363000000000        2.43527000000000       -0.06298000000000
C            3.06081000000000        1.57335000000000        1.07787000000000
O            3.62333000000000        2.13914000000000        2.02203000000000
C            3.93255000000000        0.87028000000000        0.11855000000000
C            3.53209000000000        0.40813000000000       -1.21878000000000
O            2.45758000000000        0.77831000000000       -1.68016000000000
C            4.44797000000000       -0.44828000000000       -1.93943000000000
C            4.35813000000000       -1.00389000000000       -3.20250000000000
C            5.53546000000000       -1.76397000000000       -3.40014000000000
C            6.27371000000000       -1.62999000000000       -2.24886000000000
O            5.62558000000000       -0.83667000000000       -1.35761000000000
H            4.95866000000000        0.73037000000000        0.43201000000000
H            3.53373000000000       -0.86972000000000       -3.89093000000000
H            5.81145000000000       -2.33937000000000       -4.27311000000000
H            7.23047000000000       -2.01638000000000       -1.92412000000000
18
 energy: -45.788794531177 gnorm: 0.058285582313 xtb: 6.7.1 (edcfbbe)
F            0.92733581441812        1.88770083937547        2.01010647676404
C            1.58140366832422        1.55328819051278        0.86301242781296
F            1.08238890621956        0.33681309736306        0.53944783496417
F            1.12712092670423        2.43504864994449       -0.05548427064679
C            3.10325316325232        1.56301784030925        1.04556055630792
O            3.59986465459555        2.11957772312418        2.04079912692515
C            3.90930823983331        0.85848152700537        0.10808921378820
C            3.50667652548770        0.41149049036644       -1.19728713111531
O            2.43242958368791        0.74951390624369       -1.71560017690888
C            4.45266433656658       -0.44113112744995       -1.92525571805984
C            4.36185162958900       -0.99281219006608       -3.18467052712818
C            5.53329682055120       -1.75442006833145       -3.38519475273371
C            6.26624004420334       -1.62126608854643       -2.24327726826061
O            5.62545922091990       -0.83257401528352       -1.35570765836112
H            4.93493550348840        0.73265707234490        0.41794135347040
H            3.54323947908147       -0.86232125763881       -3.86759067955527
H            5.80425437723534       -2.32639183107411       -4.25517096973422
H            7.21807710584186       -2.01210275819927       -1.93132783752891
18
 energy: -45.792585001527 gnorm: 0.027038138847 xtb: 6.7.1 (edcfbbe)
F            0.97067205970509        1.89352108786019        1.99916836501307
C            1.60280695331251        1.55135190272122        0.84487884394407
F            1.07469975741772        0.35038216756544        0.53702575145721
F            1.14065490093969        2.43781796206185       -0.05494342923123
C            3.13517727868480        1.53233044274994        1.02912110083945
O            3.56633165536860        2.08836590011218        2.05930713211790
C            3.89657118379934        0.85952186180459        0.09273136617269
C            3.49026278516565        0.42286178900423       -1.18222964805273
O            2.41720022572092        0.70337680714127       -1.74904863740098
C            4.46064032940774       -0.43290013476656       -1.91224858035734
C            4.35881218534510       -0.98432187045908       -3.16573982453331
C            5.52959169973960       -1.74434998154016       -3.37092251481582
C            6.26071860104826       -1.61041338114015       -2.23236360490140
O            5.62812136645161       -0.82307717863808       -1.34986934941367
H            4.92918519504091        0.73285026801080        0.38150068795716
H            3.54283904188567       -0.85200802212097       -3.84439468895067
H            5.79447045528425       -2.31335089121083       -4.24056393956280
H            7.21104432568257       -2.00738872915586       -1.93301903028160
18
 energy: -45.793150191552 gnorm: 0.015194286033 xtb: 6.7.1 (edcfbbe)
F            0.97996115063146        1.90761558201557        2.00242880086150
C            1.60152386031305        1.56000525949632        0.84484120536776
F            1.06327864231218        0.36363909712883        0.53605472686029
F            1.14945451635400        2.45041190899941       -0.05455347489632
C            3.13737603222969        1.53061983780730        1.03521784630892
O            3.56232907641907        2.06851700490119        2.07325094556393
C            3.89508500748742        0.85592871332704        0.08734785853865
C            3.47639015856260        0.40944290150217       -1.18219895742657
O            2.40595914057420        0.67392141333772       -1.75392089480482
C            4.46001726433704       -0.43526970014946       -1.91226606676564
C            4.36057480116590       -0.98222331021351       -3.16631567312682
C            5.53364361405336       -1.74034511930545       -3.36931767975692
C            6.26511844146819       -1.60146987662254       -2.22999384315574
O            5.62832882759393       -0.81793846846941       -1.34806488050413
H            4.93261227878123        0.72071636926495        0.35936174949950
H            3.54251004780976       -0.85132717451438       -3.84308179271201
H            5.79873729102054       -2.31003235714973       -4.23824187800105
H            7.21689984888641       -1.99764208135602       -1.93215799185053
18
 energy: -45.793504671069 gnorm: 0.005144546686 xtb: 6.7.1 (edcfbbe)
F            0.98967610505311        1.93942040257880        2.00216102309204
C            1.59911315152832        1.57173025303138        0.84532975036069
F            1.03786426309353        0.38424660122787        0.54074450180329
F            1.17203377636907        2.46541319255971       -0.06149236931383
C            3.14015380733948        1.51699431440583        1.04817537419115
O            3.55876502362234        2.03101447304610        2.09349984756221
C            3.89213209553955        0.85346749037745        0.08140396209807
C            3.46210779683184        0.40267656641907       -1.18588944157058
O            2.38690111921409        0.62773421832560       -1.75586866808528
C            4.46026194385217       -0.43573666651480       -1.91194306779644
C            4.36000791807869       -0.98583314917876       -3.16378304252672
C            5.54076289350204       -1.73335244437957       -3.36883626379590
C            6.27164477237655       -1.58966482975776       -2.22835643079443
O            5.63021051134159       -0.80960034682839       -1.34688718397469
H            4.93416159226282        0.70587873022015        0.33104548886102
H            3.53855370172391       -0.85689444870655       -3.83746621687046
H            5.80819237976413       -2.30105877337784       -4.23855496668222
H            7.22725714850688       -1.98186558344825       -1.93489229655794
18
 energy: -45.793609980890 gnorm: 0.004568120159 xtb: 6.7.1 (edcfbbe)
F            0.99008019962063        1.96347634535919        1.99736452054813
C            1.59802136721384        1.57963333107918        0.84514625337080
F            1.02352394867516        0.39671256171091        0.54704754867008
F            1.18656769294289        2.47186986993625       -0.07072018697661
C            3.14061689996428        1.51063746460314        1.05231334167760
O            3.55859840099684        2.00753993956159        2.10555374922153
C            3.88892565783084        0.85076651979611        0.08180774796035
C            3.45422746391434        0.39166377098795       -1.18176446968699
O            2.37776699229133        0.60347619208709       -1.75008507677145
C            4.46026438286490       -0.43816364329414       -1.91044692062792
C            4.36131994332006       -0.98615079056384       -3.16383794957982
C            5.54393696803450       -1.73040868493202       -3.37084158311649
C            6.27729301984462       -1.58231546877727       -2.23253833598439
O            5.63354909493220       -0.80635827034345       -1.34860225755670
H            4.93106361326934        0.70095964023554        0.32585979640395
H            3.53657654023369       -0.86083638445581       -3.83449466948450
H            5.81173657947593       -2.29759630950568       -4.24101862697929
H            7.23573123457474       -1.97033608348469       -1.94235288108833
18
 energy: -45.793745734141 gnorm: 0.004850607858 xtb: 6.7.1 (edcfbbe)
F            0.98628280028376        2.00414381463266        1.98603707907761
C            1.59667966554508        1.58992873327365        0.84541539072902
F            1.00247662793063        0.41338802675489        0.56137374591816
F            1.21097093635224        2.47612621115190       -0.08956475937515
C            3.13885671413071        1.49684661600956        1.06022083016623
O            3.55833820920252        1.97096957935867        2.12400797916240
C            3.88496412819622        0.84764930271181        0.08324924573032
C            3.44848364740112        0.38056166694960       -1.17751556491599
O            2.36528650711209        0.57083484210551       -1.73832420157534
C            4.46118962707803       -0.44042562552422       -1.90927210306976
C            4.36153436467862       -0.98922447372442       -3.16309617692884
C            5.54787563510649       -1.72561307726508       -3.37529729671657
C            6.28488151559942       -1.57325524688039       -2.24023654450660
O            5.63992108537892       -0.80096749414288       -1.35307862757005
H            4.92664163592867        0.69948752822437        0.32444863616109
H            3.53221602412787       -0.86957012018201       -3.82940762709263
H            5.81614620987512       -2.29146140703500       -4.24642560605112
H            7.24705466607269       -1.95484887641859       -1.95414439914286
18
 energy: -45.793868226767 gnorm: 0.005419107234 xtb: 6.7.1 (edcfbbe)
F            0.98278560578462        2.05862693061217        1.96894387739734
C            1.59649033326350        1.60179512025870        0.84523493881426
F            0.97857383723927        0.43256632842491        0.58335738115276
F            1.24093037000588        2.47600297296244       -0.11608592301077
C            3.13483927610064        1.47876091825945        1.06935712183546
O            3.55755826105086        1.92914742101374        2.14300751393445
C            3.87997744134793        0.84097542509183        0.08608759004634
C            3.44296274170826        0.36523424890030       -1.17116212774013
O            2.35129142158073        0.53419986649104       -1.72223136983741
C            4.46152993103708       -0.44393326959313       -1.90806475062546
C            4.36088786546729       -0.99282394445431       -3.16221892142805
C            5.55201960825940       -1.71859314994989       -3.38132193908678
C            6.29363618696074       -1.56141225796209       -2.25018585750037
O            5.64647366003593       -0.79552538291107       -1.35843013868441
H            4.92143460938059        0.69574563929963        0.32839687226789
H            3.52702455428670       -0.87984759596518       -3.82398799184879
H            5.82122678059480       -2.28169446142979       -4.25400514429731
H            7.26015751589602       -1.93465480904869       -1.96830113138916
18
 energy: -45.793948262104 gnorm: 0.004913693389 xtb: 6.7.1 (edcfbbe)
F            0.98472015201557        2.09980507961388        1.95456692413164
C            1.59793077672491        1.61112588057387        0.84358242398806
F            0.96315200299298        0.44774498585610        0.59992927328881
F            1.26067919707071        2.47394509230575       -0.13563304461239
C            3.13106789789471        1.46681738847845        1.07475784914298
O            3.55551761056282        1.90191637066990        2.15459491633626
C            3.87605081011287        0.83282938690005        0.08921798474686
C            3.43936212653466        0.35235457157051       -1.16557157003846
O            2.34162425631492        0.50853019956986       -1.70962061016691
C            4.46044728711095       -0.44810449910644       -1.90692720845084
C            4.35912885050307       -0.99647070645041       -3.16112367657459
C            5.55524549678171       -1.71189873211550       -3.38616425443972
C            6.29947491169643       -1.55176555331791       -2.25723656433854
O            5.64998910407513       -0.79185032453465       -1.36206710925096
H            4.91699253688510        0.68684508817734        0.33554933266901
H            3.52273942799656       -0.88838160071900       -3.82027849699453
H            5.82612014378973       -2.27110607001277       -4.26077989813053
H            7.26955741093744       -1.91776655745896       -1.97840627130628
18
 energy: -45.794033553601 gnorm: 0.003231467674 xtb: 6.7.1 (edcfbbe)
F            0.99207604436950        2.13973669247228        1.93986795869703
C            1.60039418601835        1.62111918922694        0.84048374906954
F            0.94909943648316        0.46411429945577        0.61583390824310
F            1.27676568614441        2.47107599826088       -0.15343652612493
C            3.12679595922938        1.45616562039911        1.07897350634912
O            3.55193282962896        1.88166788359454        2.16197996567789
C            3.87203492969047        0.82008210899230        0.09406845692965
C            3.43551817943592        0.33747195913448       -1.15889656673287
O            2.33334005239015        0.48618321089544       -1.69731878887868
C            4.45774425622949       -0.45441393709803       -1.90530239823635
C            4.35686127474385       -1.00039344147465       -3.16011722359550
C            5.55879702482149       -1.70417550561140       -3.39110916447375
C            6.30511631385464       -1.54066312621909       -2.26401370072883
O            5.65164304868398       -0.78933013815918       -1.36484957292465
H            4.91206863852843        0.67018859445060        0.34611079120655
H            3.51845620298620       -0.89762894022000       -3.81728279779680
H            5.83201060727370       -2.25817016340895       -4.26819283275227
H            7.27914532948823       -1.89846030469096       -1.98840876392843
18
 energy: -45.794115076502 gnorm: 0.002865330484 xtb: 6.7.1 (edcfbbe)
F            1.00399812592035        2.18568617971114        1.92378703038963
C            1.60281451527946        1.63414140518019        0.83591138489630
F            0.93059494471111        0.48516061029024        0.63286708326809
F            1.29446201578519        2.46999037173350       -0.17300095589809
C            3.12261751046384        1.44462630299701        1.08376792289325
O            3.54654593089052        1.86136918161068        2.17080601548986
C            3.86728277441570        0.80135127844379        0.10133728341105
C            3.42971224983962        0.31893126574781       -1.15062905890458
O            2.32330177993422        0.46033065248347       -1.68423475448770
C            4.45408723661665       -0.46311449714722       -1.90292068541331
C            4.35420807934200       -1.00565698114408       -3.15883673065990
C            5.56384562915875       -1.69443877257636       -3.39697956595607
C            6.31238548435056       -1.52630481928570       -2.27189183170455
O            5.65374300809647       -0.78570733075416       -1.36806699882648
H            4.90597106702757        0.64414962987108        0.35798525527025
H            3.51272645093739       -0.91037358193334       -3.81324605667532
H            5.83986217307089       -2.24183668057052       -4.27723256793859
H            7.29164102416009       -1.87373421465741       -2.00103276915407
18
 energy: -45.794179883606 gnorm: 0.002995897473 xtb: 6.7.1 (edcfbbe)
F            1.01451932731554        2.22407854894978        1.91051454476365
C            1.60421708180350        1.64603987848566        0.83207458059742
F            0.91395521441233        0.50436665752618        0.64659887560633
F            1.30960230114965        2.46977716756121       -0.18943334237481
C            3.11957819571496        1.43496995204956        1.08803896078922
O            3.54233675099951        1.85013318200275        2.17520592568171
C            3.86236269107459        0.78095118705422        0.11032396325180
C            3.42364012031214        0.30108949264242       -1.14213856205192
O            2.31621977230368        0.44122761662328       -1.67339293948130
C            4.45032722556954       -0.47236809721750       -1.89995136492300
C            4.35222153626385       -1.01057907311866       -3.15772085709360
C            5.56859331012583       -1.68563222922930       -3.40240638350731
C            6.31927236607091       -1.51289922568729       -2.27940985690639
O            5.65532598345066       -0.78355552365690       -1.37046588743446
H            4.89933929447718        0.61650268279829        0.36934516740722
H            3.50760982669191       -0.92254301446673       -3.80921059350103
H            5.84712725318353       -2.22658538385879       -4.28583425744250
H            7.30355174908113       -1.85040381845804       -2.01374797338126
18
 energy: -45.794228917476 gnorm: 0.002112718059 xtb: 6.7.1 (edcfbbe)
F            1.02213175350778        2.24998485474502        1.90044384856636
C            1.60508457703925        1.65597219811103        0.82857361557551
F            0.90142213261648        0.52119808610284        0.65219033638853
F            1.32201935794710        2.47296435471323       -0.20043600660753
C            3.11825797354379        1.42882532708651        1.09150954992952
O            3.53935374684572        1.84262521502678        2.18050202973991
C            3.85798790954343        0.76425594302346        0.11838288113747
C            3.41880247811907        0.28780867048345       -1.13560663402334
O            2.31028474407743        0.42591050101375       -1.66581670329918
C            4.44784124493154       -0.47998704184970       -1.89700291029831
C            4.35019297406535       -1.01595042875110       -3.15581458213401
C            5.57207102696610       -1.67896284707007       -3.40650607243457
C            6.32511879619469       -1.50182230459794       -2.28576752648491
O            5.65780934951935       -0.78090104778023       -1.37272735234023
H            4.89299371010525        0.59228415835274        0.37853920797699
H            3.50239447587750       -0.93438336957249       -3.80414291472498
H            5.85229160242735       -2.21457556074421       -4.29266182369647
H            7.31374214667328       -1.83067670829292       -2.02526894327104
18
 energy: -45.794265545623 gnorm: 0.001586110388 xtb: 6.7.1 (edcfbbe)
F            1.02615239234910        2.27118615968181        1.89236628667534
C            1.60535521075114        1.66302408393037        0.82659186366993
F            0.89033341171734        0.53410917786852        0.65651901935264
F            1.33470866647985        2.47522261075860       -0.21002308380229
C            3.11712013228631        1.42268686876791        1.09510518243256
O            3.53824047332349        1.83965950750690        2.18229239224480
C            3.85369847388801        0.74960762131401        0.12591449697402
C            3.41458895425451        0.27623854793802       -1.12976167696369
O            2.30667921095255        0.41517648370728       -1.66000322319182
C            4.44595472753312       -0.48660745208209       -1.89394901254821
C            4.34878475572521       -1.02017236187853       -3.15399760893117
C            5.57461622989917       -1.67343046953484       -3.41000285456655
C            6.33004020204165       -1.49265088522634       -2.29152011217820
O            5.66011165150408       -0.77917540143439       -1.37445733946515
H            4.88712418126222        0.57233541309077        0.38655637891715
H            3.49812045017451       -0.94379188870177       -3.79919172332082
H            5.85600862011628       -2.20465204728687       -4.29845272646640
H            7.32216225574196       -1.81419596841919       -2.03559625883245
18
 energy: -45.794301457436 gnorm: 0.001604816842 xtb: 6.7.1 (edcfbbe)
F            1.02926604555547        2.29030965752717        1.88329598092479
C            1.60609585889039        1.67135173047312        0.82374625159699
F            0.87920951184101        0.55082929469696        0.65414958596670
F            1.35045312704164        2.48239257127259       -0.21801454503127
C            3.11580410925210        1.41712556335811        1.09868195722711
O            3.53801800814036        1.83625086749430        2.18517244489060
C            3.84806904197216        0.73319398792005        0.13473443683232
C            3.41019762574528        0.26274840142114       -1.12286456829863
O            2.30283825189210        0.40215462450497       -1.65364880839182
C            4.44405220427690       -0.49491292381682       -1.88945110495893
C            4.34605553928160       -1.02692626060042       -3.15030849031789
C            5.57696133025037       -1.66708605390582       -3.41400011417852
C            6.33605097816951       -1.48156903486476       -2.29881450885530
O            5.66350626399262       -0.77708377964348       -1.37652312059920
H            4.87937662345597        0.54887148681944        0.39748200089369
H            3.49142705108437       -0.95697082207384       -3.79094876031866
H            5.85964546061053       -2.19280504205245       -4.30536064559940
H            7.33277296854817       -1.79330426853007       -2.04893799178293
18
 energy: -45.794323516077 gnorm: 0.001400091136 xtb: 6.7.1 (edcfbbe)
F            1.03116232008335        2.30582247441754        1.87706353545754
C            1.60699520377449        1.67703666364336        0.82178852829874
F            0.86957118638313        0.56312314843110        0.65214157498698
F            1.36477604898230        2.48853003230739       -0.22415850060038
C            3.11401110885728        1.41104230038507        1.10200006076066
O            3.53748992766212        1.83129898583073        2.18764405114994
C            3.84395966012009        0.72187897490469        0.14023079698436
C            3.40712137776132        0.25263675888361       -1.11811922941037
O            2.29896720064822        0.38926029528033       -1.64892363868575
C            4.44325574015037       -0.50044760622338       -1.88625637636897
C            4.34434009557406       -1.03120792846032       -3.14759862918456
C            5.57831650931551       -1.66252439570313       -3.41667839851748
C            6.34033148449043       -1.47321672150118       -2.30409640450672
O            5.66667613515017       -0.77432868082933       -1.37843127578460
H            4.87438102627087        0.53417676808069        0.40465015863041
H            3.48672851617013       -0.96581200697908       -3.78466044332421
H            5.86156232273167       -2.18483811914458       -4.30980373915944
H            7.34015413587504       -1.77786094332332       -2.05840207072651
18
 energy: -45.794346948939 gnorm: 0.001213829217 xtb: 6.7.1 (edcfbbe)
F            1.03416775282945        2.32148041124369        1.86944877570714
C            1.60908890186640        1.68582451293069        0.81826210573416
F            0.86019505055121        0.58141254177154        0.64434095052076
F            1.38214965555832        2.49973677025607       -0.22948585394345
C            3.11102042566420        1.40480262418612        1.10518343339908
O            3.53647289406182        1.82546350130019        2.19011499036962
C            3.83839751513620        0.70649265641925        0.14789004470901
C            3.40310418962611        0.23779568764465       -1.11089885910587
O            2.29556894079471        0.37424858792584       -1.64200227696180
C            4.44107493280719       -0.50933617690684       -1.88149413436454
C            4.34098533276273       -1.03867337156420       -3.14338580041211
C            5.58034025558658       -1.65597648747848       -3.42060793428258
C            6.34596441425741       -1.46155720823166       -2.31140772146239
O            5.66939265804667       -0.77233604767228       -1.38032345274890
H            4.86719941085312        0.51397076028469        0.41620077620562
H            3.47927707097405       -0.98026071549444       -3.77554186951254
H            5.86495306700981       -2.17303212228721       -4.31638901321782
H            7.35044753161463       -1.75548592432745       -2.07151416063380
18
 energy: -45.794361864178 gnorm: 0.001321911905 xtb: 6.7.1 (edcfbbe)
F            1.03856910722392        2.33910073063709        1.86232256352603
C            1.61137770323645        1.69415769674189        0.81461124074063
F            0.84943599522128        0.59857685272697        0.63956290894880
F            1.39967276738712        2.50912388886653       -0.23601714986859
C            3.10838303709322        1.39703510424479        1.10878563698569
O            3.53369839290912        1.81418523292813        2.19560926626370
C            3.83406357338595        0.69377663576919        0.15381414239955
C            3.39935866548626        0.22580313857517       -1.10529985233668
O            2.29014749744429        0.35712479988234       -1.63511225686061
C            4.43967565663085       -0.51569108654440       -1.87841943218732
C            4.33853826649033       -1.04468498965304       -3.14031411293153
C            5.58188815926701       -1.65082917493520       -3.42335327066630
C            6.35096275920253       -1.45013906017652       -2.31750891648788
O            5.67258982552411       -0.76771018090678       -1.38295202492559
H            4.86153914752161        0.49708178455975        0.42452932269341
H            3.47338346708656       -0.99334186416283       -3.76838702199436
H            5.86721386417093       -2.16425240109647       -4.32091809620680
H            7.35930211471911       -1.73474710745640       -2.08256294709258
18
 energy: -45.794372439997 gnorm: 0.001433409736 xtb: 6.7.1 (edcfbbe)
F            1.04599028923948        2.36614654299499        1.85161302065525
C            1.61491191767425        1.70636117347851        0.80968744944298
F            0.83470335304409        0.62344178017878        0.63498678182452
F            1.42463826111588        2.52033758809468       -0.24621165554604
C            3.10451298184884        1.38556754827281        1.11423935117711
O            3.52901158909281        1.79761654818696        2.20300353280270
C            3.82787083010332        0.67533715252768        0.16240194528820
C            3.39345648852964        0.20842500883748       -1.09718737570231
O            2.28301766646218        0.33532859550262       -1.62492228221212
C            4.43665512618524       -0.52495022994768       -1.87442485652205
C            4.33501106899065       -1.05399569164708       -3.13626141632930
C            5.58496378463196       -1.64285075257189       -3.42769441483524
C            6.35761674275171       -1.43344952432077       -2.32608133019741
O            5.67590449381041       -0.76100019304256       -1.38676273861272
H            4.85308704988621        0.47160791069258        0.43658513251565
H            3.46539324556398       -1.01373624236432       -3.75896732430184
H            5.87187194702995       -2.15105878291238       -4.32777037060684
H            7.37118316404011       -1.70455843196019       -2.09784344884100
18
 energy: -45.794377041308 gnorm: 0.001073830309 xtb: 6.7.1 (edcfbbe)
F            1.05000754606143        2.37502285827054        1.84765785285260
C            1.61646191714800        1.71027055216714        0.80783470098144
F            0.83050205715614        0.63174098648328        0.63401037625124
F            1.43224437620409        2.52279699726519       -0.24951274976586
C            3.10344895603945        1.38148862902903        1.11601540494000
O            3.52665627981257        1.78889646120617        2.20709696298471
C            3.82611145049950        0.67023951668842        0.16451360273890
C            3.39178590076808        0.20434067458382       -1.09545604295129
O            2.28047624368438        0.32952904224751       -1.62202176053063
C            4.43561610178667       -0.52688610388326       -1.87396256869220
C            4.33412288270568       -1.05690886300276       -3.13535230617217
C            5.58524562098951       -1.64153846927833       -3.42813676690577
C            6.35944021490703       -1.42724994068687       -2.32844181155891
O            5.67646306692985       -0.75763123238989       -1.38814240163473
H            4.85037921679205        0.46366323775809        0.43985273165966
H            3.46361974811951       -1.02086975404774       -3.75688964460561
H            5.87249594170539       -2.14887621737080       -4.32850338505002
H            7.37472247869136       -1.69345837503933       -2.10217219454183
18
 energy: -45.794383437068 gnorm: 0.001211111722 xtb: 6.7.1 (edcfbbe)
F            1.05736438775253        2.39236157167693        1.83998683615873
C            1.61902621958621        1.71595022881297        0.80512204206653
F            0.82255383151573        0.64454530115345        0.63580121977851
F            1.44562191996172        2.52372150790808       -0.25689058675327
C            3.10168280742907        1.37368518231579        1.11950716916060