      -----------------------------------------------------------      
     |                   =====================                   |     
     |                           x T B                           |     
     |                   =====================                   |     
     |                         S. Grimme                         |     
     |          Mulliken Center for Theoretical Chemistry        |     
     |                    University of Bonn                     |     
      -----------------------------------------------------------      

   * xtb version 6.7.1 (edcfbbe) compiled by 'conda@3ef47c1a292c' on 2024-11-25

   xtb is free software: you can redistribute it and/or modify it under
   the terms of the GNU Lesser General Public License as published by
   the Free Software Foundation, either version 3 of the License, or
   (at your option) any later version.
   
   xtb is distributed in the hope that it will be useful,
   but WITHOUT ANY WARRANTY; without even the implied warranty of
   MERCHANTABILITY or FITNESS FOR A PARTICULAR PURPOSE.  See the
   GNU Lesser General Public License for more details.
   
   Cite this work as:
   * C. Bannwarth, E. Caldeweyher, S. Ehlert, A. Hansen, P. Pracht,
     J. Seibert, S. Spicher, S. Grimme, WIREs Comput. Mol. Sci., 2020, 11,
     e01493. DOI: 10.1002/wcms.1493
   
   for GFN2-xTB:
   * C. Bannwarth, S. Ehlert and S. Grimme., J. Chem. Theory Comput., 2019,
     15, 1652-1671. DOI: 10.1021/acs.jctc.8b01176
   for GFN1-xTB:
   * S. Grimme, C. Bannwarth, P. Shushkov, J. Chem. Theory Comput., 2017,
     13, 1989-2009. DOI: 10.1021/acs.jctc.7b00118
   for GFN0-xTB:
   * P. Pracht, E. Caldeweyher, S. Ehlert, S. Grimme, ChemRxiv, 2019, preprint.
     DOI: 10.26434/chemrxiv.8326202.v1
   for GFN-FF:
   * S. Spicher and S. Grimme, Angew. Chem. Int. Ed., 2020, 59, 15665-15673.
     DOI: 10.1002/anie.202004239
   
   for ALPB and GBSA implicit solvation:
   * S. Ehlert, M. Stahn, S. Spicher, S. Grimme, J. Chem. Theory Comput.,
     2021, 17, 4250-4261. DOI: 10.1021/acs.jctc.1c00471
   
   for ddCOSMO and CPCM-X implicit solvation:
   * M. Stahn, S. Ehlert, S. Grimme, J. Phys. Chem. A,
     2023, XX, XXXX-XXXX. DOI: 10.1021/acs.jpca.3c04382
   
   for DFT-D4:
   * E. Caldeweyher, C. Bannwarth and S. Grimme, J. Chem. Phys., 2017,
     147, 034112. DOI: 10.1063/1.4993215
   * E. Caldeweyher, S. Ehlert, A. Hansen, H. Neugebauer, S. Spicher,
     C. Bannwarth and S. Grimme, J. Chem. Phys., 2019, 150, 154122.
     DOI: 10.1063/1.5090222
   * E. Caldeweyher, J.-M. Mewes, S. Ehlert and S. Grimme, Phys. Chem. Chem. Phys.
     2020, 22, 8499-8512. DOI: 10.1039/D0CP00502A
   
   for sTDA-xTB:
   * S. Grimme and C. Bannwarth, J. Chem. Phys., 2016, 145, 054103.
     DOI: 10.1063/1.4959605
   
   in the mass-spec context:
   * V. Asgeirsson, C. Bauer and S. Grimme, Chem. Sci., 2017, 8, 4879.
     DOI: 10.1039/c7sc00601b
   * J. Koopman and S. Grimme, ACS Omega 2019, 4, 12, 15120-15133.
     DOI: 10.1021/acsomega.9b02011
   
   for metadynamics refer to:
   * S. Grimme, J. Chem. Theory Comput., 2019, 155, 2847-2862
     DOI: 10.1021/acs.jctc.9b00143
   
   for SPH calculations refer to:
   * S. Spicher and S. Grimme, J. Chem. Theory Comput., 2021, 17, 1701-1714
     DOI: 10.1021/acs.jctc.0c01306
   
   for ONIOM refer to:
   * C. Plett, A. Katbashev, S. Ehlert, S. Grimme, M. Bursch,
     Phys. Chem. Chem. Phys., 2023, 25, 17860-17868. DOI: 10.1039/D3CP02178E
   
   for DIPRO refer to:
   * J. Kohn, N. Gildemeister, S. Grimme, D. Fazzi, A. Hansen,
     J. Chem. Phys., 2023, just accepted.
   
   for PTB refer to:
   * S. Grimme, M. Mueller, A. Hansen, J. Chem. Phys., 2023, 158, 124111.
     DOI: 10.1063/5.0137838
   
   with help from (in alphabetical order)
   P. Atkinson, C. Bannwarth, F. Bohle, G. Brandenburg, E. Caldeweyher
   M. Checinski, S. Dohm, S. Ehlert, S. Ehrlich, I. Gerasimov, C. Hölzer
   A. Katbashev, J. Kohn, J. Koopman, C. Lavigne, S. Lehtola, F. März, M. Müller,
   F. Musil, H. Neugebauer, J. Pisarek, C. Plett, P. Pracht, F. Pultar,
   J. Seibert, P. Shushkov, S. Spicher, M. Stahn, M. Steiner, T. Strunk,
   J. Stückrath, T. Rose, and J. Unsleber
   
 * started run on 2024/12/20 at 01:53:14.108     
   ID    Z sym.   atoms
    1    9 F      1, 10-12, 21-23, 25-27, 35-37, 39-41, 49-51, 53-57
    2    6 C      2-9, 14-20, 24, 28-34, 38, 42-48, 52
    3    5 B      13
    4    1 H      58-69

           -------------------------------------------------
          |                Calculation Setup                |
           -------------------------------------------------

          program call               : xtb A095.xyz --opt --namespace A095 --charge -1
          calculation namespace      : A095
          coordinate file            : A095.xyz
          omp threads                :                     8


           -------------------------------------------------
          |                 G F N 2 - x T B                 |
           -------------------------------------------------

        Reference                      10.1021/acs.jctc.8b01176
      * Hamiltonian:
        H0-scaling (s, p, d)           1.850000    2.230000    2.230000
        zeta-weighting                 0.500000
      * Dispersion:
        s8                             2.700000
        a1                             0.520000
        a2                             5.000000
        s9                             5.000000
      * Repulsion:
        kExp                           1.500000    1.000000
        rExp                           1.000000
      * Coulomb:
        alpha                          2.000000
        third order                    shell-resolved
        anisotropic                    true
        a3                             3.000000
        a5                             4.000000
        cn-shift                       1.200000
        cn-exp                         4.000000
        max-rad                        5.000000


          ...................................................
          :                      SETUP                      :
          :.................................................:
          :  # basis functions                 240          :
          :  # atomic orbitals                 240          :
          :  # shells                          126          :
          :  # electrons                       312          :
          :  max. iterations                   250          :
          :  Hamiltonian                  GFN2-xTB          :
          :  restarted?                      false          :
          :  GBSA solvation                  false          :
          :  PC potential                    false          :
          :  electronic temp.          300.0000000     K    :
          :  accuracy                    1.0000000          :
          :  -> integral cutoff          0.2500000E+02      :
          :  -> integral neglect         0.1000000E-07      :
          :  -> SCF convergence          0.1000000E-05 Eh   :
          :  -> wf. convergence          0.1000000E-03 e    :
          :  Broyden damping             0.4000000          :
          :  net charge                         -1          :
          :  unpaired electrons                  0          :
          ...................................................

 iter      E             dE          RMSdq      gap      omega  full diag
   1   -190.8549798 -0.190855E+03  0.546E+00    3.20       0.0  T
   2   -191.3244582 -0.469478E+00  0.330E+00    2.92       1.0  T
   3   -191.3280341 -0.357594E-02  0.157E+00    3.20       1.0  T
   4   -191.3349445 -0.691036E-02  0.604E-01    2.74       1.0  T
   5   -191.3708165 -0.358720E-01  0.142E-01    2.94       1.0  T
   6   -191.3699327  0.883875E-03  0.117E-01    2.90       1.0  T
   7   -191.3709676 -0.103490E-02  0.477E-02    2.93       1.0  T
   8   -191.3711344 -0.166880E-03  0.661E-03    2.93       1.8  T
   9   -191.3711344  0.376958E-07  0.388E-03    2.93       3.1  T
  10   -191.3711348 -0.383274E-06  0.108E-03    2.93      11.1  T
  11   -191.3711348 -0.318503E-07  0.650E-04    2.93      18.5  T
  12   -191.3711349 -0.378836E-07  0.125E-04    2.93      96.2  T

   *** convergence criteria satisfied after 12 iterations ***

         #    Occupation            Energy/Eh            Energy/eV
      -------------------------------------------------------------
         1        2.0000           -0.8148887             -22.1743
       ...           ...                  ...                  ...
       150        2.0000           -0.3512900              -9.5591
       151        2.0000           -0.3505041              -9.5377
       152        2.0000           -0.3489624              -9.4957
       153        2.0000           -0.3477914              -9.4639
       154        2.0000           -0.3158204              -8.5939
       155        2.0000           -0.3144866              -8.5576
       156        2.0000           -0.3027553              -8.2384 (HOMO)
       157                         -0.1950397              -5.3073 (LUMO)
       158                         -0.1938242              -5.2742
       159                         -0.1914412              -5.2094
       160                         -0.1892275              -5.1491
       161                         -0.1696560              -4.6166
       ...                                ...                  ...
       240                          0.8003057              21.7774
      -------------------------------------------------------------
                  HL-Gap            0.1077157 Eh            2.9311 eV
             Fermi-level           -0.2488975 Eh           -6.7728 eV

 SCC (total)                   0 d,  0 h,  0 min,  0.122 sec
 SCC setup                      ...        0 min,  0.000 sec (  0.260%)
 Dispersion                     ...        0 min,  0.001 sec (  1.198%)
 classical contributions        ...        0 min,  0.000 sec (  0.105%)
 integral evaluation            ...        0 min,  0.009 sec (  7.153%)
 iterations                     ...        0 min,  0.088 sec ( 72.070%)
 molecular gradient             ...        0 min,  0.023 sec ( 18.687%)
 printout                       ...        0 min,  0.001 sec (  0.512%)

         :::::::::::::::::::::::::::::::::::::::::::::::::::::
         ::                     SUMMARY                     ::
         :::::::::::::::::::::::::::::::::::::::::::::::::::::
         :: total energy            -189.729436966815 Eh    ::
         :: gradient norm              0.326146409421 Eh/a0 ::
         :: HOMO-LUMO gap              2.931092363154 eV    ::
         ::.................................................::
         :: SCC energy              -191.367199465881 Eh    ::
         :: -> isotropic ES            0.376977238679 Eh    ::
         :: -> anisotropic ES         -0.001004013206 Eh    ::
         :: -> anisotropic XC         -0.125601712771 Eh    ::
         :: -> dispersion             -0.099132481223 Eh    ::
         :: repulsion energy           1.637762499065 Eh    ::
         :: add. restraining           0.000000000000 Eh    ::
         :: total charge              -1.000000000000 e     ::
         :::::::::::::::::::::::::::::::::::::::::::::::::::::

      ----------------------------------------------------------- 
     |                   =====================                   |
     |                        A N C O P T                        |
     |                   =====================                   |
     |               Approximate Normal Coordinate               |
     |                Rational Function Optimizer                |
      ----------------------------------------------------------- 
      ----------------------------------------------------------- 
     |                   =====================                   |
     |                        A N C O P T                        |
     |                   =====================                   |
     |               Approximate Normal Coordinate               |
     |                Rational Function Optimizer                |
      ----------------------------------------------------------- 

          ...................................................
          :                      SETUP                      :
          :.................................................:
          :   optimization level            normal          :
          :   max. optcycles                   207          :
          :   ANC micro-cycles                  20          :
          :   degrees of freedom               201          :
          :.................................................:
          :   RF solver                   davidson          :
          :   write xtbopt.log                true          :
          :   linear?                        false          :
          :   energy convergence         0.5000000E-05 Eh   :
          :   grad. convergence          0.1000000E-02 Eh/α :
          :   maxmium RF displ.          1.0000000          :
          :   Hlow (freq-cutoff)         0.1000000E-01      :
          :   Hmax (freq-cutoff)         5.0000000          :
          :   S6 in model hess.         20.0000000          :
          ...................................................

generating ANC from exact Hessian ...
Using Lindh-Hessian (1995)
 Shifting diagonal of input Hessian by    9.8423657006619838E-003
 Lowest  eigenvalues of input Hessian
    0.000000    0.000000    0.000000    0.000000    0.000000    0.000000
    0.010000    0.010070    0.010109    0.010144    0.010194    0.010238
    0.010289    0.010391    0.010481    0.013445    0.013643    0.014300
 Highest eigenvalues
    2.127539    2.127927    2.203848    2.206323    2.207945    2.209495


........................................................................
.............................. CYCLE    1 ..............................
........................................................................

 iter      E             dE          RMSdq      gap      omega  full diag
   1   -191.3711349 -0.191371E+03  0.698E-05    2.93       0.0  T
   2   -191.3711349 -0.166892E-09  0.471E-05    2.93     255.4  T
   3   -191.3711349 -0.153250E-09  0.202E-05    2.93     595.8  T
     SCC iter.                  ...        0 min,  0.025 sec
     gradient                   ...        0 min,  0.023 sec
 * total energy  :  -189.7294370 Eh     change       -0.5178151E-09 Eh
   gradient norm :     0.3261456 Eh/α   predicted     0.0000000E+00 (-100.00%)
   displ. norm   :     0.5213569 α      lambda       -0.9446789E-01
   maximum displ.:     0.2202988 α      in ANC's #38, #42, #53, ...

........................................................................
.............................. CYCLE    2 ..............................
........................................................................

 iter      E             dE          RMSdq      gap      omega  full diag
   1   -191.3529787 -0.191353E+03  0.277E-01    3.09       0.0  T
   2   -191.3531389 -0.160229E-03  0.174E-01    3.14       1.0  T
   3   -191.3523944  0.744488E-03  0.992E-02    3.07       1.0  T
   4   -191.3533332 -0.938800E-03  0.150E-02    3.12       1.0  T
   5   -191.3533521 -0.188746E-04  0.533E-03    3.12       2.3  T
   6   -191.3533529 -0.805793E-06  0.186E-03    3.12       6.5  T
   7   -191.3533529  0.889347E-08  0.103E-03    3.12      11.7  T
   8   -191.3533530 -0.491789E-07  0.207E-04    3.12      58.0  T
   9   -191.3533530 -0.775941E-09  0.107E-04    3.12     112.9  T
     SCC iter.                  ...        0 min,  0.064 sec
     gradient                   ...        0 min,  0.022 sec
 * total energy  :  -189.7984611 Eh     change       -0.6902414E-01 Eh
   gradient norm :     0.1330516 Eh/α   predicted    -0.6016630E-01 ( -12.83%)
   displ. norm   :     0.6126928 α      lambda       -0.4645225E-01
   maximum displ.:     0.2953832 α      in ANC's #38, #42, #53, ...

........................................................................
.............................. CYCLE    3 ..............................
........................................................................

 iter      E             dE          RMSdq      gap      omega  full diag
   1   -191.3351598 -0.191335E+03  0.286E-01    3.24       0.0  T
   2   -191.3352976 -0.137835E-03  0.171E-01    3.27       1.0  T
   3   -191.3347646  0.532962E-03  0.781E-02    3.22       1.0  T
   4   -191.3353667 -0.602010E-03  0.149E-02    3.26       1.0  T
   5   -191.3353848 -0.181312E-04  0.684E-03    3.26       1.8  T
   6   -191.3353867 -0.194704E-05  0.210E-03    3.26       5.7  T
   7   -191.3353867 -0.720485E-08  0.953E-04    3.26      12.6  T
   8   -191.3353868 -0.244910E-07  0.221E-04    3.26      54.5  T
     SCC iter.                  ...        0 min,  0.058 sec
     gradient                   ...        0 min,  0.023 sec
 * total energy  :  -189.8304971 Eh     change       -0.3203604E-01 Eh
   gradient norm :     0.0351745 Eh/α   predicted    -0.3194511E-01 (  -0.28%)
   displ. norm   :     0.6404061 α      lambda       -0.1857456E-01
   maximum displ.:     0.3459326 α      in ANC's #38, #42, #16, ...

........................................................................
.............................. CYCLE    4 ..............................
........................................................................

 iter      E             dE          RMSdq      gap      omega  full diag
   1   -191.3140118 -0.191314E+03  0.229E-01    3.34       0.0  T
   2   -191.3140505 -0.387938E-04  0.136E-01    3.34       1.0  T
   3   -191.3139400  0.110576E-03  0.486E-02    3.35       1.0  T
   4   -191.3140690 -0.128992E-03  0.638E-03    3.34       1.9  T
   5   -191.3140710 -0.203788E-05  0.293E-03    3.34       4.1  T
   6   -191.3140715 -0.541333E-06  0.136E-03    3.34       8.8  T
   7   -191.3140716 -0.698223E-07  0.486E-04    3.34      24.7  T
   8   -191.3140716 -0.211369E-08  0.164E-04    3.34      73.4  T
     SCC iter.                  ...        0 min,  0.061 sec
     gradient                   ...        0 min,  0.022 sec
 * total energy  :  -189.8448109 Eh     change       -0.1431378E-01 Eh
   gradient norm :     0.0262348 Eh/α   predicted    -0.1309624E-01 (  -8.51%)
   displ. norm   :     0.6366017 α      lambda       -0.1041472E-01
   maximum displ.:     0.3139121 α      in ANC's #38, #16, #17, ...

........................................................................
.............................. CYCLE    5 ..............................
........................................................................

 iter      E             dE          RMSdq      gap      omega  full diag
   1   -191.3002066 -0.191300E+03  0.189E-01    3.41       0.0  T
   2   -191.3002254 -0.188437E-04  0.114E-01    3.40       1.0  T
   3   -191.3000590  0.166377E-03  0.478E-02    3.43       1.0  T
   4   -191.3002464 -0.187322E-03  0.603E-03    3.40       2.0  T
   5   -191.3002490 -0.264132E-05  0.253E-03    3.41       4.7  T
   6   -191.3002492 -0.180588E-06  0.969E-04    3.41      12.4  T
   7   -191.3002492 -0.266880E-07  0.366E-04    3.41      32.9  T
     SCC iter.                  ...        0 min,  0.062 sec
     gradient                   ...        0 min,  0.022 sec
 * total energy  :  -189.8526183 Eh     change       -0.7807400E-02 Eh
   gradient norm :     0.0155788 Eh/α   predicted    -0.7317702E-02 (  -6.27%)
   displ. norm   :     0.5941748 α      lambda       -0.5207017E-02
   maximum displ.:     0.3299637 α      in ANC's #16, #38, #17, ...

........................................................................
.............................. CYCLE    6 ..............................
........................................................................

 iter      E             dE          RMSdq      gap      omega  full diag
   1   -191.2949271 -0.191295E+03  0.144E-01    3.46       0.0  T
   2   -191.2949371 -0.100696E-04  0.878E-02    3.46       1.0  T
   3   -191.2948454  0.917005E-04  0.327E-02    3.48       1.0  T
   4   -191.2949481 -0.102646E-03  0.447E-03    3.46       2.7  T
   5   -191.2949489 -0.861342E-06  0.233E-03    3.46       5.2  T
   6   -191.2949491 -0.189250E-06  0.819E-04    3.46      14.7  T
   7   -191.2949491 -0.162704E-07  0.337E-04    3.46      35.8  T
     SCC iter.                  ...        0 min,  0.051 sec
     gradient                   ...        0 min,  0.022 sec
 * total energy  :  -189.8565502 Eh     change       -0.3931905E-02 Eh
   gradient norm :     0.0114253 Eh/α   predicted    -0.3522661E-02 ( -10.41%)
   displ. norm   :     0.5626447 α      lambda       -0.2979485E-02
   maximum displ.:     0.3297721 α      in ANC's #16, #17, #11, ...

........................................................................
.............................. CYCLE    7 ..............................
........................................................................

 iter      E             dE          RMSdq      gap      omega  full diag
   1   -191.2923588 -0.191292E+03  0.123E-01    3.50       0.0  T
   2   -191.2923666 -0.776066E-05  0.743E-02    3.49       1.0  T
   3   -191.2923333  0.333022E-04  0.202E-02    3.51       1.0  T
   4   -191.2923720 -0.386747E-04  0.381E-03    3.50       3.2  T
   5   -191.2923724 -0.409401E-06  0.211E-03    3.50       5.7  T
   6   -191.2923725 -0.155179E-06  0.789E-04    3.50      15.3  T
   7   -191.2923726 -0.183382E-07  0.302E-04    3.50      39.8  T
     SCC iter.                  ...        0 min,  0.052 sec
     gradient                   ...        0 min,  0.022 sec
 * total energy  :  -189.8588196 Eh     change       -0.2269367E-02 Eh
   gradient norm :     0.0117306 Eh/α   predicted    -0.1961352E-02 ( -13.57%)
   displ. norm   :     0.5227512 α      lambda       -0.1883801E-02
   maximum displ.:     0.2995833 α      in ANC's #16, #11, #17, ...

........................................................................
.............................. CYCLE    8 ..............................
........................................................................

 iter      E             dE          RMSdq      gap      omega  full diag
   1   -191.2921068 -0.191292E+03  0.107E-01    3.52       0.0  T
   2   -191.2921129 -0.610929E-05  0.642E-02    3.52       1.0  T
   3   -191.2921051  0.776396E-05  0.119E-02    3.53       1.0  T
   4   -191.2921162 -0.110746E-04  0.313E-03    3.52       3.8  T
   5   -191.2921163 -0.654559E-07  0.184E-03    3.52       6.5  T
   6   -191.2921165 -0.185378E-06  0.640E-04    3.52      18.8  T
   7   -191.2921165 -0.999103E-08  0.260E-04    3.52      46.4  T
     SCC iter.                  ...        0 min,  0.051 sec
     gradient                   ...        0 min,  0.022 sec
 * total energy  :  -189.8602311 Eh     change       -0.1411509E-02 Eh
   gradient norm :     0.0119784 Eh/α   predicted    -0.1199297E-02 ( -15.03%)
   displ. norm   :     0.4578460 α      lambda       -0.1180311E-02
   maximum displ.:     0.2302897 α      in ANC's #16, #3, #8, ...

........................................................................
.............................. CYCLE    9 ..............................
........................................................................

 iter      E             dE          RMSdq      gap      omega  full diag
   1   -191.2940258 -0.191294E+03  0.867E-02    3.53       0.0  T
   2   -191.2940307 -0.489801E-05  0.522E-02    3.53       1.0  T
   3   -191.2940284  0.229745E-05  0.833E-03    3.53       1.4  T
   4   -191.2940330 -0.456300E-05  0.249E-03    3.53       4.8  T
   5   -191.2940331 -0.845890E-07  0.992E-04    3.53      12.1  T
   6   -191.2940331 -0.172072E-07  0.458E-04    3.53      26.3  T
     SCC iter.                  ...        0 min,  0.045 sec
     gradient                   ...        0 min,  0.025 sec
 * total energy  :  -189.8611118 Eh     change       -0.8806612E-03 Eh
   gradient norm :     0.0104093 Eh/α   predicted    -0.7138729E-03 ( -18.94%)
   displ. norm   :     0.4216482 α      lambda       -0.8030339E-03
   maximum displ.:     0.1609355 α      in ANC's #16, #3, #5, ...

........................................................................
.............................. CYCLE   10 ..............................
........................................................................

 iter      E             dE          RMSdq      gap      omega  full diag
   1   -191.2978377 -0.191298E+03  0.697E-02    3.53       0.0  T
   2   -191.2978430 -0.527703E-05  0.420E-02    3.53       1.0  T
   3   -191.2978409  0.208660E-05  0.771E-03    3.53       1.6  T
   4   -191.2978446 -0.368736E-05  0.247E-03    3.53       4.9  T
   5   -191.2978448 -0.178662E-06  0.105E-03    3.53      11.5  T
   6   -191.2978448 -0.253840E-07  0.467E-04    3.53      25.8  T
   7   -191.2978448 -0.435526E-08  0.263E-04    3.53      45.7  T
     SCC iter.                  ...        0 min,  0.052 sec
     gradient                   ...        0 min,  0.022 sec
 * total energy  :  -189.8617207 Eh     change       -0.6089579E-03 Eh
   gradient norm :     0.0074882 Eh/α   predicted    -0.4729018E-03 ( -22.34%)
   displ. norm   :     0.4335808 α      lambda       -0.6195222E-03
   maximum displ.:     0.1775623 α      in ANC's #3, #5, #8, ...

........................................................................
.............................. CYCLE   11 ..............................
........................................................................

 iter      E             dE          RMSdq      gap      omega  full diag
   1   -191.3010502 -0.191301E+03  0.633E-02    3.52       0.0  T
   2   -191.3010547 -0.453954E-05  0.379E-02    3.52       1.0  T
   3   -191.3010524  0.236100E-05  0.754E-03    3.52       1.6  T
   4   -191.3010560 -0.365075E-05  0.241E-03    3.52       5.0  T
   5   -191.3010562 -0.182054E-06  0.924E-04    3.52      13.0  T
   6   -191.3010562 -0.223071E-07  0.399E-04    3.52      30.2  T
     SCC iter.                  ...        0 min,  0.043 sec
     gradient                   ...        0 min,  0.022 sec
 * total energy  :  -189.8622115 Eh     change       -0.4908087E-03 Eh
   gradient norm :     0.0055114 Eh/α   predicted    -0.3679944E-03 ( -25.02%)
   displ. norm   :     0.4885483 α      lambda       -0.5836428E-03
   maximum displ.:     0.2025960 α      in ANC's #3, #5, #8, ...

........................................................................
.............................. CYCLE   12 ..............................
........................................................................

 iter      E             dE          RMSdq      gap      omega  full diag
   1   -191.3030082 -0.191303E+03  0.679E-02    3.52       0.0  T
   2   -191.3030119 -0.371864E-05  0.404E-02    3.52       1.0  T
   3   -191.3030098  0.210701E-05  0.702E-03    3.52       1.7  T
   4   -191.3030131 -0.326443E-05  0.231E-03    3.52       5.2  T
   5   -191.3030132 -0.141586E-06  0.897E-04    3.52      13.4  T
   6   -191.3030133 -0.248846E-07  0.427E-04    3.52      28.2  T
     SCC iter.                  ...        0 min,  0.044 sec
     gradient                   ...        0 min,  0.022 sec
 * total energy  :  -189.8626977 Eh     change       -0.4861446E-03 Eh
   gradient norm :     0.0069725 Eh/α   predicted    -0.3614744E-03 ( -25.64%)
   displ. norm   :     0.5640440 α      lambda       -0.6296578E-03
   maximum displ.:     0.2333542 α      in ANC's #3, #5, #7, ...

........................................................................
.............................. CYCLE   13 ..............................
........................................................................

 iter      E             dE          RMSdq      gap      omega  full diag
   1   -191.3031107 -0.191303E+03  0.762E-02    3.51       0.0  T
   2   -191.3031136 -0.289080E-05  0.450E-02    3.51       1.0  T
   3   -191.3031103  0.333327E-05  0.767E-03    3.51       1.6  T
   4   -191.3031148 -0.456863E-05  0.214E-03    3.51       5.6  T
   5   -191.3031149 -0.641525E-07  0.108E-03    3.51      11.2  T
   6   -191.3031149 -0.604840E-07  0.455E-04    3.51      26.5  T
   7   -191.3031150 -0.556349E-08  0.200E-04    3.51      60.1  T
     SCC iter.                  ...        0 min,  0.050 sec
     gradient                   ...        0 min,  0.022 sec
 * total energy  :  -189.8632399 Eh     change       -0.5422497E-03 Eh
   gradient norm :     0.0094836 Eh/α   predicted    -0.4149916E-03 ( -23.47%)
   displ. norm   :     0.6414661 α      lambda       -0.7059068E-03
   maximum displ.:     0.2584517 α      in ANC's #3, #6, #5, ...

........................................................................
.............................. CYCLE   14 ..............................
........................................................................

 iter      E             dE          RMSdq      gap      omega  full diag
   1   -191.3018173 -0.191302E+03  0.868E-02    3.51       0.0  T
   2   -191.3018199 -0.268902E-05  0.513E-02    3.51       1.0  T
   3   -191.3018177  0.227850E-05  0.671E-03    3.51       1.8  T
   4   -191.3018212 -0.351096E-05  0.217E-03    3.51       5.5  T
   5   -191.3018212 -0.672852E-07  0.109E-03    3.51      11.0  T
   6   -191.3018213 -0.512088E-07  0.466E-04    3.51      25.8  T
   7   -191.3018213 -0.842695E-08  0.176E-04    3.51      68.3  T
     SCC iter.                  ...        0 min,  0.050 sec
     gradient                   ...        0 min,  0.022 sec
 * total energy  :  -189.8638514 Eh     change       -0.6114707E-03 Eh
   gradient norm :     0.0104196 Eh/α   predicted    -0.4981864E-03 ( -18.53%)
   displ. norm   :     0.6846171 α      lambda       -0.7320172E-03
   maximum displ.:     0.2802481 α      in ANC's #6, #3, #5, ...

........................................................................
.............................. CYCLE   15 ..............................
........................................................................

 iter      E             dE          RMSdq      gap      omega  full diag
   1   -191.3002378 -0.191300E+03  0.922E-02    3.50       0.0  T
   2   -191.3002415 -0.366530E-05  0.545E-02    3.50       1.0  T
   3   -191.3002391  0.243963E-05  0.720E-03    3.51       1.7  T
   4   -191.3002429 -0.386344E-05  0.243E-03    3.50       5.0  T
   5   -191.3002430 -0.132851E-06  0.117E-03    3.51      10.3  T
   6   -191.3002431 -0.467943E-07  0.542E-04    3.50      22.2  T
   7   -191.3002431 -0.120216E-07  0.231E-04    3.51      52.1  T
     SCC iter.                  ...        0 min,  0.051 sec
     gradient                   ...        0 min,  0.022 sec
 * total energy  :  -189.8644656 Eh     change       -0.6141855E-03 Eh
   gradient norm :     0.0083791 Eh/α   predicted    -0.5375588E-03 ( -12.48%)
   displ. norm   :     0.6789947 α      lambda       -0.6225556E-03
   maximum displ.:     0.2857568 α      in ANC's #6, #5, #3, ...

........................................................................
.............................. CYCLE   16 ..............................
........................................................................

 iter      E             dE          RMSdq      gap      omega  full diag
   1   -191.2988873 -0.191299E+03  0.929E-02    3.51       0.0  T
   2   -191.2988919 -0.453501E-05  0.549E-02    3.51       1.0  T
   3   -191.2988913  0.522705E-06  0.594E-03    3.51       2.0  T
   4   -191.2988932 -0.187637E-05  0.258E-03    3.51       4.7  T
   5   -191.2988934 -0.207427E-06  0.102E-03    3.51      11.8  T
   6   -191.2988934 -0.275389E-07  0.452E-04    3.51      26.6  T
   7   -191.2988934 -0.158522E-08  0.213E-04    3.51      56.6  T
     SCC iter.                  ...        0 min,  0.053 sec
     gradient                   ...        0 min,  0.022 sec
 * total energy  :  -189.8649580 Eh     change       -0.4923639E-03 Eh
   gradient norm :     0.0060931 Eh/α   predicted    -0.4547895E-03 (  -7.63%)
   displ. norm   :     0.6305107 α      lambda       -0.4315857E-03
   maximum displ.:     0.2684027 α      in ANC's #6, #5, #3, ...

........................................................................
.............................. CYCLE   17 ..............................
........................................................................

 iter      E             dE          RMSdq      gap      omega  full diag
   1   -191.2992448 -0.191299E+03  0.867E-02    3.51       0.0  T
   2   -191.2992479 -0.317547E-05  0.512E-02    3.51       1.0  T
   3   -191.2992465  0.147881E-05  0.626E-03    3.51       1.9  T
   4   -191.2992492 -0.270704E-05  0.220E-03    3.51       5.5  T
   5   -191.2992493 -0.101054E-06  0.899E-04    3.51      13.4  T
   6   -191.2992493 -0.205365E-07  0.447E-04    3.51      27.0  T
     SCC iter.                  ...        0 min,  0.044 sec
     gradient                   ...        0 min,  0.022 sec
 * total energy  :  -189.8652844 Eh     change       -0.3264077E-03 Eh
   gradient norm :     0.0054007 Eh/α   predicted    -0.3015867E-03 (  -7.60%)
   displ. norm   :     0.5651035 α      lambda       -0.3009145E-03
   maximum displ.:     0.2565412 α      in ANC's #5, #6, #3, ...

........................................................................
.............................. CYCLE   18 ..............................
........................................................................

 iter      E             dE          RMSdq      gap      omega  full diag
   1   -191.3000069 -0.191300E+03  0.794E-02    3.51       0.0  T
   2   -191.3000090 -0.203024E-05  0.469E-02    3.51       1.0  T
   3   -191.3000074  0.151639E-05  0.564E-03    3.51       2.1  T
   4   -191.3000099 -0.248214E-05  0.185E-03    3.51       6.5  T
   5   -191.3000100 -0.373070E-07  0.841E-04    3.51      14.3  T
   6   -191.3000100 -0.314744E-07  0.377E-04    3.51      31.9  T
     SCC iter.                  ...        0 min,  0.076 sec
     gradient                   ...        0 min,  0.022 sec
 * total energy  :  -189.8655125 Eh     change       -0.2281758E-03 Eh
   gradient norm :     0.0059112 Eh/α   predicted    -0.1985049E-03 ( -13.00%)
   displ. norm   :     0.5078323 α      lambda       -0.2421100E-03
   maximum displ.:     0.2450485 α      in ANC's #5, #6, #3, ...

........................................................................
.............................. CYCLE   19 ..............................
........................................................................

 iter      E             dE          RMSdq      gap      omega  full diag
   1   -191.3028010 -0.191303E+03  0.713E-02    3.51       0.0  T
   2   -191.3028025 -0.158169E-05  0.422E-02    3.51       1.0  T
   3   -191.3028017  0.804473E-06  0.479E-03    3.51       2.5  T
   4   -191.3028033 -0.157759E-05  0.153E-03    3.51       7.9  T
   5   -191.3028033 -0.233403E-07  0.660E-04    3.51      18.2  T
   6   -191.3028033 -0.855525E-08  0.269E-04    3.51      44.8  T
     SCC iter.                  ...        0 min,  0.103 sec
     gradient                   ...        0 min,  0.022 sec
 * total energy  :  -189.8657011 Eh     change       -0.1885387E-03 Eh
   gradient norm :     0.0050956 Eh/α   predicted    -0.1522772E-03 ( -19.23%)
   displ. norm   :     0.4946284 α      lambda       -0.1997930E-03
   maximum displ.:     0.2553972 α      in ANC's #5, #6, #3, ...

........................................................................
.............................. CYCLE   20 ..............................
........................................................................

 iter      E             dE          RMSdq      gap      omega  full diag
   1   -191.3040739 -0.191304E+03  0.724E-02    3.51       0.0  T
   2   -191.3040757 -0.185626E-05  0.428E-02    3.51       1.0  T
   3   -191.3040745  0.118093E-05  0.517E-03    3.51       2.3  T
   4   -191.3040765 -0.200156E-05  0.165E-03    3.51       7.3  T
   5   -191.3040766 -0.476559E-07  0.707E-04    3.51      17.0  T
   6   -191.3040766 -0.108251E-07  0.297E-04    3.51      40.5  T
     SCC iter.                  ...        0 min,  0.045 sec
     gradient                   ...        0 min,  0.022 sec
 * total energy  :  -189.8658551 Eh     change       -0.1540221E-03 Eh
   gradient norm :     0.0038647 Eh/α   predicted    -0.1243378E-03 ( -19.27%)
   displ. norm   :     0.4069201 α      lambda       -0.1463189E-03
   maximum displ.:     0.2262617 α      in ANC's #5, #6, #3, ...
 * RMSD in coord.:     0.9683177 α      energy gain  -0.1364181E+00 Eh

generating ANC from exact Hessian ...
Using Lindh-Hessian (1995)
 Shifting diagonal of input Hessian by    9.8786585339140590E-003
 Lowest  eigenvalues of input Hessian
    0.000000    0.000000    0.000000    0.000000    0.000000    0.000000
    0.010000    0.010045    0.010047    0.010089    0.010152    0.010177
    0.010225    0.010252    0.010276    0.013094    0.013619    0.013631
 Highest eigenvalues
    1.992826    1.996715    2.004116    2.007718    2.008381    2.009697


........................................................................
.............................. CYCLE   21 ..............................
........................................................................

 iter      E             dE          RMSdq      gap      omega  full diag
   1   -191.3069476 -0.191307E+03  0.602E-02    3.51       0.0  T
   2   -191.3069490 -0.142985E-05  0.357E-02    3.51       1.0  T
   3   -191.3069464  0.260804E-05  0.597E-03    3.51       2.0  T
   4   -191.3069497 -0.329909E-05  0.155E-03    3.51       7.8  T
   5   -191.3069498 -0.593430E-07  0.855E-04    3.51      14.1  T
   6   -191.3069498 -0.278397E-07  0.343E-04    3.51      35.1  T
     SCC iter.                  ...        0 min,  0.046 sec
     gradient                   ...        0 min,  0.022 sec
 * total energy  :  -189.8659613 Eh     change       -0.1062312E-03 Eh
   gradient norm :     0.0033287 Eh/α   predicted     0.0000000E+00 (-100.00%)
   displ. norm   :     0.0489692 α      lambda       -0.4417088E-04
   maximum displ.:     0.0256785 α      in ANC's #5, #8, #4, ...

........................................................................
.............................. CYCLE   22 ..............................
........................................................................

 iter      E             dE          RMSdq      gap      omega  full diag
   1   -191.3056585 -0.191306E+03  0.114E-02    3.51       0.0  T
   2   -191.3056586 -0.122845E-06  0.679E-03    3.51       1.8  T
   3   -191.3056585  0.621809E-07  0.137E-03    3.51       8.8  T
   4   -191.3056586 -0.931205E-07  0.366E-04    3.51      32.9  T
   5   -191.3056586 -0.300255E-08  0.158E-04    3.51      76.3  T
     SCC iter.                  ...        0 min,  0.037 sec
     gradient                   ...        0 min,  0.022 sec
 * total energy  :  -189.8659998 Eh     change       -0.3844897E-04 Eh
   gradient norm :     0.0018815 Eh/α   predicted    -0.2308094E-04 ( -39.97%)
   displ. norm   :     0.2136095 α      lambda       -0.8535782E-04
   maximum displ.:     0.1150407 α      in ANC's #5, #8, #4, ...

........................................................................
.............................. CYCLE   23 ..............................
........................................................................

 iter      E             dE          RMSdq      gap      omega  full diag
   1   -191.3027366 -0.191303E+03  0.406E-02    3.51       0.0  T
   2   -191.3027380 -0.138030E-05  0.240E-02    3.51       1.0  T
   3   -191.3027374  0.600972E-06  0.414E-03    3.51       2.9  T
   4   -191.3027383 -0.935141E-06  0.137E-03    3.51       8.8  T
   5   -191.3027384 -0.545326E-07  0.584E-04    3.51      20.6  T
   6   -191.3027384 -0.131029E-07  0.267E-04    3.51      45.1  T
     SCC iter.                  ...        0 min,  0.044 sec
     gradient                   ...        0 min,  0.022 sec
 * total energy  :  -189.8660721 Eh     change       -0.7233254E-04 Eh
   gradient norm :     0.0031836 Eh/α   predicted    -0.4354478E-04 ( -39.80%)
   displ. norm   :     0.0917245 α      lambda       -0.4022714E-04
   maximum displ.:     0.0508194 α      in ANC's #5, #8, #4, ...

........................................................................
.............................. CYCLE   24 ..............................
........................................................................

 iter      E             dE          RMSdq      gap      omega  full diag
   1   -191.3032015 -0.191303E+03  0.146E-02    3.52       0.0  T
   2   -191.3032016 -0.746232E-07  0.863E-03    3.52       1.4  T
   3   -191.3032015  0.156144E-06  0.145E-03    3.52       8.3  T
   4   -191.3032017 -0.196088E-06  0.358E-04    3.52      33.6  T
   5   -191.3032017 -0.125172E-08  0.201E-04    3.52      59.8  T
     SCC iter.                  ...        0 min,  0.037 sec
     gradient                   ...        0 min,  0.022 sec
 * total energy  :  -189.8661101 Eh     change       -0.3800855E-04 Eh
   gradient norm :     0.0032217 Eh/α   predicted    -0.2028316E-04 ( -46.64%)
   displ. norm   :     0.2921476 α      lambda       -0.1396578E-03
   maximum displ.:     0.1572997 α      in ANC's #5, #8, #4, ...

........................................................................
.............................. CYCLE   25 ..............................
........................................................................

 iter      E             dE          RMSdq      gap      omega  full diag
   1   -191.3052100 -0.191305E+03  0.444E-02    3.52       0.0  T
   2   -191.3052106 -0.612145E-06  0.263E-02    3.52       1.0  T
   3   -191.3052094  0.113300E-05  0.427E-03    3.52       2.8  T
   4   -191.3052109 -0.147612E-05  0.914E-04    3.52      13.2  T
   5   -191.3052109 -0.846811E-08  0.497E-04    3.52      24.2  T
   6   -191.3052109 -0.512802E-08  0.198E-04    3.52      60.7  T
     SCC iter.                  ...        0 min,  0.043 sec
     gradient                   ...        0 min,  0.022 sec
 * total energy  :  -189.8662318 Eh     change       -0.1216319E-03 Eh
   gradient norm :     0.0027071 Eh/α   predicted    -0.7592396E-04 ( -37.58%)
   displ. norm   :     0.5134804 α      lambda       -0.1920754E-03
   maximum displ.:     0.2746750 α      in ANC's #5, #8, #4, ...

........................................................................
.............................. CYCLE   26 ..............................
........................................................................

 iter      E             dE          RMSdq      gap      omega  full diag
   1   -191.3063349 -0.191306E+03  0.773E-02    3.52       0.0  T
   2   -191.3063365 -0.156618E-05  0.458E-02    3.52       1.0  T
   3   -191.3063339  0.256951E-05  0.652E-03    3.52       1.8  T
   4   -191.3063374 -0.351550E-05  0.150E-03    3.52       8.0  T
   5   -191.3063374 -0.882861E-08  0.754E-04    3.52      16.0  T
   6   -191.3063374 -0.154582E-07  0.269E-04    3.52      44.7  T
     SCC iter.                  ...        0 min,  0.044 sec
     gradient                   ...        0 min,  0.022 sec
 * total energy  :  -189.8663927 Eh     change       -0.1609229E-03 Eh
   gradient norm :     0.0032584 Eh/α   predicted    -0.1213774E-03 ( -24.57%)
   displ. norm   :     0.5980732 α      lambda       -0.1803022E-03
   maximum displ.:     0.3182045 α      in ANC's #5, #8, #4, ...

........................................................................
.............................. CYCLE   27 ..............................
........................................................................

 iter      E             dE          RMSdq      gap      omega  full diag
   1   -191.3058279 -0.191306E+03  0.892E-02    3.52       0.0  T
   2   -191.3058300 -0.200752E-05  0.528E-02    3.52       1.0  T
   3   -191.3058270  0.298555E-05  0.710E-03    3.52       1.7  T
   4   -191.3058312 -0.422780E-05  0.172E-03    3.52       7.0  T
   5   -191.3058312  0.252331E-08  0.845E-04    3.52      14.2  T
   6   -191.3058312 -0.297990E-07  0.303E-04    3.52      39.8  T
     SCC iter.                  ...        0 min,  0.046 sec
     gradient                   ...        0 min,  0.022 sec
 * total energy  :  -189.8665460 Eh     change       -0.1533327E-03 Eh
   gradient norm :     0.0037411 Eh/α   predicted    -0.1223993E-03 ( -20.17%)
   displ. norm   :     0.6103212 α      lambda       -0.1754892E-03
   maximum displ.:     0.3228087 α      in ANC's #5, #8, #4, ...

........................................................................
.............................. CYCLE   28 ..............................
........................................................................

 iter      E             dE          RMSdq      gap      omega  full diag
   1   -191.3048286 -0.191305E+03  0.907E-02    3.52       0.0  T
   2   -191.3048307 -0.214368E-05  0.537E-02    3.52       1.0  T
   3   -191.3048283  0.244535E-05  0.680E-03    3.52       1.8  T
   4   -191.3048320 -0.370983E-05  0.176E-03    3.52       6.8  T
   5   -191.3048320 -0.685665E-08  0.760E-04    3.52      15.8  T
   6   -191.3048320 -0.194852E-07  0.301E-04    3.52      40.0  T
     SCC iter.                  ...        0 min,  0.044 sec
     gradient                   ...        0 min,  0.022 sec
 * total energy  :  -189.8666948 Eh     change       -0.1487934E-03 Eh
   gradient norm :     0.0034649 Eh/α   predicted    -0.1204318E-03 ( -19.06%)
   displ. norm   :     0.5476031 α      lambda       -0.1702570E-03
   maximum displ.:     0.2847509 α      in ANC's #5, #8, #4, ...

........................................................................
.............................. CYCLE   29 ..............................
........................................................................

 iter      E             dE          RMSdq      gap      omega  full diag
   1   -191.3047588 -0.191305E+03  0.819E-02    3.52       0.0  T
   2   -191.3047606 -0.183040E-05  0.485E-02    3.52       1.0  T
   3   -191.3047586  0.204518E-05  0.632E-03    3.52       1.9  T
   4   -191.3047617 -0.309462E-05  0.166E-03    3.52       7.3  T
   5   -191.3047617  0.815061E-08  0.854E-04    3.52      14.1  T
   6   -191.3047617 -0.406991E-07  0.336E-04    3.52      35.8  T
     SCC iter.                  ...        0 min,  0.044 sec
     gradient                   ...        0 min,  0.023 sec
 * total energy  :  -189.8668345 Eh     change       -0.1396499E-03 Eh
   gradient norm :     0.0028666 Eh/α   predicted    -0.1106569E-03 ( -20.76%)
   displ. norm   :     0.4678201 α      lambda       -0.1384250E-03
   maximum displ.:     0.2333263 α      in ANC's #5, #4, #8, ...

........................................................................
.............................. CYCLE   30 ..............................
........................................................................

 iter      E             dE          RMSdq      gap      omega  full diag
   1   -191.3050748 -0.191305E+03  0.710E-02    3.52       0.0  T
   2   -191.3050761 -0.130069E-05  0.421E-02    3.52       1.0  T
   3   -191.3050743  0.172756E-05  0.555E-03    3.52       2.2  T
   4   -191.3050768 -0.250278E-05  0.144E-03    3.52       8.4  T
   5   -191.3050768  0.206407E-08  0.833E-04    3.52      14.5  T
   6   -191.3050769 -0.360787E-07  0.289E-04    3.52      41.7  T
     SCC iter.                  ...        0 min,  0.051 sec
     gradient                   ...        0 min,  0.022 sec
 * total energy  :  -189.8669476 Eh     change       -0.1131597E-03 Eh
   gradient norm :     0.0031885 Eh/α   predicted    -0.8436028E-04 ( -25.45%)
   displ. norm   :     0.3924524 α      lambda       -0.1121850E-03
   maximum displ.:     0.2003902 α      in ANC's #4, #5, #1, ...

........................................................................
.............................. CYCLE   31 ..............................
........................................................................

 iter      E             dE          RMSdq      gap      omega  full diag
   1   -191.3052915 -0.191305E+03  0.593E-02    3.52       0.0  T
   2   -191.3052923 -0.842036E-06  0.352E-02    3.52       1.0  T
   3   -191.3052915  0.795528E-06  0.398E-03    3.52       3.0  T
   4   -191.3052928 -0.129580E-05  0.115E-03    3.52      10.5  T
   5   -191.3052928 -0.390617E-08  0.657E-04    3.52      18.3  T
   6   -191.3052928 -0.159424E-07  0.229E-04    3.52      52.6  T
     SCC iter.                  ...        0 min,  0.045 sec
     gradient                   ...        0 min,  0.022 sec
 * total energy  :  -189.8670461 Eh     change       -0.9846672E-04 Eh
   gradient norm :     0.0033884 Eh/α   predicted    -0.6473565E-04 ( -34.26%)
   displ. norm   :     0.3376181 α      lambda       -0.1216954E-03
   maximum displ.:     0.1873451 α      in ANC's #4, #1, #5, ...

........................................................................
.............................. CYCLE   32 ..............................
........................................................................

 iter      E             dE          RMSdq      gap      omega  full diag
   1   -191.3064335 -0.191306E+03  0.500E-02    3.52       0.0  T
   2   -191.3064343 -0.744925E-06  0.297E-02    3.52       1.0  T
   3   -191.3064338  0.505190E-06  0.321E-03    3.52       3.7  T
   4   -191.3064346 -0.861823E-06  0.109E-03    3.52      11.1  T
   5   -191.3064346 -0.289808E-07  0.596E-04    3.52      20.2  T
   6   -191.3064347 -0.811849E-08  0.234E-04    3.52      51.4  T
     SCC iter.                  ...        0 min,  0.044 sec
     gradient                   ...        0 min,  0.022 sec
 * total energy  :  -189.8671564 Eh     change       -0.1103499E-03 Eh
   gradient norm :     0.0031335 Eh/α   predicted    -0.6778366E-04 ( -38.57%)
   displ. norm   :     0.4314829 α      lambda       -0.1657287E-03
   maximum displ.:     0.2502058 α      in ANC's #4, #1, #2, ...

........................................................................
.............................. CYCLE   33 ..............................
........................................................................

 iter      E             dE          RMSdq      gap      omega  full diag
   1   -191.3063654 -0.191306E+03  0.619E-02    3.53       0.0  T
   2   -191.3063666 -0.118915E-05  0.367E-02    3.53       1.0  T
   3   -191.3063666 -0.147648E-07  0.308E-03    3.53       3.9  T
   4   -191.3063672 -0.541191E-06  0.130E-03    3.53       9.3  T
   5   -191.3063672 -0.265122E-07  0.553E-04    3.53      21.8  T
   6   -191.3063672 -0.807995E-08  0.248E-04    3.53      48.5  T
     SCC iter.                  ...        0 min,  0.050 sec
     gradient                   ...        0 min,  0.024 sec
 * total energy  :  -189.8673088 Eh     change       -0.1523574E-03 Eh
   gradient norm :     0.0028019 Eh/α   predicted    -0.9829446E-04 ( -35.48%)
   displ. norm   :     0.5017504 α      lambda       -0.2045363E-03
   maximum displ.:     0.2969863 α      in ANC's #4, #1, #2, ...

........................................................................
.............................. CYCLE   34 ..............................
........................................................................

 iter      E             dE          RMSdq      gap      omega  full diag
   1   -191.3070495 -0.191307E+03  0.686E-02    3.53       0.0  T
   2   -191.3070511 -0.160589E-05  0.408E-02    3.53       1.0  T
   3   -191.3070510  0.535522E-07  0.366E-03    3.53       3.3  T
   4   -191.3070519 -0.821615E-06  0.154E-03    3.53       7.8  T
   5   -191.3070519 -0.410895E-07  0.635E-04    3.53      19.0  T
   6   -191.3070519 -0.115660E-07  0.301E-04    3.53      40.0  T
     SCC iter.                  ...        0 min,  0.044 sec
     gradient                   ...        0 min,  0.022 sec
 * total energy  :  -189.8674951 Eh     change       -0.1863169E-03 Eh
   gradient norm :     0.0034215 Eh/α   predicted    -0.1280167E-03 ( -31.29%)
   displ. norm   :     0.5953285 α      lambda       -0.2371524E-03
   maximum displ.:     0.3562950 α      in ANC's #4, #1, #2, ...

........................................................................
.............................. CYCLE   35 ..............................
........................................................................

 iter      E             dE          RMSdq      gap      omega  full diag
   1   -191.3065661 -0.191307E+03  0.802E-02    3.53       0.0  T
   2   -191.3065682 -0.206537E-05  0.476E-02    3.53       1.0  T
   3   -191.3065681  0.568531E-07  0.424E-03    3.53       2.8  T
   4   -191.3065692 -0.112985E-05  0.174E-03    3.53       6.9  T
   5   -191.3065693 -0.408496E-07  0.688E-04    3.53      17.5  T
   6   -191.3065693 -0.107215E-07  0.289E-04    3.53      41.7  T
     SCC iter.                  ...        0 min,  0.043 sec
     gradient                   ...        0 min,  0.022 sec
 * total energy  :  -189.8677084 Eh     change       -0.2133244E-03 Eh
   gradient norm :     0.0045038 Eh/α   predicted    -0.1606021E-03 ( -24.71%)
   displ. norm   :     0.6067222 α      lambda       -0.2414744E-03
   maximum displ.:     0.3621631 α      in ANC's #4, #1, #2, ...

........................................................................
.............................. CYCLE   36 ..............................
........................................................................

 iter      E             dE          RMSdq      gap      omega  full diag
   1   -191.3066895 -0.191307E+03  0.804E-02    3.53       0.0  T
   2   -191.3066915 -0.201925E-05  0.478E-02    3.53       1.0  T
   3   -191.3066910  0.528019E-06  0.481E-03    3.53       2.5  T
   4   -191.3066927 -0.169318E-05  0.173E-03    3.53       6.9  T
   5   -191.3066927 -0.256690E-07  0.681E-04    3.53      17.7  T
   6   -191.3066927 -0.110472E-07  0.260E-04    3.53      46.3  T
     SCC iter.                  ...        0 min,  0.044 sec
     gradient                   ...        0 min,  0.022 sec
 * total energy  :  -189.8679223 Eh     change       -0.2138265E-03 Eh
   gradient norm :     0.0050029 Eh/α   predicted    -0.1651851E-03 ( -22.75%)
   displ. norm   :     0.6013871 α      lambda       -0.2345193E-03
   maximum displ.:     0.3658246 α      in ANC's #4, #1, #2, ...

........................................................................
.............................. CYCLE   37 ..............................
........................................................................

 iter      E             dE          RMSdq      gap      omega  full diag
   1   -191.3059759 -0.191306E+03  0.813E-02    3.53       0.0  T
   2   -191.3059779 -0.203142E-05  0.483E-02    3.53       1.0  T
   3   -191.3059773  0.618727E-06  0.495E-03    3.53       2.4  T
   4   -191.3059791 -0.176573E-05  0.174E-03    3.53       6.9  T
   5   -191.3059791 -0.279901E-07  0.729E-04    3.53      16.5  T
   6   -191.3059791 -0.114066E-07  0.265E-04    3.53      45.4  T
     SCC iter.                  ...        0 min,  0.044 sec
     gradient                   ...        0 min,  0.022 sec
 * total energy  :  -189.8681271 Eh     change       -0.2048677E-03 Eh
   gradient norm :     0.0045160 Eh/α   predicted    -0.1596683E-03 ( -22.06%)
   displ. norm   :     0.5668411 α      lambda       -0.2161000E-03
   maximum displ.:     0.3507424 α      in ANC's #4, #1, #2, ...

........................................................................
.............................. CYCLE   38 ..............................
........................................................................

 iter      E             dE          RMSdq      gap      omega  full diag
   1   -191.3063614 -0.191306E+03  0.777E-02    3.53       0.0  T
   2   -191.3063635 -0.205513E-05  0.462E-02    3.53       1.0  T
   3   -191.3063623  0.113403E-05  0.544E-03    3.53       2.2  T
   4   -191.3063646 -0.223809E-05  0.179E-03    3.53       6.7  T
   5   -191.3063646 -0.338225E-07  0.767E-04    3.53      15.7  T
   6   -191.3063646 -0.179366E-07  0.352E-04    3.53      34.2  T
     SCC iter.                  ...        0 min,  0.043 sec
     gradient                   ...        0 min,  0.022 sec
 * total energy  :  -189.8683106 Eh     change       -0.1835210E-03 Eh
   gradient norm :     0.0033544 Eh/α   predicted    -0.1427684E-03 ( -22.21%)
   displ. norm   :     0.5540317 α      lambda       -0.1864565E-03
   maximum displ.:     0.3616346 α      in ANC's #4, #1, #2, ...

........................................................................
.............................. CYCLE   39 ..............................
........................................................................

 iter      E             dE          RMSdq      gap      omega  full diag
   1   -191.3050894 -0.191305E+03  0.794E-02    3.53       0.0  T
   2   -191.3050915 -0.208347E-05  0.471E-02    3.53       1.0  T
   3   -191.3050910  0.540952E-06  0.482E-03    3.53       2.5  T
   4   -191.3050925 -0.153021E-05  0.175E-03    3.53       6.9  T
   5   -191.3050926 -0.485263E-07  0.745E-04    3.53      16.2  T
   6   -191.3050926 -0.126417E-07  0.323E-04    3.53      37.2  T
     SCC iter.                  ...        0 min,  0.046 sec
     gradient                   ...        0 min,  0.022 sec
 * total energy  :  -189.8684651 Eh     change       -0.1544676E-03 Eh
   gradient norm :     0.0031700 Eh/α   predicted    -0.1218461E-03 ( -21.12%)
   displ. norm   :     0.4524719 α      lambda       -0.1512643E-03
   maximum displ.:     0.3026761 α      in ANC's #4, #2, #1, ...

........................................................................
.............................. CYCLE   40 ..............................
........................................................................

 iter      E             dE          RMSdq      gap      omega  full diag
   1   -191.3064422 -0.191306E+03  0.651E-02    3.53       0.0  T
   2   -191.3064437 -0.147224E-05  0.387E-02    3.53       1.0  T
   3   -191.3064426  0.112077E-05  0.477E-03    3.53       2.5  T
   4   -191.3064444 -0.183032E-05  0.156E-03    3.53       7.7  T
   5   -191.3064445 -0.480894E-07  0.731E-04    3.53      16.5  T
   6   -191.3064445 -0.147948E-07  0.328E-04    3.53      36.7  T
     SCC iter.                  ...        0 min,  0.047 sec
     gradient                   ...        0 min,  0.022 sec
 * total energy  :  -189.8685891 Eh     change       -0.1239752E-03 Eh
   gradient norm :     0.0035112 Eh/α   predicted    -0.9111673E-04 ( -26.50%)
   displ. norm   :     0.4554084 α      lambda       -0.1470856E-03
   maximum displ.:     0.3257781 α      in ANC's #4, #2, #1, ...

........................................................................
.............................. CYCLE   41 ..............................
........................................................................

 iter      E             dE          RMSdq      gap      omega  full diag
   1   -191.3065537 -0.191307E+03  0.674E-02    3.53       0.0  T
   2   -191.3065550 -0.122217E-05  0.400E-02    3.53       1.0  T
   3   -191.3065546  0.364089E-06  0.383E-03    3.54       3.1  T
   4   -191.3065556 -0.100921E-05  0.135E-03    3.53       8.9  T
   5   -191.3065556 -0.143147E-07  0.661E-04    3.53      18.2  T
   6   -191.3065556 -0.149361E-07  0.267E-04    3.53      45.1  T
     SCC iter.                  ...        0 min,  0.044 sec
     gradient                   ...        0 min,  0.022 sec
 * total energy  :  -189.8687198 Eh     change       -0.1307237E-03 Eh
   gradient norm :     0.0042820 Eh/α   predicted    -0.8879614E-04 ( -32.07%)
   displ. norm   :     0.3733382 α      lambda       -0.1427233E-03
   maximum displ.:     0.2766785 α      in ANC's #4, #2, #1, ...

........................................................................
.............................. CYCLE   42 ..............................
........................................................................

 iter      E             dE          RMSdq      gap      omega  full diag
   1   -191.3068037 -0.191307E+03  0.564E-02    3.54       0.0  T
   2   -191.3068045 -0.789826E-06  0.334E-02    3.54       1.0  T
   3   -191.3068045 -0.227765E-07  0.247E-03    3.54       4.9  T
   4   -191.3068049 -0.359018E-06  0.106E-03    3.54      11.4  T
   5   -191.3068049 -0.159539E-07  0.561E-04    3.54      21.5  T
   6   -191.3068049 -0.769577E-08  0.203E-04    3.54      59.3  T
     SCC iter.                  ...        0 min,  0.045 sec
     gradient                   ...        0 min,  0.022 sec
 * total energy  :  -189.8688515 Eh     change       -0.1316989E-03 Eh
   gradient norm :     0.0042570 Eh/α   predicted    -0.8131068E-04 ( -38.26%)
   displ. norm   :     0.4706763 α      lambda       -0.2070337E-03
   maximum displ.:     0.3520868 α      in ANC's #4, #2, #3, ...
 * RMSD in coord.:     1.0022464 α      energy gain  -0.2996408E-02 Eh

generating ANC from exact Hessian ...
Using Lindh-Hessian (1995)
 Shifting diagonal of input Hessian by    9.8400941739757303E-003
 Lowest  eigenvalues of input Hessian
    0.000000    0.000000    0.000000    0.000000    0.000000    0.000000
    0.010000    0.010024    0.010057    0.010094    0.010153    0.010188
    0.010221    0.010258    0.010285    0.013411    0.013635    0.013667
 Highest eigenvalues
    1.992369    1.992950    2.002402    2.006014    2.006661    2.007977


........................................................................
.............................. CYCLE   43 ..............................
........................................................................

 iter      E             dE          RMSdq      gap      omega  full diag
   1   -191.3085331 -0.191309E+03  0.697E-02    3.54       0.0  T
   2   -191.3085345 -0.132454E-05  0.413E-02    3.54       1.0  T
   3   -191.3085343  0.206303E-06  0.363E-03    3.54       3.3  T
   4   -191.3085351 -0.860267E-06  0.142E-03    3.54       8.5  T
   5   -191.3085351 -0.242659E-07  0.737E-04    3.54      16.3  T
   6   -191.3085352 -0.225500E-07  0.290E-04    3.54      41.5  T
     SCC iter.                  ...        0 min,  0.044 sec
     gradient                   ...        0 min,  0.025 sec
 * total energy  :  -189.8690376 Eh     change       -0.1861137E-03 Eh
   gradient norm :     0.0035999 Eh/α   predicted     0.0000000E+00 (-100.00%)
   displ. norm   :     0.0585836 α      lambda       -0.5341251E-04
   maximum displ.:     0.0324993 α      in ANC's #3, #4, #7, ...

........................................................................
.............................. CYCLE   44 ..............................
........................................................................

 iter      E             dE          RMSdq      gap      omega  full diag
   1   -191.3084193 -0.191308E+03  0.110E-02    3.54       0.0  T
   2   -191.3084195 -0.176751E-06  0.658E-03    3.54       1.8  T
   3   -191.3084195  0.306237E-07  0.121E-03    3.54      10.0  T
   4   -191.3084196 -0.646452E-07  0.425E-04    3.54      28.3  T
   5   -191.3084196 -0.540760E-08  0.191E-04    3.54      63.1  T
     SCC iter.                  ...        0 min,  0.037 sec
     gradient                   ...        0 min,  0.035 sec
 * total energy  :  -189.8690869 Eh     change       -0.4925976E-04 Eh
   gradient norm :     0.0020634 Eh/α   predicted    -0.2824617E-04 ( -42.66%)
   displ. norm   :     0.2030953 α      lambda       -0.1404852E-03
   maximum displ.:     0.1097624 α      in ANC's #3, #4, #7, ...

........................................................................
.............................. CYCLE   45 ..............................
........................................................................

 iter      E             dE          RMSdq      gap      omega  full diag
   1   -191.3082764 -0.191308E+03  0.332E-02    3.54       0.0  T
   2   -191.3082776 -0.117379E-05  0.199E-02    3.54       1.0  T
   3   -191.3082775  0.105535E-06  0.292E-03    3.54       4.1  T
   4   -191.3082779 -0.373164E-06  0.126E-03    3.54       9.6  T
   5   -191.3082779 -0.508994E-07  0.562E-04    3.54      21.4  T
   6   -191.3082779 -0.151107E-07  0.229E-04    3.54      52.5  T
     SCC iter.                  ...        0 min,  0.046 sec
     gradient                   ...        0 min,  0.022 sec
 * total energy  :  -189.8691897 Eh     change       -0.1028575E-03 Eh
   gradient norm :     0.0022154 Eh/α   predicted    -0.7314200E-04 ( -28.89%)
   displ. norm   :     0.2127823 α      lambda       -0.8954484E-04
   maximum displ.:     0.1195925 α      in ANC's #3, #4, #7, ...

........................................................................
.............................. CYCLE   46 ..............................
........................................................................

 iter      E             dE          RMSdq      gap      omega  full diag
   1   -191.3082536 -0.191308E+03  0.314E-02    3.54       0.0  T
   2   -191.3082542 -0.596072E-06  0.188E-02    3.54       1.0  T
   3   -191.3082542  0.621677E-08  0.202E-03    3.54       6.0  T
   4   -191.3082544 -0.186369E-06  0.106E-03    3.54      11.4  T
   5   -191.3082544 -0.503858E-07  0.388E-04    3.54      31.0  T
   6   -191.3082544 -0.682226E-08  0.185E-04    3.54      65.0  T
     SCC iter.                  ...        0 min,  0.047 sec
     gradient                   ...        0 min,  0.022 sec
 * total energy  :  -189.8692622 Eh     change       -0.7250289E-04 Eh
   gradient norm :     0.0036853 Eh/α   predicted    -0.4679961E-04 ( -35.45%)
   displ. norm   :     0.2328228 α      lambda       -0.9027952E-04
   maximum displ.:     0.1339655 α      in ANC's #3, #4, #7, ...

........................................................................
.............................. CYCLE   47 ..............................
........................................................................

 iter      E             dE          RMSdq      gap      omega  full diag
   1   -191.3084272 -0.191308E+03  0.322E-02    3.54       0.0  T
   2   -191.3084275 -0.383352E-06  0.192E-02    3.54       1.0  T
   3   -191.3084276 -0.580839E-07  0.158E-03    3.54       7.6  T
   4   -191.3084277 -0.116814E-06  0.792E-04    3.54      15.2  T
   5   -191.3084277 -0.127218E-07  0.348E-04    3.54      34.6  T
     SCC iter.                  ...        0 min,  0.037 sec
     gradient                   ...        0 min,  0.022 sec
 * total energy  :  -189.8693413 Eh     change       -0.7905491E-04 Eh
   gradient norm :     0.0038248 Eh/α   predicted    -0.4758677E-04 ( -39.81%)
   displ. norm   :     0.3027336 α      lambda       -0.1210857E-03
   maximum displ.:     0.1762716 α      in ANC's #3, #4, #7, ...

........................................................................
.............................. CYCLE   48 ..............................
........................................................................

 iter      E             dE          RMSdq      gap      omega  full diag
   1   -191.3087317 -0.191309E+03  0.410E-02    3.54       0.0  T
   2   -191.3087322 -0.528140E-06  0.244E-02    3.54       1.0  T
   3   -191.3087322 -0.333415E-07  0.208E-03    3.54       5.8  T
   4   -191.3087325 -0.230966E-06  0.843E-04    3.54      14.3  T
   5   -191.3087325 -0.687857E-08  0.402E-04    3.54      29.9  T
     SCC iter.                  ...        0 min,  0.037 sec
     gradient                   ...        0 min,  0.022 sec
 * total energy  :  -189.8694474 Eh     change       -0.1061151E-03 Eh
   gradient norm :     0.0030718 Eh/α   predicted    -0.6609366E-04 ( -37.72%)
   displ. norm   :     0.3977912 α      lambda       -0.1506578E-03
   maximum displ.:     0.2331308 α      in ANC's #3, #4, #7, ...

........................................................................
.............................. CYCLE   49 ..............................
........................................................................

 iter      E             dE          RMSdq      gap      omega  full diag
   1   -191.3088625 -0.191309E+03  0.547E-02    3.54       0.0  T
   2   -191.3088634 -0.910443E-06  0.325E-02    3.54       1.0  T
   3   -191.3088635 -0.224300E-07  0.277E-03    3.54       4.3  T
   4   -191.3088639 -0.417706E-06  0.112E-03    3.54      10.7  T
   5   -191.3088639 -0.147751E-07  0.481E-04    3.54      25.0  T
   6   -191.3088639 -0.461779E-08  0.180E-04    3.54      67.1  T
     SCC iter.                  ...        0 min,  0.044 sec
     gradient                   ...        0 min,  0.022 sec
 * total energy  :  -189.8695765 Eh     change       -0.1291388E-03 Eh
   gradient norm :     0.0024430 Eh/α   predicted    -0.8725237E-04 ( -32.44%)
   displ. norm   :     0.4548962 α      lambda       -0.1535497E-03
   maximum displ.:     0.2685307 α      in ANC's #3, #4, #7, ...

........................................................................
.............................. CYCLE   50 ..............................
........................................................................

 iter      E             dE          RMSdq      gap      omega  full diag
   1   -191.3086453 -0.191309E+03  0.645E-02    3.54       0.0  T
   2   -191.3086465 -0.121996E-05  0.383E-02    3.54       1.0  T
   3   -191.3086465 -0.347287E-07  0.321E-03    3.54       3.8  T
   4   -191.3086471 -0.563777E-06  0.134E-03    3.54       9.0  T
   5   -191.3086471 -0.244626E-07  0.489E-04    3.54      24.6  T
   6   -191.3086471 -0.468145E-08  0.225E-04    3.54      53.4  T
     SCC iter.                  ...        0 min,  0.044 sec
     gradient                   ...        0 min,  0.022 sec
 * total energy  :  -189.8697052 Eh     change       -0.1286155E-03 Eh
   gradient norm :     0.0027768 Eh/α   predicted    -0.9266760E-04 ( -27.95%)
   displ. norm   :     0.4510364 α      lambda       -0.1330630E-03
   maximum displ.:     0.2699179 α      in ANC's #3, #4, #7, ...

........................................................................
.............................. CYCLE   51 ..............................
........................................................................

 iter      E             dE          RMSdq      gap      omega  full diag
   1   -191.3083774 -0.191308E+03  0.664E-02    3.54       0.0  T
   2   -191.3083786 -0.119879E-05  0.394E-02    3.54       1.0  T
   3   -191.3083787 -0.841178E-07  0.313E-03    3.54       3.9  T
   4   -191.3083792 -0.534190E-06  0.134E-03    3.54       9.0  T
   5   -191.3083793 -0.205627E-07  0.496E-04    3.54      24.3  T
   6   -191.3083793 -0.601722E-08  0.227E-04    3.54      53.1  T
     SCC iter.                  ...        0 min,  0.043 sec
     gradient                   ...        0 min,  0.022 sec
 * total energy  :  -189.8698139 Eh     change       -0.1087576E-03 Eh
   gradient norm :     0.0031913 Eh/α   predicted    -0.8006655E-04 ( -26.38%)
   displ. norm   :     0.4040160 α      lambda       -0.1030084E-03
   maximum displ.:     0.2475943 α      in ANC's #3, #4, #7, ...

........................................................................
.............................. CYCLE   52 ..............................
........................................................................

 iter      E             dE          RMSdq      gap      omega  full diag
   1   -191.3083886 -0.191308E+03  0.615E-02    3.54       0.0  T
   2   -191.3083895 -0.925321E-06  0.365E-02    3.54       1.0  T
   3   -191.3083896 -0.932561E-07  0.276E-03    3.54       4.4  T
   4   -191.3083901 -0.421040E-06  0.118E-03    3.54      10.2  T
   5   -191.3083901 -0.835092E-08  0.493E-04    3.54      24.4  T
   6   -191.3083901 -0.846600E-08  0.185E-04    3.54      65.0  T
     SCC iter.                  ...        0 min,  0.044 sec
     gradient                   ...        0 min,  0.023 sec
 * total energy  :  -189.8698970 Eh     change       -0.8312418E-04 Eh
   gradient norm :     0.0030901 Eh/α   predicted    -0.5991130E-04 ( -27.93%)
   displ. norm   :     0.3453127 α      lambda       -0.7957290E-04
   maximum displ.:     0.2187262 α      in ANC's #3, #4, #6, ...

........................................................................
.............................. CYCLE   53 ..............................
........................................................................

 iter      E             dE          RMSdq      gap      omega  full diag
   1   -191.3087368 -0.191309E+03  0.536E-02    3.54       0.0  T
   2   -191.3087375 -0.682624E-06  0.318E-02    3.54       1.0  T
   3   -191.3087376 -0.645829E-07  0.240E-03    3.54       5.0  T
   4   -191.3087379 -0.321896E-06  0.101E-03    3.54      12.0  T
   5   -191.3087379 -0.479957E-08  0.429E-04    3.54      28.0  T
   6   -191.3087379 -0.602404E-08  0.143E-04    3.54      84.3  T
     SCC iter.                  ...        0 min,  0.045 sec
     gradient                   ...        0 min,  0.022 sec
 * total energy  :  -189.8699632 Eh     change       -0.6612955E-04 Eh
   gradient norm :     0.0025314 Eh/α   predicted    -0.4453080E-04 ( -32.66%)
   displ. norm   :     0.3162890 α      lambda       -0.7567121E-04
   maximum displ.:     0.2065832 α      in ANC's #3, #4, #2, ...

........................................................................
.............................. CYCLE   54 ..............................
........................................................................

 iter      E             dE          RMSdq      gap      omega  full diag
   1   -191.3093299 -0.191309E+03  0.496E-02    3.54       0.0  T
   2   -191.3093306 -0.666077E-06  0.294E-02    3.54       1.0  T
   3   -191.3093306 -0.903060E-08  0.241E-03    3.54       5.0  T
   4   -191.3093309 -0.329417E-06  0.984E-04    3.54      12.2  T
   5   -191.3093310 -0.110043E-07  0.405E-04    3.54      29.7  T
     SCC iter.                  ...        0 min,  0.038 sec
     gradient                   ...        0 min,  0.022 sec
 * total energy  :  -189.8700294 Eh     change       -0.6620870E-04 Eh
   gradient norm :     0.0019258 Eh/α   predicted    -0.4162208E-04 ( -37.14%)
   displ. norm   :     0.5569349 α      lambda       -0.9490921E-04
   maximum displ.:     0.3667871 α      in ANC's #3, #4, #2, ...

........................................................................
.............................. CYCLE   55 ..............................
........................................................................

 iter      E             dE          RMSdq      gap      omega  full diag
   1   -191.3096756 -0.191310E+03  0.866E-02    3.54       0.0  T
   2   -191.3096778 -0.219497E-05  0.513E-02    3.54       1.0  T
   3   -191.3096777  0.184345E-06  0.455E-03    3.54       2.6  T
   4   -191.3096789 -0.126208E-05  0.182E-03    3.54       6.6  T
   5   -191.3096790 -0.460170E-07  0.700E-04    3.54      17.2  T
   6   -191.3096790 -0.143942E-07  0.347E-04    3.54      34.7  T
     SCC iter.                  ...        0 min,  0.046 sec
     gradient                   ...        0 min,  0.022 sec
 * total energy  :  -189.8701521 Eh     change       -0.1227630E-03 Eh
   gradient norm :     0.0028735 Eh/α   predicted    -0.5400131E-04 ( -56.01%)
   displ. norm   :     0.4111672 α      lambda       -0.1116830E-03
   maximum displ.:     0.2681860 α      in ANC's #3, #4, #2, ...

........................................................................
.............................. CYCLE   56 ..............................
........................................................................

 iter      E             dE          RMSdq      gap      omega  full diag
   1   -191.3098294 -0.191310E+03  0.627E-02    3.54       0.0  T
   2   -191.3098305 -0.104875E-05  0.372E-02    3.54       1.0  T
   3   -191.3098302  0.283762E-06  0.348E-03    3.54       3.5  T
   4   -191.3098311 -0.871104E-06  0.127E-03    3.54       9.5  T
   5   -191.3098311 -0.145671E-07  0.469E-04    3.54      25.7  T
   6   -191.3098311 -0.586220E-08  0.221E-04    3.54      54.4  T
     SCC iter.                  ...        0 min,  0.044 sec
     gradient                   ...        0 min,  0.022 sec
 * total energy  :  -189.8702562 Eh     change       -0.1040022E-03 Eh
   gradient norm :     0.0035478 Eh/α   predicted    -0.6528710E-04 ( -37.23%)
   displ. norm   :     0.6000405 α      lambda       -0.1779153E-03
   maximum displ.:     0.3834000 α      in ANC's #3, #4, #2, ...

........................................................................
.............................. CYCLE   57 ..............................
........................................................................

 iter      E             dE          RMSdq      gap      omega  full diag
   1   -191.3097659 -0.191310E+03  0.909E-02    3.54       0.0  T
   2   -191.3097680 -0.209316E-05  0.539E-02    3.54       1.0  T
   3   -191.3097671  0.940903E-06  0.536E-03    3.54       2.2  T
   4   -191.3097693 -0.220523E-05  0.179E-03    3.54       6.7  T
   5   -191.3097693 -0.193673E-07  0.633E-04    3.54      19.0  T
   6   -191.3097693 -0.983385E-08  0.262E-04    3.54      45.9  T
     SCC iter.                  ...        0 min,  0.043 sec
     gradient                   ...        0 min,  0.022 sec
 * total energy  :  -189.8704131 Eh     change       -0.1569409E-03 Eh
   gradient norm :     0.0041080 Eh/α   predicted    -0.1209905E-03 ( -22.91%)
   displ. norm   :     0.6925093 α      lambda       -0.1940842E-03
   maximum displ.:     0.4310102 α      in ANC's #3, #2, #4, ...

........................................................................
.............................. CYCLE   58 ..............................
........................................................................

 iter      E             dE          RMSdq      gap      omega  full diag
   1   -191.3093634 -0.191309E+03  0.104E-01    3.54       0.0  T
   2   -191.3093662 -0.275113E-05  0.614E-02    3.54       1.0  T
   3   -191.3093645  0.164398E-05  0.647E-03    3.54       1.9  T
   4   -191.3093679 -0.334302E-05  0.206E-03    3.54       5.8  T
   5   -191.3093679 -0.253832E-07  0.773E-04    3.54      15.6  T
   6   -191.3093679 -0.118872E-07  0.269E-04    3.54      44.7  T
     SCC iter.                  ...        0 min,  0.044 sec
     gradient                   ...        0 min,  0.023 sec
 * total energy  :  -189.8705700 Eh     change       -0.1568771E-03 Eh
   gradient norm :     0.0041273 Eh/α   predicted    -0.1435815E-03 (  -8.48%)
   displ. norm   :     0.5490853 α      lambda       -0.1447936E-03
   maximum displ.:     0.3158732 α      in ANC's #3, #2, #4, ...

........................................................................
.............................. CYCLE   59 ..............................
........................................................................

 iter      E             dE          RMSdq      gap      omega  full diag
   1   -191.3106982 -0.191311E+03  0.808E-02    3.55       0.0  T
   2   -191.3107001 -0.196973E-05  0.479E-02    3.55       1.0  T
   3   -191.3106982  0.190276E-05  0.599E-03    3.55       2.0  T
   4   -191.3107012 -0.302073E-05  0.175E-03    3.55       6.9  T
   5   -191.3107013 -0.257669E-07  0.822E-04    3.55      14.7  T
   6   -191.3107013 -0.160813E-07  0.368E-04    3.55      32.8  T
     SCC iter.                  ...        0 min,  0.047 sec
     gradient                   ...        0 min,  0.022 sec
 * total energy  :  -189.8706757 Eh     change       -0.1057430E-03 Eh
   gradient norm :     0.0028703 Eh/α   predicted    -0.9422687E-04 ( -10.89%)
[...]
 integral evaluation            ...        0 min,  0.007 sec ( 13.017%)
 iterations                     ...        0 min,  0.024 sec ( 43.498%)
 molecular gradient             ...        0 min,  0.022 sec ( 40.654%)
 printout                       ...        0 min,  0.001 sec (  1.080%)

         :::::::::::::::::::::::::::::::::::::::::::::::::::::
         ::                     SUMMARY                     ::
         :::::::::::::::::::::::::::::::::::::::::::::::::::::
         :: total energy            -189.870988457625 Eh    ::
         :: gradient norm              0.000474352682 Eh/a0 ::
         :: HOMO-LUMO gap              3.548405940026 eV    ::
         ::.................................................::
         :: SCC energy              -191.307475505111 Eh    ::
         :: -> isotropic ES            0.385944549572 Eh    ::
         :: -> anisotropic ES         -0.001034958549 Eh    ::
         :: -> anisotropic XC         -0.120096045917 Eh    ::
         :: -> dispersion             -0.093290039070 Eh    ::
         :: repulsion energy           1.436487047487 Eh    ::
         :: add. restraining           0.000000000000 Eh    ::
         :: total charge              -1.000000000000 e     ::
         :::::::::::::::::::::::::::::::::::::::::::::::::::::

           -------------------------------------------------
          |                Property Printout                |
           -------------------------------------------------

    * Orbital Energies and Occupations

         #    Occupation            Energy/Eh            Energy/eV
      -------------------------------------------------------------
         1        2.0000           -0.8152223             -22.1833
       ...           ...                  ...                  ...
       144        2.0000           -0.3909966             -10.6396
       145        2.0000           -0.3905078             -10.6263
       146        2.0000           -0.3803273             -10.3492
       147        2.0000           -0.3786601             -10.3039
       148        2.0000           -0.3784139             -10.2972
       149        2.0000           -0.3782909             -10.2938
       150        2.0000           -0.3726343             -10.1399
       151        2.0000           -0.3705877             -10.0842
       152        2.0000           -0.3702095             -10.0739
       153        2.0000           -0.3646574              -9.9228
       154        2.0000           -0.3377786              -9.1914
       155        2.0000           -0.3362022              -9.1485
       156        2.0000           -0.3360599              -9.1447 (HOMO)
       157                         -0.2056584              -5.5963 (LUMO)
       158                         -0.2036793              -5.5424
       159                         -0.2005810              -5.4581
       160                         -0.2003948              -5.4530
       161                         -0.1968570              -5.3568
       162                         -0.1932253              -5.2579
       163                         -0.1930297              -5.2526
       164                         -0.1921765              -5.2294
       165                         -0.0776404              -2.1127
       166                         -0.0759147              -2.0657
       167                         -0.0756464              -2.0584
       ...                                ...                  ...
       240                          0.6921975              18.8357
      -------------------------------------------------------------
                  HL-Gap            0.1304015 Eh            3.5484 eV
             Fermi-level           -0.2708592 Eh           -7.3705 eV

     #   Z          covCN         q      C6AA      α(0)
     1   9 F        0.791    -0.212    11.358     3.981
     2   6 C        3.337     0.485    17.292     6.584
     3   6 C        2.975    -0.026    28.645     8.779
     4   6 C        2.927    -0.027    28.682     8.783
     5   6 C        2.875    -0.039    28.957     8.821
     6   6 C        2.928    -0.028    28.701     8.786
     7   6 C        2.975    -0.026    28.638     8.778
     8   6 C        2.923    -0.027    28.674     8.781
     9   6 C        3.337     0.484    17.298     6.585
    10   9 F        0.791    -0.207    11.312     3.973
    11   9 F        0.791    -0.213    11.370     3.983
    12   9 F        0.791    -0.210    11.336     3.977
    13   5 B        3.570     0.133    19.611     7.298
    14   6 C        2.875    -0.038    28.953     8.821
    15   6 C        2.928    -0.027    28.667     8.781
    16   6 C        2.975    -0.026    28.650     8.780
    17   6 C        2.922    -0.027    28.687     8.783
    18   6 C        2.975    -0.026    28.639     8.778
    19   6 C        2.927    -0.028    28.709     8.787
    20   6 C        3.337     0.484    17.299     6.585
    21   9 F        0.791    -0.210    11.343     3.978
    22   9 F        0.791    -0.214    11.379     3.985
    23   9 F        0.791    -0.206    11.297     3.970
    24   6 C        3.337     0.485    17.296     6.585
    25   9 F        0.791    -0.207    11.304     3.972
    26   9 F        0.791    -0.213    11.367     3.983
    27   9 F        0.791    -0.210    11.336     3.977
    28   6 C        2.875    -0.039    28.954     8.821
    29   6 C        2.929    -0.027    28.677     8.782
    30   6 C        2.975    -0.025    28.632     8.777
    31   6 C        2.922    -0.028    28.689     8.784
    32   6 C        2.975    -0.026    28.652     8.780
    33   6 C        2.927    -0.027    28.681     8.783
    34   6 C        3.337     0.485    17.292     6.584
    35   9 F        0.791    -0.212    11.364     3.982
    36   9 F        0.791    -0.211    11.353     3.980
    37   9 F        0.791    -0.206    11.294     3.970
    38   6 C        3.337     0.484    17.296     6.584
    39   9 F        0.791    -0.209    11.324     3.975
    40   9 F        0.791    -0.213    11.367     3.983
    41   9 F        0.791    -0.209    11.327     3.976
    42   6 C        2.875    -0.039    28.956     8.821
    43   6 C        2.929    -0.027    28.682     8.783
    44   6 C        2.975    -0.026    28.636     8.778
    45   6 C        2.923    -0.027    28.686     8.783
    46   6 C        2.975    -0.026    28.651     8.780
    47   6 C        2.927    -0.028    28.689     8.784
    48   6 C        3.337     0.485    17.289     6.583
    49   9 F        0.791    -0.212    11.364     3.982
    50   9 F        0.791    -0.212    11.362     3.982
    51   9 F        0.791    -0.204    11.279     3.967
    52   6 C        3.337     0.484    17.294     6.584
    53   9 F        0.791    -0.212    11.355     3.981
    54   9 F        0.791    -0.210    11.334     3.977
    55   9 F        0.791    -0.209    11.328     3.976
    56   9 F        0.791    -0.206    11.295     3.970
    57   9 F        0.791    -0.212    11.355     3.981
    58   1 H        0.926     0.060     2.203     2.321
    59   1 H        0.926     0.057     2.240     2.340
    60   1 H        0.926     0.063     2.159     2.298
    61   1 H        0.926     0.058     2.225     2.333
    62   1 H        0.926     0.064     2.148     2.292
    63   1 H        0.926     0.058     2.226     2.333
    64   1 H        0.926     0.055     2.257     2.349
    65   1 H        0.926     0.065     2.144     2.290
    66   1 H        0.926     0.060     2.203     2.321
    67   1 H        0.926     0.055     2.262     2.352
    68   1 H        0.926     0.064     2.152     2.294
    69   1 H        0.926     0.061     2.191     2.315

 Mol. C6AA /au·bohr⁶  :      69051.844845
 Mol. C8AA /au·bohr⁸  :    1651894.978941
 Mol. α(0) /au        :        394.180832


Wiberg/Mayer (AO) data.
largest (>0.10) Wiberg bond orders for each atom

 ---------------------------------------------------------------------------
     #   Z sym  total        # sym  WBO       # sym  WBO       # sym  WBO
 ---------------------------------------------------------------------------
     1   9 F    1.066 --     2 C    0.938
     2   6 C    3.820 --    56 F    0.952     3 C    0.951    57 F    0.941
                             1 F    0.938
     3   6 C    3.971 --     4 C    1.426     8 C    1.402     2 C    0.951
     4   6 C    3.985 --     3 C    1.426     5 C    1.393    58 H    0.964
     5   6 C    3.909 --     6 C    1.416     4 C    1.393    13 B    0.886
                             8 C    0.113
     6   6 C    3.985 --     5 C    1.416     7 C    1.410    59 H    0.961
     7   6 C    3.971 --     8 C    1.417     6 C    1.410     9 C    0.951
     8   6 C    3.988 --     7 C    1.417     3 C    1.402    60 H    0.966
                             5 C    0.113
     9   6 C    3.820 --     7 C    0.951    10 F    0.948    12 F    0.946
                            11 F    0.936
    10   9 F    1.072 --     9 C    0.948
    11   9 F    1.065 --     9 C    0.936
    12   9 F    1.069 --     9 C    0.946
    13   5 B    3.658 --    42 C    0.887    14 C    0.886     5 C    0.886
                            28 C    0.886
    14   6 C    3.909 --    19 C    1.411    15 C    1.399    13 B    0.886
                            17 C    0.113
    15   6 C    3.985 --    16 C    1.420    14 C    1.399    61 H    0.965
    16   6 C    3.971 --    15 C    1.420    17 C    1.408    24 C    0.951
    17   6 C    3.988 --    18 C    1.411    16 C    1.408    62 H    0.966
                            14 C    0.113
    18   6 C    3.971 --    19 C    1.416    17 C    1.411    20 C    0.951
    19   6 C    3.985 --    18 C    1.416    14 C    1.411    63 H    0.961
    20   6 C    3.820 --    23 F    0.951    18 C    0.951    21 F    0.944
                            22 F    0.935
    21   9 F    1.068 --    20 C    0.944
    22   9 F    1.064 --    20 C    0.935
    23   9 F    1.074 --    20 C    0.951
    24   6 C    3.820 --    16 C    0.951    25 F    0.949    27 F    0.946
                            26 F    0.936
    25   9 F    1.073 --    24 C    0.949
    26   9 F    1.065 --    24 C    0.936
    27   9 F    1.069 --    24 C    0.946
    28   6 C    3.909 --    29 C    1.419    33 C    1.391    13 B    0.886
                            31 C    0.113
    29   6 C    3.985 --    28 C    1.419    30 C    1.407    64 H    0.962
    30   6 C    3.971 --    31 C    1.420    29 C    1.407    38 C    0.951
    31   6 C    3.988 --    30 C    1.420    32 C    1.399    65 H    0.965
                            28 C    0.113
    32   6 C    3.970 --    33 C    1.428    31 C    1.399    34 C    0.951
    33   6 C    3.985 --    32 C    1.428    28 C    1.391    66 H    0.964
    34   6 C    3.820 --    37 F    0.952    32 C    0.951    36 F    0.942
                            35 F    0.937
    35   9 F    1.065 --    34 C    0.937
    36   9 F    1.066 --    34 C    0.942
    37   9 F    1.075 --    34 C    0.952
    38   6 C    3.820 --    30 C    0.951    41 F    0.948    39 F    0.944
                            40 F    0.938
    39   9 F    1.070 --    38 C    0.944
    40   9 F    1.065 --    38 C    0.938
    41   9 F    1.070 --    38 C    0.948
    42   6 C    3.909 --    43 C    1.419    47 C    1.390    13 B    0.887
                            45 C    0.113
    43   6 C    3.985 --    42 C    1.419    44 C    1.407    67 H    0.962
    44   6 C    3.971 --    45 C    1.421    43 C    1.407    52 C    0.951
    45   6 C    3.988 --    44 C    1.421    46 C    1.398    68 H    0.966
                            42 C    0.113
    46   6 C    3.971 --    47 C    1.429    45 C    1.398    48 C    0.950
    47   6 C    3.985 --    46 C    1.429    42 C    1.390    69 H    0.964
    48   6 C    3.820 --    51 F    0.954    46 C    0.950    50 F    0.939
                            49 F    0.939
    49   9 F    1.065 --    48 C    0.939
    50   9 F    1.065 --    48 C    0.939
    51   9 F    1.077 --    48 C    0.954
    52   6 C    3.820 --    44 C    0.951    55 F    0.948    54 F    0.943
                            53 F    0.940
    53   9 F    1.066 --    52 C    0.940
    54   9 F    1.069 --    52 C    0.943
    55   9 F    1.070 --    52 C    0.948
    56   9 F    1.075 --     2 C    0.952
    57   9 F    1.066 --     2 C    0.941
    58   1 H    0.996 --     4 C    0.964
    59   1 H    0.996 --     6 C    0.961
    60   1 H    0.995 --     8 C    0.966
    61   1 H    0.996 --    15 C    0.965
    62   1 H    0.995 --    17 C    0.966
    63   1 H    0.996 --    19 C    0.961
    64   1 H    0.996 --    29 C    0.962
    65   1 H    0.995 --    31 C    0.965
    66   1 H    0.996 --    33 C    0.964
    67   1 H    0.997 --    43 C    0.962
    68   1 H    0.995 --    45 C    0.966
    69   1 H    0.996 --    47 C    0.964
 ---------------------------------------------------------------------------

Topologies differ in total number of bonds
Writing topology from bond orders to xtbtopo.mol

molecular dipole:
                 x           y           z       tot (Debye)
 q only:       -5.474       5.160      -8.458
   full:       -5.469       5.157      -8.465      28.775
molecular quadrupole (traceless):
                xx          xy          yy          xz          yz          zz
 q only:       17.561      41.232      27.017     -65.974      66.399     -44.578
  q+dip:       17.903      41.431      26.467     -66.833      66.338     -44.370
   full:       17.726      41.261      26.911     -66.183      66.404     -44.637

           -------------------------------------------------
          |                Geometry Summary                 |
           -------------------------------------------------

      molecular mass/u    :      863.2115417
   center of mass at/Å    :        2.8937923      -2.7432579       4.4438001
  moments of inertia/u·Å² :        0.1355987E+05   0.1409111E+05   0.1415672E+05
rotational constants/cm⁻¹ :        0.1243201E-02   0.1196331E-02   0.1190787E-02

 * 60 selected distances

     #   Z          #   Z                                           value/Å
     1   9 F        2   6 C                                       1.3492952
     3   6 C        4   6 C                                       1.3860070
     4   6 C        5   6 C                                       1.3965383
     5   6 C        6   6 C                                       1.3911901
     6   6 C        7   6 C                                       1.3893923
     3   6 C        8   6 C                                       1.3884064
     7   6 C        8   6 C                                       1.3853476
     9   6 C       10   9 F                                       1.3426199
     9   6 C       11   9 F                                       1.3499201
     9   6 C       12   9 F                                       1.3441143
    14   6 C       15   6 C                                       1.3954091
    15   6 C       16   6 C                                       1.3876239
    16   6 C       17   6 C                                       1.3869095
    17   6 C       18   6 C                                       1.3867427
    14   6 C       19   6 C                                       1.3921572
    18   6 C       19   6 C                                       1.3881940
    20   6 C       21   9 F                                       1.3453534
    20   6 C       22   9 F                                       1.3507538
    20   6 C       23   9 F                                       1.3406441
    24   6 C       25   9 F                                       1.3418914
    24   6 C       26   9 F                                       1.3499264
    24   6 C       27   9 F                                       1.3443061
    28   6 C       29   6 C                                       1.3906695
    29   6 C       30   6 C                                       1.3901687
    30   6 C       31   6 C                                       1.3844937
    31   6 C       32   6 C                                       1.3888955
    28   6 C       33   6 C                                       1.3967902
    32   6 C       33   6 C                                       1.3857600
    34   6 C       35   9 F                                       1.3499516
    34   6 C       36   9 F                                       1.3466504
    34   6 C       37   9 F                                       1.3397186
    38   6 C       39   9 F                                       1.3450379
    38   6 C       40   9 F                                       1.3489544
    38   6 C       41   9 F                                       1.3426622
    42   6 C       43   6 C                                       1.3906614
    43   6 C       44   6 C                                       1.3901811
    44   6 C       45   6 C                                       1.3842166
    45   6 C       46   6 C                                       1.3892832
    42   6 C       47   6 C                                       1.3971203 (max)
    46   6 C       47   6 C                                       1.3855777
    48   6 C       49   9 F                                       1.3488067
    48   6 C       50   9 F                                       1.3486517
    48   6 C       51   9 F                                       1.3384885
    52   6 C       53   9 F                                       1.3479225
    52   6 C       54   9 F                                       1.3459139
    52   6 C       55   9 F                                       1.3426135
     2   6 C       56   9 F                                       1.3397525
     2   6 C       57   9 F                                       1.3471775
     4   6 C       58   1 H                                       1.0799072
     6   6 C       59   1 H                                       1.0794036
     8   6 C       60   1 H                                       1.0789540
    15   6 C       61   1 H                                       1.0801467
    17   6 C       62   1 H                                       1.0788790
    19   6 C       63   1 H                                       1.0792728
    29   6 C       64   1 H                                       1.0796594
    31   6 C       65   1 H                                       1.0788440 (min)
    33   6 C       66   1 H                                       1.0799640
    43   6 C       67   1 H                                       1.0796554
    45   6 C       68   1 H                                       1.0789109
    47   6 C       69   1 H                                       1.0799114

 * 3 distinct bonds (by element types)

   Z      Z             #   av. dist./Å        max./Å        min./Å
   1 H    6 C          12     1.0794590     1.0801467     1.0788440
   6 C    6 C          24     1.3894890     1.3971203     1.3842166
   6 C    9 F          24     1.3454636     1.3507538     1.3384885


optimized geometry written to: xtbopt.xyz


           -------------------------------------------------
          | TOTAL ENERGY             -189.870988457625 Eh   |
          | GRADIENT NORM               0.000474352682 Eh/α |
          | HOMO-LUMO GAP               3.548405940026 eV   |
           -------------------------------------------------

------------------------------------------------------------------------
 * finished run on 2024/12/20 at 01:53:20.549     
------------------------------------------------------------------------
 total:
 * wall-time:     0 d,  0 h,  0 min,  6.441 sec
 *  cpu-time:     0 d,  0 h,  0 min, 50.186 sec
 * ratio c/w:     7.792 speedup
 SCF:
 * wall-time:     0 d,  0 h,  0 min,  0.122 sec
 *  cpu-time:     0 d,  0 h,  0 min,  0.976 sec
 * ratio c/w:     7.979 speedup
 ANC optimizer:
 * wall-time:     0 d,  0 h,  0 min,  6.293 sec
 *  cpu-time:     0 d,  0 h,  0 min, 49.019 sec
 * ratio c/w:     7.790 speedup

