27
 energy: -46.661213855614 gnorm: 0.069332704029 xtb: 6.7.1 (edcfbbe)
Cl           2.61070000000000       -0.41627000000000        0.46663000000000
C            0.91198000000000       -0.52147000000000        0.20603000000000
C            0.24579000000000        0.50444000000000       -0.46307000000000
C           -1.13675000000000        0.42148000000000       -0.72815000000000
C           -1.84500000000000       -0.69015000000000       -0.24818000000000
O           -3.16509000000000       -0.96723000000000       -0.46776000000000
C           -4.14094000000000        0.01787000000000       -0.09697000000000
C           -4.24751000000000        0.25046000000000        1.41433000000000
C           -3.66273000000000        1.58906000000000        1.86266000000000
C           -4.31518000000000        2.83278000000000        1.24794000000000
O           -3.64067000000000        3.89458000000000        1.37954000000000
O           -5.42543000000000        2.65606000000000        0.67774000000000
C           -1.15772000000000       -1.72204000000000        0.40932000000000
C            0.21562000000000       -1.64176000000000        0.63923000000000
C           -1.76025000000000        1.53643000000000       -1.51678000000000
H            0.80695000000000        1.37256000000000       -0.80213000000000
H           -4.04198000000000        0.92931000000000       -0.68470000000000
H           -5.09436000000000       -0.41802000000000       -0.42108000000000
H           -5.30935000000000        0.23652000000000        1.69270000000000
H           -3.76646000000000       -0.56231000000000        1.96972000000000
H           -3.77984000000000        1.67574000000000        2.95005000000000
H           -2.58741000000000        1.61362000000000        1.65605000000000
H           -1.70781000000000       -2.59906000000000        0.74176000000000
H            0.72736000000000       -2.45244000000000        1.14784000000000
H           -2.24096000000000        2.25527000000000       -0.84846000000000
H           -1.00545000000000        2.07939000000000       -2.09670000000000
H           -2.48172000000000        1.14722000000000       -2.24126000000000
27
 energy: -46.666242509598 gnorm: 0.028772332810 xtb: 6.7.1 (edcfbbe)
Cl           2.59943560848963       -0.40784309038529        0.46968381145784
C            0.89747176000347       -0.51998336940867        0.20460749746153
C            0.23507846823390        0.49891987719913       -0.45910621660164
C           -1.13473295423084        0.42883060941987       -0.71568563843449
C           -1.84393032431181       -0.68523880266538       -0.24471586889889
O           -3.16496424555345       -0.95024521329060       -0.46999919957080
C           -4.16300556199980        0.00823495595866       -0.09365916148737
C           -4.24946827881858        0.25026578641078        1.41535999607460
C           -3.64003750618196        1.57661473988692        1.86427765095901
C           -4.30596462440095        2.82886521217747        1.21934770493429
O           -3.65309783644565        3.88369125181209        1.34771850801535
O           -5.41367277579083        2.66130097364138        0.67391214130221
C           -1.15265551372269       -1.71001347370672        0.41016799320630
C            0.20997853545997       -1.63999902192082        0.63484379841559
C           -1.75922988129440        1.53610787119831       -1.50955045920545
H            0.79329664619462        1.35933534176058       -0.80236338454570
H           -4.03800807437643        0.95160255027797       -0.62584721249403
H           -5.09693689563821       -0.44301641392752       -0.45032045866119
H           -5.30755364860467        0.25117652211921        1.69172683670747
H           -3.76341989896665       -0.57930584091036        1.94174563739639
H           -3.75767801409106        1.67228471289142        2.95043555523996
H           -2.56549667871666        1.60305149138068        1.65484327464893
H           -1.70631106946444       -2.57758634514757        0.73967475906618
H            0.72365408813361       -2.44412092899221        1.14323981450897
H           -2.25425680066996        2.25025122645468       -0.85008120472464
H           -0.99541468782874        2.07472112779545       -2.07398827876995
H           -2.48728983540742        1.14413824997060       -2.21996789600047
27
 energy: -46.667108533426 gnorm: 0.017518453807 xtb: 6.7.1 (edcfbbe)
Cl           2.59382048642232       -0.39937191830391        0.47458888621370
C            0.88708120828307       -0.51605605186567        0.20750582512741
C            0.22845924090243        0.49951458594864       -0.45522941525342
C           -1.13441398931411        0.43854329782090       -0.70623378566407
C           -1.84595330069610       -0.67835803863420       -0.24187070170030
O           -3.16595772546625       -0.93073615203425       -0.47377843317278
C           -4.17435251557655        0.01250053621139       -0.09005373845407
C           -4.25326465461748        0.23910945277136        1.42226953949196
C           -3.62125061123946        1.55541028887957        1.86351441864606
C           -4.30643808804164        2.82809237945795        1.21791353200064
O           -3.62981485121513        3.86400034364113        1.27737327652805
O           -5.38752463509354        2.65114209637297        0.64395356707701
C           -1.15376197123212       -1.69909625910723        0.41279398281531
C            0.20404348101252       -1.63704073812660        0.63678128342746
C           -1.76340358298739        1.54202351179260       -1.49867517256273
H            0.78603226934668        1.35603886419549       -0.80056841851074
H           -4.04890427643872        0.97578198184785       -0.58757979750859
H           -5.09140538774752       -0.45395069336822       -0.46220414192580
H           -5.30741035767461        0.26263151895060        1.70194024036764
H           -3.77380852690101       -0.60792331889995        1.92960593752339
H           -3.73141903528879        1.65894214306034        2.94803207004876
H           -2.54943379916142        1.58163074000100        1.64243244118214
H           -1.71461294660408       -2.56027875396572        0.73816466808594
H            0.72020014022175       -2.43843854266026        1.14192214329617
H           -2.26935904278561        2.25160378065358       -0.84283468407733
H           -0.99760485685408        2.08136330910525       -2.05310955742684
H           -2.49375267125315        1.14496163625551       -2.20035396557502
27
 energy: -46.667668693089 gnorm: 0.013460628181 xtb: 6.7.1 (edcfbbe)
Cl           2.59209077035486       -0.39307059667724        0.47996501137508
C            0.88155204159283       -0.51154686392691        0.21232952181518
C            0.22517560884376        0.50436317745388       -0.45049906796477
C           -1.13623517034159        0.44735234526290       -0.69915821629462
C           -1.84920854226647       -0.67235826404988       -0.23871082294684
O           -3.16656502298068       -0.91963904720332       -0.47809506843344
C           -4.18044477970585        0.01466791823294       -0.08888908431585
C           -4.25695605562327        0.22835915632147        1.42658899759779
C           -3.60154475994781        1.53594760540127        1.85410684243886
C           -4.27197833868697        2.81428511040153        1.16350176156848
O           -3.61168095295399        3.85270949815097        1.24648244366245
O           -5.38375431741881        2.64573919778012        0.65267062600898
C           -1.15742753534438       -1.69188991048753        0.41632409799246
C            0.19985069280555       -1.63351078805457        0.64174675631245
C           -1.76977736342366        1.54980741838685       -1.48800408605237
H            0.78365840331132        1.35978568766087       -0.79650184303571
H           -4.06546364234727        0.98542309311590       -0.57175116441265
H           -5.08847337749390       -0.46088091477428       -0.46444456183662
H           -5.30937274593615        0.27430011081772        1.70790658374853
H           -3.79168541511923       -0.63005839498592        1.92912826050395
H           -3.71070291307804        1.66100889905101        2.93639822376772
H           -2.53152283053093        1.54872764542640        1.62840718434112
H           -1.72406593043275       -2.55060490510565        0.73845442397649
H            0.71760947197587       -2.43413521032617        1.14491587757729
H           -2.28176840264552        2.25535824388558       -0.83162324248724
H           -1.00604831608549        2.09334935098769       -2.03806225449080
H           -2.49947057652148        1.14855043725455       -2.18688720041597
27
 energy: -46.668106410692 gnorm: 0.004730969503 xtb: 6.7.1 (edcfbbe)
Cl           2.59202877580402       -0.39117437139079        0.48321568883829
C            0.88101512940685       -0.50765351726634        0.21626441402137
C            0.22453520803331        0.51150908636906       -0.44573155949218
C           -1.13973682751900        0.45238611247027       -0.69601349944759
C           -1.85228705751905       -0.66855801803517       -0.23640716957547
O           -3.16721541070359       -0.92129255157056       -0.48151218571618
C           -4.18427015402840        0.00953232834595       -0.09123752182521
C           -4.25908952156813        0.22765063113473        1.42382556546507
C           -3.59449615865236        1.52974580456586        1.85232636701780
C           -4.26039853302913        2.80905290058105        1.16119117764278
O           -3.57629361865780        3.83944528460423        1.21516287927689
O           -5.37819177970424        2.64028860231428        0.65624272330199
C           -1.16135787084757       -1.68987134391292        0.41829390380415
C            0.19798222588307       -1.62958983631251        0.64563757403063
C           -1.77472198479585        1.55647012521959       -1.48202270978959
H            0.78452864069074        1.36807378284723       -0.79054563221150
H           -4.07849434530464        0.97501087297638       -0.58138742081668
H           -5.09471970608414       -0.46639870654146       -0.46106006583347
H           -5.31182274287630        0.27889811391201        1.70546974389398
H           -3.80324298732357       -0.63262752828574        1.92997392162925
H           -3.69740099295725        1.66070778104734        2.93448264556615
H           -2.52563145194987        1.53190653882828        1.62044812452355
H           -1.72795522291837       -2.55067834241173        0.73952844310520
H            0.71520594967436       -2.43084532343725        1.15002126370472
H           -2.28573129052200        2.25950282899850       -0.82177823582590
H           -1.01419499404368        2.10509824910373       -2.03351743022182
H           -2.50225327848746        1.15545049584625       -2.18457100506630
27
 energy: -46.668526663668 gnorm: 0.010853691797 xtb: 6.7.1 (edcfbbe)
Cl           2.58864178632449       -0.38450949528078        0.48980137411242
C            0.87553158953410       -0.49726456626721        0.22541559350824
C            0.22031797822906        0.52509001014315       -0.43649144498048
C           -1.14575965790052        0.46374164153738       -0.68944826428214
C           -1.85766651836485       -0.65974316777269       -0.23292980236733
O           -3.16846349569843       -0.91979497705215       -0.48960533558903
C           -4.19407475351325       -0.00024366470656       -0.09468704547346
C           -4.26575506904837        0.22121490261021        1.41976361099708
C           -3.57568552671877        1.51035270964898        1.84339624314176
C           -4.22704096348119        2.79630694955153        1.14460968666465
O           -3.50129364249751        3.80548577869968        1.14696668847654
O           -5.35911315556432        2.63782022602677        0.66424933844080
C           -1.16884491705073       -1.68094409536049        0.42486389746853
C            0.19169969548866       -1.61824394901346        0.65613543057371
C           -1.78482932926555        1.57039644860577       -1.46847633324700
H            0.78226640169763        1.38235377422080       -0.77945316012461
H           -4.10554116930784        0.96287504608679       -0.59042063130200
H           -5.10430723402214       -0.48487907199543       -0.45573621331480
H           -5.31907017090358        0.29397602342013        1.69890660360433
H           -3.83251483893177       -0.64807234587046        1.93001112428278
H           -3.67081873533807        1.65303451040775        2.92402730464731
H           -2.50858093667028        1.49021632228807        1.60428678832268
H           -1.73605377814894       -2.54315815082659        0.74510801549262
H            0.70819472451421       -2.41943379270053        1.16271232038206
H           -2.29681636955252        2.26728014617453       -0.80177434957121
H           -1.02907563023989        2.12810431709397       -2.01944487735344
H           -2.50955628356976        1.17007847033119       -2.17548656251008
27
 energy: -46.668923369820 gnorm: 0.015199704289 xtb: 6.7.1 (edcfbbe)
Cl           2.58289291182625       -0.37467060041777        0.49714722345390
C            0.86802452753691       -0.48468606456631        0.23505552826197
C            0.21382529767970        0.53904161646940       -0.42757158109229
C           -1.15284505134166        0.47547319018592       -0.68292543723570
C           -1.86329311850333       -0.65080933544670       -0.22991926186451
O           -3.17016050599955       -0.91921475342783       -0.49913509203124
C           -4.20590673003773       -0.01342432885759       -0.09998594523000
C           -4.27319876765068        0.21443643196864        1.41302053013956
C           -3.55399469260239        1.48827894039364        1.83184935604161
C           -4.18341412199877        2.78226603721839        1.12349102559383
O           -3.42125881440469        3.76627408568607        1.08548583666786
O           -5.32928253051708        2.64411270988334        0.66931811027626
C           -1.17650483950766       -1.66978267636928        0.43342602807297
C            0.18424528705730       -1.60416700420853        0.66869119797769
C           -1.79608225786981        1.58482896781775       -1.45419925425451
H            0.77667682604076        1.39695230277858       -0.76855710832095
H           -4.13620949807622        0.94785254854757       -0.60253445999514
H           -5.11378909788997       -0.51198136480154       -0.45115298199639
H           -5.32664581484992        0.31493855945116        1.68786731039275
H           -3.86643744405815       -0.66473352125366        1.92893549514056
H           -3.64704840596746        1.64096126531068        2.91048023194843
H           -2.48770272065245        1.44348349398443        1.59256718843113
H           -1.74361631411749       -2.53239301679783        0.75433325837263
H            0.69985434799357       -2.40385413488693        1.17931481043097
H           -2.30856799847170        2.27539146535710       -0.78066053042949
H           -1.04430762957481        2.15078409804040       -2.00352713389158
H           -2.51946284404317        1.18668108794145       -2.16451434486041
27
 energy: -46.669563528893 gnorm: 0.013831758704 xtb: 6.7.1 (edcfbbe)
Cl           2.57244619247613       -0.35747790360800        0.50791211298505
C            0.85622344908691       -0.46594813083871        0.24805370155612
C            0.20245865205519        0.55730229425722       -0.41630656194833
C           -1.16369306208970        0.49026317848328       -0.67500439906745
C           -1.87076565832729       -0.64017442472820       -0.22721922916636
O           -3.17304987389933       -0.92043855459623       -0.51286857357831
C           -4.22283530998492       -0.03463960290376       -0.10842030714248
C           -4.28319861899921        0.20620428027499        1.40143047318376
C           -3.52421159630131        1.45820442250383        1.81478853079100
C           -4.11577017190819        2.76334346808255        1.09298870007490
O           -3.31418566666572        3.71145363790524        1.01651284197400
O           -5.27486180420618        2.66187813438317        0.66672442843999
C           -1.18623816604549       -1.65412778667442        0.44542244064146
C            0.17371052490364       -1.58359862685020        0.68627845461385
C           -1.81213026933118        1.60367745113417       -1.43491729069323
H            0.76481410486163        1.41649300907775       -0.75438989146559
H           -4.18001866950271        0.92405011235452       -0.62256677354174
H           -5.12540290809633       -0.55710672698535       -0.44428912686358
H           -5.33564557774276        0.34804387547746        1.66851591114991
H           -3.91400475140208       -0.68514701224903        1.92677100338666
H           -3.62195095498670        1.62105301348451        2.89063205709813
H           -2.45787507207776        1.37963380386245        1.58467795879375
H           -1.75194657492546       -2.51673098631836        0.76853803366058
H            0.68825505444699       -2.37999916980102        1.20355613950833
H           -2.32352899679814        2.28621149960041       -0.75148872169656
H           -1.06456879434817        2.17881515155310       -1.98125995744937
H           -2.53623548019218        1.21080159311937       -2.14777195524457
27
 energy: -46.670254066383 gnorm: 0.011892819575 xtb: 6.7.1 (edcfbbe)
Cl           2.55566311435603       -0.32773013392998        0.52801238949493
C            0.84032379538723       -0.44132600775693        0.26482386040148
C            0.18511461410131        0.57814853959136       -0.40198497569439
C           -1.17840922789936        0.50563251685585       -0.66647894398497
C           -1.87958730276037       -0.63107259501013       -0.22668858904792
O           -3.17790837859236       -0.92373905123591       -0.52886007124702
C           -4.24345930803714       -0.06190089980786       -0.11825792542498
C           -4.29631547797060        0.19713080951571        1.38711792033051
C           -3.49290840577921        1.42314873504223        1.79565448293918
C           -4.02851717287938        2.74128589601638        1.05502739124517
O           -3.18204265158519        3.64419915608806        0.93535519242721
O           -5.20366952197876        2.69640670955244        0.66304166709454
C           -1.19578653798058       -1.63778616061663        0.45575188441152
C            0.16164559815111       -1.55972784354835        0.70495755051918
C           -1.83099007543508        1.62382327148252       -1.41338989716667
H            0.74369850632418        1.44089959189768       -0.73467149575971
H           -4.23115600475150        0.89391697525889       -0.64548691044754
H           -5.13587555006708       -0.61543979551751       -0.43699766424929
H           -5.34422050966864        0.38632217225716        1.64391545194379
H           -3.96739416618370       -0.70395760571829        1.92317395285177
H           -3.59912653541697        1.59690055950971        2.86939251506486
H           -2.42665419225803        1.30411224452558        1.58183980436585
H           -1.75825799623680       -2.50107283283242        0.77995481340230
H            0.67603055003695       -2.35102617743377        1.22971183866472
H           -2.33781769512424        2.29904093546356       -0.71829482954987
H           -1.08616373008877        2.20572965876198       -1.95516459099480
H           -2.56042573766351        1.24012133158966       -2.12515482158993
27
 energy: -46.670633521311 gnorm: 0.007203420909 xtb: 6.7.1 (edcfbbe)
Cl           2.53921668458821       -0.29646775638373        0.55367921732913
C            0.82807821215231       -0.42255674353901        0.27880317135264
C            0.16993275769428        0.59076383034952       -0.39165525457972
C           -1.19004064967730        0.51120692261406       -0.66496423807329
C           -1.88558915837842       -0.63028465554524       -0.23060567852164
O           -3.18344325717329       -0.92852861970273       -0.53780451271473
C           -4.25535406119734       -0.07908658646063       -0.12427698497368
C           -4.30455893833561        0.19431240095736        1.37755050418388
C           -3.47827231091895        1.40385183078837        1.78678599161206
C           -3.96983703774962        2.72580051800677        1.03589994497657
O           -3.10134923971295        3.59644355072249        0.89625520222851
O           -5.14533384329630        2.72897501090765        0.65429257891496
C           -1.20017558933952       -1.63164136927005        0.45627962246074
C            0.15418897230857       -1.54562658859267        0.71434643754524
C           -1.84154594693545        1.63152974083182       -1.40637537952649
H            0.72240983940725        1.45911607825759       -0.71768843505296
H           -4.25823508123487        0.87334204508240       -0.66011812961240
H           -5.13941103468186       -0.65066616801713       -0.43184122238113
H           -5.34630254420547        0.40968958084454        1.62593242683805
H           -3.99622835546763       -0.70660004868488        1.92157009160594
H           -3.59592646763859        1.58050497509136        2.85970727264672
H           -2.41253345073558        1.26149079056529        1.59175265978734
H           -1.75853535068104       -2.49734397247981        0.77850533172841
H            0.66973922483509       -2.33263873527493        1.24336612730022
H           -2.33680087996022        2.30856233081989       -0.70403392888688
H           -1.09659171918934        2.21070661625511       -1.94806276779109
H           -2.58171077447689        1.25718502185772       -2.11100004839647
27
 energy: -46.670615316513 gnorm: 0.023246875317 xtb: 6.7.1 (edcfbbe)
Cl           2.52172173709969       -0.25614384435412        0.59163354536733
C            0.81616707994060       -0.39966141945015        0.29805162877778
C            0.15509507212103        0.60656308117324       -0.37771238841313
C           -1.20096317980469        0.51820108679905       -0.66347135320025
C           -1.89133165527934       -0.62810804793094       -0.23417557060030
O           -3.18885154780756       -0.93110779717818       -0.54605789944568
C           -4.26853240687646       -0.09445151862604       -0.12973223236945
C           -4.32178932867939        0.18753269450248        1.36991395499049
C           -3.46775256342388        1.37907209329654        1.77976192286513
C           -3.90891207495742        2.70721496026686        1.01752284422722
O           -2.98725982477076        3.53260818305249        0.81717726011155
O           -5.10791277440110        2.77523754882571        0.68561588941388
C           -1.20319417579265       -1.62489491887473        0.45498131860475
C            0.14776804500860       -1.52989907986763        0.72473958698468
C           -1.84890736696456        1.63838752959891       -1.40428035964505
H            0.70085408867384        1.48145186136930       -0.69649986642075
H           -4.28326395737841        0.85712736843733       -0.66794571204358
H           -5.14249873277448       -0.68128827360017       -0.43214029530312
H           -5.35837732434856        0.43305178065381        1.60634735104360
H           -4.03676461602299       -0.71665757429881        1.92028946439174
H           -3.58841282615478        1.56371076259050        2.85259673329633
H           -2.40433059419848        1.20634278488986        1.59493081326931
H           -1.75756980406348       -2.49465528586583        0.77177830461289
H            0.66517274774949       -2.31259131465564        1.25732432004052
H           -2.32799529123709        2.32281802813032       -0.69655799824686
H           -1.10322116268857        2.20973555205025       -1.95041767949474
H           -2.60314756296923        1.27244375906694       -2.09737358281430
27
 energy: -46.671062568867 gnorm: 0.007988905541 xtb: 6.7.1 (edcfbbe)
Cl           2.52316614278103       -0.25494670620550        0.60059254733912
C            0.82040216632281       -0.40486575311144        0.29723964388345
C            0.15931894310137        0.60000582081519       -0.38066895930832
C           -1.19631484950391        0.50991967993290       -0.67051934379219
C           -1.88823522432474       -0.63399678375960       -0.23725569973600
O           -3.18853144417140       -0.93095091461850       -0.53934551804887
C           -4.26002923565750       -0.08223696994998       -0.12658792973536
C           -4.31933387467803        0.19234011794937        1.37529976220223
C           -3.48084147237377        1.39246512057289        1.79073794144702
C           -3.93839493152731        2.71262507882809        1.03717931866962
O           -3.03742838919047        3.55155173897721        0.85383458904590
O           -5.12788525057380        2.76738438382332        0.69375504031879
C           -1.19840354122549       -1.63341077699680        0.44677284444665
C            0.15235435403129       -1.53854884741302        0.71737040920983
C           -1.83921695624494        1.62570414533896       -1.42198035698250
H            0.70414734517392        1.47588545201580       -0.69924459659431
H           -4.25865511551780        0.87097025134406       -0.65749015031530
H           -5.13762470033990       -0.65440835654023       -0.43732396722137
H           -5.35761910990320        0.42358090364999        1.61199153648294
H           -4.02206417971311       -0.70924229716007        1.92227594847606
H           -3.60253689732785        1.57175481473953        2.86437751698503
H           -2.41763223574977        1.23328493954272        1.60356142919800
H           -1.75286392053361       -2.50506446454251        0.75969651314035
H            0.67072938592199       -2.32265079790921        1.24676225444480
H           -2.31005139849402        2.32197391802320       -0.71965081411376
H           -1.09166530439134        2.18564185832000       -1.97762716639920
H           -2.59900030589107        1.25727444433492       -2.10745279304259
27
 energy: -46.671274891222 gnorm: 0.006692139910 xtb: 6.7.1 (edcfbbe)
Cl           2.51630963576740       -0.23579119082673        0.62791599939412
C            0.81789801311161       -0.39742427680103        0.30703974167666
C            0.15681008381204        0.60447823350557       -0.37545654230165
C           -1.19746030077690        0.50932378762929       -0.67384565642074
C           -1.88868753727271       -0.63472721373647       -0.23933320450292
O           -3.19010134403327       -0.93014354720469       -0.53800198768641
C           -4.25954799300426       -0.07726957514485       -0.12761975540545
C           -4.32594128022190        0.19220338753003        1.37603748646584
C           -3.48089118375162        1.38779338566581        1.79727834065536
C           -3.92949970667393        2.70519516704044        1.04081840483464
O           -3.02190462118841        3.53177006843711        0.83700854696632
O           -5.12095749038348        2.77578666597509        0.71467348082618
C           -1.19699634106631       -1.63507248482598        0.44167959388053
C            0.15241103858156       -1.53654923200359        0.71831202550966
C           -1.83736439431960        1.62087424683476       -1.43393458620537
H            0.69931701249568        1.48292772572186       -0.69184877871184
H           -4.25114348414416        0.87860163640176       -0.65246566814472
H           -5.13766525685005       -0.64437437276811       -0.44424325350960
H           -5.36522206192734        0.43177775641105        1.60605573566891
H           -4.03802014900632       -0.71387927043982        1.92357093453920
H           -3.60899857981446        1.56783807788724        2.87016049972528
H           -2.41747382540095        1.22113455015920        1.61488154862987
H           -1.75037560261724       -2.51033050616461        0.74823462152705
H            0.67225965487018       -2.32067194657070        1.24628438601932
H           -2.29242651485175        2.33278244834156       -0.73397740570717
H           -1.09013948419410        2.16474496638117       -2.00696859635949
H           -2.60839828714035        1.25104151256599       -2.10595591136349
27
 energy: -46.671653844142 gnorm: 0.014298738098 xtb: 6.7.1 (edcfbbe)
Cl           2.49693792395269       -0.18795126606583        0.70067096324431
C            0.80961149896616       -0.37695860088133        0.33467101927787
C            0.15026195826712        0.61781105930649       -0.36022790747633
C           -1.19970122406471        0.50893377147746       -0.68162125822690
C           -1.88962479072216       -0.63541877312645       -0.24511445803160
O           -3.19335152106524       -0.92832736811095       -0.53635009631448
C           -4.25726725204413       -0.06370461117112       -0.13296690145711
C           -4.34105574950337        0.19094267061686        1.37488591001701
C           -3.48195819479104        1.37223761546949        1.81293172798011
C           -3.90709080332622        2.68678511607319        1.05073975351190
O           -2.97367562290328        3.47079787537685        0.77883191512241
O           -5.11461779664322        2.80918246181154        0.79227760929100
C           -1.19451133319518       -1.63754995641651        0.43077187520875
C            0.15092297218441       -1.52904528464038        0.72377826841560
C           -1.83283101598876        1.60814356031922       -1.46531074744405
H            0.68774950892596        1.50202247008181       -0.67069096823681
H           -4.22880246227137        0.89999585903298       -0.64162453661488
H           -5.13940801403792       -0.61511918062259       -0.46766098982562
H           -5.37968478578177        0.44599039678288        1.59174268273091
H           -4.07580493503234       -0.72326561203112        1.92116888749897