13
 energy: -26.159877674055 gnorm: 0.077834122304 xtb: 6.7.1 (edcfbbe)
C            0.97449000000000        0.07986000000000        0.05121000000000
C            0.20336000000000       -1.11646000000000        0.55478000000000
C            0.57052000000000       -1.76811000000000        1.73683000000000
C           -0.16883000000000       -2.86227000000000        2.15824000000000
N           -1.24048000000000       -3.35636000000000        1.49759000000000
C           -1.57813000000000       -2.71175000000000        0.35764000000000
C           -0.90246000000000       -1.61071000000000       -0.14495000000000
O            0.56876000000000        0.61428000000000       -1.02806000000000
O            1.96886000000000        0.45859000000000        0.74615000000000
H            1.42288000000000       -1.41676000000000        2.31072000000000
H            0.09472000000000       -3.38554000000000        3.07160000000000
H           -2.43892000000000       -3.11502000000000       -0.16572000000000
H           -1.22121000000000       -1.13425000000000       -1.06728000000000
13
 energy: -26.163353272664 gnorm: 0.034296130294 xtb: 6.7.1 (edcfbbe)
C            0.98113990755202        0.09017350959852        0.04687288365895
C            0.20309519603416       -1.11686568102657        0.55494839090744
C            0.56333378659000       -1.76979939717063        1.73059926511050
C           -0.17553523078748       -2.85997694049918        2.14793931979779
N           -1.23203845186169       -3.34326582107316        1.49207976360257
C           -1.56955244761953       -2.71114493507479        0.36672239528201
C           -0.89826441230361       -1.61366619883190       -0.13676285878933
O            0.57353589780292        0.60843232394588       -1.01605015732166
O            1.95773660508334        0.45460028928106        0.73827145507379
H            1.41303522247481       -1.41509180389685        2.29720861005549
H            0.07921939619532       -3.39066072828595        3.05970712681875
H           -2.43159757082099       -3.12258545753302       -0.14848569872289
H           -1.21054789833927       -1.13464915943340       -1.05430049547340
13
 energy: -26.164154247179 gnorm: 0.012596462716 xtb: 6.7.1 (edcfbbe)
C            0.99025774453252        0.10430438043090        0.04092759815583
C            0.20158200335285       -1.11921064507816        0.55593312881593
C            0.56066701264764       -1.77195769012246        1.72992559917329
C           -0.17898045215066       -2.86149935399396        2.14569359250254
N           -1.22765973497349       -3.33647320802870        1.48922072097185
C           -1.56837193147091       -2.71313461526449        0.37044798151550
C           -0.89850592841547       -1.61602020278594       -0.13418844865257
O            0.57491667748162        0.60732290143424       -1.01325725069665
O            1.95522180308374        0.45396252451398        0.73621218347155
H            1.41048185472518       -1.41191040294657        2.29045334914176
H            0.07048184862974       -3.39732627617507        3.05755709480116
H           -2.43208146728421       -3.13022521785495       -0.14031503366375
H           -1.20444943015858       -1.13233219412882       -1.04986051553643
13
 energy: -26.164324322000 gnorm: 0.006531768257 xtb: 6.7.1 (edcfbbe)
C            0.99520348818427        0.11199764977887        0.03770352164915
C            0.20003056441687       -1.12160868169490        0.55694492283180
C            0.56074838268366       -1.77305152193982        1.73132017742664
C           -0.17917803103989       -2.86313893055799        2.14746066845767
N           -1.22764316697643       -3.33645209210415        1.48920942574849
C           -1.57020552984085       -2.71465047105089        0.37000663120537
C           -0.89990877604258       -1.61696905192273       -0.13472112219879
O            0.57382880088106        0.60805938292608       -1.01560136118522
O            1.95715209014642        0.45449888409413        0.73800614809901
H            1.41146118384433       -1.40998830408016        2.28920087225286
H            0.06940141770336       -3.40003086984792        3.05942646330968
H           -2.43438861058476       -3.13278368420986       -0.13997282613549
H           -1.20294181337544       -1.13038230939067       -1.05023352146116
13
 energy: -26.164372830570 gnorm: 0.001340793238 xtb: 6.7.1 (edcfbbe)
C            0.99855852776605        0.11707666032854        0.03550193192929
C            0.19873351914393       -1.12365573058196        0.55778804545293
C            0.56116838657008       -1.77374989175349        1.73247664234656
C           -0.17881491500433       -2.86427211145054        2.14908813027347
N           -1.22865877432132       -3.33800469418935        1.48987451194351
C           -1.57185846454004       -2.71550023576305        0.36922300355820
C           -0.90105788685948       -1.61743119136693       -0.13540557068955
O            0.57296144138362        0.60905808140296       -1.01787380635555
O            1.95908804612039        0.45531724674211        0.73959870630826
H            1.41246218689726       -1.40919277219591        2.28934665799140
H            0.06966544974347       -3.40103686075380        3.06099449711950
H           -2.43587948142331       -3.13364116730391       -0.14073576862887
H           -1.20280803547630       -1.12946733311467       -1.05112698124915
13
 energy: -26.164374285382 gnorm: 0.000379232086 xtb: 6.7.1 (edcfbbe)
C            0.99885525162459        0.11825008541307        0.03536884227798
C            0.19847171519318       -1.12385659196841        0.55797798389655
C            0.56110046653836       -1.77372526885244        1.73256417923044
C           -0.17878073132765       -2.86424973615647        2.14916791393300
N           -1.22914272584525       -3.33888774352611        1.49017906599599
C           -1.57184370488306       -2.71554823247346        0.36910304719638
C           -0.90110518071606       -1.61745330005648       -0.13540092777764
O            0.57352914540864        0.60934880556752       -1.01845298857075
O            1.95961079923610        0.45579027128131        0.73938216874878
H            1.41232627702753       -1.40982420464833        2.29002139216831
H            0.06991577397241       -3.40094385291048        3.06083859225376
H           -2.43577705248436       -3.13342457301496       -0.14083062984647
H           -1.20360003374444       -1.12997565865478       -1.05116863950632
