9
 energy: -23.455750185629 gnorm: 0.038922585460 xtb: 6.7.1 (edcfbbe)
C            0.96498000000000       -0.03403000000000        0.08241000000000
O            0.55668000000000        1.31468000000000        0.03381000000000
S            1.06726000000000        2.28950000000000        1.23896000000000
O            0.51693000000000        1.67035000000000        2.44170000000000
O            2.52303000000000        2.23070000000000        1.13853000000000
O            0.48465000000000        3.58300000000000        0.89828000000000
H            0.54673000000000       -0.55293000000000       -0.78456000000000
H            0.59156000000000       -0.52399000000000        0.98632000000000
H            2.05484000000000       -0.11526000000000        0.03578000000000
9
 energy: -23.458743714078 gnorm: 0.023311556504 xtb: 6.7.1 (edcfbbe)
C            0.95999165196224       -0.01285237442352        0.08383931793040
O            0.53227465137512        1.30987158771209       -0.00582666379596
S            1.06719769294192        2.25720247903107        1.22497550638486
O            0.52089305069607        1.63340493549132        2.42486804547949
O            2.52088832827494        2.19204900346787        1.12566258795225
O            0.49748912867785        3.55641757817464        0.90661259845507
H            0.55273323422823       -0.55552984099368       -0.77644462733534
H            0.60016708175511       -0.46246173955920        1.01631021410206
H            2.05502518008850       -0.05608162890059        0.07123302082718
9
 energy: -23.460660185956 gnorm: 0.010126492798 xtb: 6.7.1 (edcfbbe)
C            0.95338162224659        0.02843376097473        0.09141634759686
O            0.48562716514912        1.31791871234248       -0.07417609928193
S            1.06493577754809        2.21333409676228        1.20262890413811
O            0.52506391781491        1.57031571878486        2.39104085131030
O            2.51369346193171        2.12578602228885        1.09921671201995
O            0.52294464946317        3.52917592905945        0.93408497819813
H            0.58034061892672       -0.57929980654355       -0.74417045104755
H            0.60717100092560       -0.37382089456559        1.05536485703110
H            2.05350178599409        0.03017646089650        0.11582390003504
9
 energy: -23.460811026837 gnorm: 0.006670274261 xtb: 6.7.1 (edcfbbe)
C            0.95382066113229        0.03139712343421        0.09336631472000
O            0.48020708432215        1.32038554918083       -0.08145882882451
S            1.06393901440063        2.21304937723116        1.20097166094629
O            0.52493460387117        1.56388389902881        2.38549602166561
O            2.51132945836686        2.11873015976073        1.09512290819635
O            0.52751765460096        3.53279500073409        0.94268127725277
H            0.58959895818540       -0.58929423017422       -0.73421511073109
H            0.60391435114917       -0.36662331153385        1.05477645971685
H            2.05139821397138        0.03769643233825        0.11448929705773
9
 energy: -23.460876605115 gnorm: 0.003091507185 xtb: 6.7.1 (edcfbbe)
C            0.95447219139246        0.03055336236921        0.09400640021466
O            0.47731023532051        1.32094126160964       -0.08567936592875
S            1.06288012061699        2.21580740228820        1.20052715902393
O            0.52425814875072        1.56008633777075        2.38074363975445
O            2.50885338076776        2.11443010458731        1.09153950615683
O            0.53147880407375        3.53875407417903        0.95134213630789
H            0.59671788340791       -0.59840913017010       -0.72717469707758
H            0.60102645598960       -0.36239246567181        1.05347945481732
H            2.04966277968032        0.04224905303777        0.11244576673125
9
 energy: -23.460884624532 gnorm: 0.001811568833 xtb: 6.7.1 (edcfbbe)
C            0.95460429970867        0.03003726118345        0.09398786338539
O            0.47649575524378        1.32025905273100       -0.08722693995630
S            1.06256427099311        2.21638328078844        1.20028845564154
O            0.52376672262738        1.55856884126140        2.37908501212076
O            2.50814592130710        2.11285248732753        1.09002156758267
O            0.53266773228875        3.53993691989288        0.95368138383669
H            0.59735698865915       -0.59941051201935       -0.72662125939846
H            0.60130046886991       -0.36059917022524        1.05446587241547
H            2.04975784030216        0.04399183905991        0.11354804437224
9
 energy: -23.460887916543 gnorm: 0.000876491102 xtb: 6.7.1 (edcfbbe)
C            0.95494459665149        0.02868622821703        0.09393079881273
O            0.47676693051371        1.31860004812944       -0.08752382834909
S            1.06235776496969        2.21796566904836        1.20065088615103
O            0.52287218092519        1.55869998462350        2.37829576741592
O            2.50771194989628        2.11311269960810        1.08893396661607
O            0.53327038777171        3.54117076490233        0.95514026599182
H            0.59632780329916       -0.59830357702563       -0.72772896116387
H            0.60220001884667       -0.36118822426434        1.05507917028063
H            2.05020836712612        0.04327640676120        0.11445193424476
