7
 energy: -17.457192998005 gnorm: 0.000667713116 xtb: 6.7.1 (edcfbbe)
C            1.01221958525172       -0.05344134346733        0.12856704321067
N           -0.07775390110478       -0.21940650764594       -0.22767397895296
C            2.31425038881802        0.14400878763823        0.55383885339932
C            2.96637761263805        1.32837008861727        0.25861182850267
N            3.51186388258978        2.32008798354068        0.01128338925451
C            2.96390238905485       -0.84266387888823        1.27472756433558
N            3.50857004275234       -1.66791512979469        1.87850530025022
