14
 energy: -23.565894480951 gnorm: 0.000716144911 xtb: 6.7.1 (edcfbbe)
N           -1.54666202332643       -1.11051664864554       -0.00031984888207
N           -2.34154257187551       -0.03762300283192       -0.00043983705201
C           -1.61493040123278        1.07651677264862       -0.00025224796812
C           -0.24733838701361        0.76262839838045       -0.00016212699126
C            0.96926270613032        1.44409798571781       -0.00003351368206
C            2.13330702063081        0.71417778404034        0.00004331455277
C            2.10993541294643       -0.69207495349961       -0.00001454691987
C            0.93005550035362       -1.39406281142767       -0.00014881870056
C           -0.27317969858615       -0.67931141363932       -0.00022120421402
H           -2.09178740996572        2.04617537768853       -0.00022999202562
H            0.99624966668292        2.53138400843785        0.00002291582635
H            3.09422398790337        1.22119044154081        0.00016048014787
H            3.05683780259756       -1.22545375264614        0.00005862663382
H            0.92420839475518       -2.47813818576420       -0.00018320072523
