      -----------------------------------------------------------      
     |                   =====================                   |     
     |                           x T B                           |     
     |                   =====================                   |     
     |                         S. Grimme                         |     
     |          Mulliken Center for Theoretical Chemistry        |     
     |                    University of Bonn                     |     
      -----------------------------------------------------------      

   * xtb version 6.7.1 (edcfbbe) compiled by 'conda@3ef47c1a292c' on 2024-11-25

   xtb is free software: you can redistribute it and/or modify it under
   the terms of the GNU Lesser General Public License as published by
   the Free Software Foundation, either version 3 of the License, or
   (at your option) any later version.
   
   xtb is distributed in the hope that it will be useful,
   but WITHOUT ANY WARRANTY; without even the implied warranty of
   MERCHANTABILITY or FITNESS FOR A PARTICULAR PURPOSE.  See the
   GNU Lesser General Public License for more details.
   
   Cite this work as:
   * C. Bannwarth, E. Caldeweyher, S. Ehlert, A. Hansen, P. Pracht,
     J. Seibert, S. Spicher, S. Grimme, WIREs Comput. Mol. Sci., 2020, 11,
     e01493. DOI: 10.1002/wcms.1493
   
   for GFN2-xTB:
   * C. Bannwarth, S. Ehlert and S. Grimme., J. Chem. Theory Comput., 2019,
     15, 1652-1671. DOI: 10.1021/acs.jctc.8b01176
   for GFN1-xTB:
   * S. Grimme, C. Bannwarth, P. Shushkov, J. Chem. Theory Comput., 2017,
     13, 1989-2009. DOI: 10.1021/acs.jctc.7b00118
   for GFN0-xTB:
   * P. Pracht, E. Caldeweyher, S. Ehlert, S. Grimme, ChemRxiv, 2019, preprint.
     DOI: 10.26434/chemrxiv.8326202.v1
   for GFN-FF:
   * S. Spicher and S. Grimme, Angew. Chem. Int. Ed., 2020, 59, 15665-15673.
     DOI: 10.1002/anie.202004239
   
   for ALPB and GBSA implicit solvation:
   * S. Ehlert, M. Stahn, S. Spicher, S. Grimme, J. Chem. Theory Comput.,
     2021, 17, 4250-4261. DOI: 10.1021/acs.jctc.1c00471
   
   for ddCOSMO and CPCM-X implicit solvation:
   * M. Stahn, S. Ehlert, S. Grimme, J. Phys. Chem. A,
     2023, XX, XXXX-XXXX. DOI: 10.1021/acs.jpca.3c04382
   
   for DFT-D4:
   * E. Caldeweyher, C. Bannwarth and S. Grimme, J. Chem. Phys., 2017,
     147, 034112. DOI: 10.1063/1.4993215
   * E. Caldeweyher, S. Ehlert, A. Hansen, H. Neugebauer, S. Spicher,
     C. Bannwarth and S. Grimme, J. Chem. Phys., 2019, 150, 154122.
     DOI: 10.1063/1.5090222
   * E. Caldeweyher, J.-M. Mewes, S. Ehlert and S. Grimme, Phys. Chem. Chem. Phys.
     2020, 22, 8499-8512. DOI: 10.1039/D0CP00502A
   
   for sTDA-xTB:
   * S. Grimme and C. Bannwarth, J. Chem. Phys., 2016, 145, 054103.
     DOI: 10.1063/1.4959605
   
   in the mass-spec context:
   * V. Asgeirsson, C. Bauer and S. Grimme, Chem. Sci., 2017, 8, 4879.
     DOI: 10.1039/c7sc00601b
   * J. Koopman and S. Grimme, ACS Omega 2019, 4, 12, 15120-15133.
     DOI: 10.1021/acsomega.9b02011
   
   for metadynamics refer to:
   * S. Grimme, J. Chem. Theory Comput., 2019, 155, 2847-2862
     DOI: 10.1021/acs.jctc.9b00143
   
   for SPH calculations refer to:
   * S. Spicher and S. Grimme, J. Chem. Theory Comput., 2021, 17, 1701-1714
     DOI: 10.1021/acs.jctc.0c01306
   
   for ONIOM refer to:
   * C. Plett, A. Katbashev, S. Ehlert, S. Grimme, M. Bursch,
     Phys. Chem. Chem. Phys., 2023, 25, 17860-17868. DOI: 10.1039/D3CP02178E
   
   for DIPRO refer to:
   * J. Kohn, N. Gildemeister, S. Grimme, D. Fazzi, A. Hansen,
     J. Chem. Phys., 2023, just accepted.
   
   for PTB refer to:
   * S. Grimme, M. Mueller, A. Hansen, J. Chem. Phys., 2023, 158, 124111.
     DOI: 10.1063/5.0137838
   
   with help from (in alphabetical order)
   P. Atkinson, C. Bannwarth, F. Bohle, G. Brandenburg, E. Caldeweyher
   M. Checinski, S. Dohm, S. Ehlert, S. Ehrlich, I. Gerasimov, C. Hölzer
   A. Katbashev, J. Kohn, J. Koopman, C. Lavigne, S. Lehtola, F. März, M. Müller,
   F. Musil, H. Neugebauer, J. Pisarek, C. Plett, P. Pracht, F. Pultar,
   J. Seibert, P. Shushkov, S. Spicher, M. Stahn, M. Steiner, T. Strunk,
   J. Stückrath, T. Rose, and J. Unsleber
   
 * started run on 2024/12/20 at 01:53:32.030     
   ID    Z sym.   atoms
    1    7 N      1, 2
    2    6 C      3-9
    3    1 H      10-14

           -------------------------------------------------
          |                Calculation Setup                |
           -------------------------------------------------

          program call               : xtb A107.xyz --opt --namespace A107 --charge -1
          calculation namespace      : A107
          coordinate file            : A107.xyz
          omp threads                :                     8


           -------------------------------------------------
          |                 G F N 2 - x T B                 |
           -------------------------------------------------

        Reference                      10.1021/acs.jctc.8b01176
      * Hamiltonian:
        H0-scaling (s, p, d)           1.850000    2.230000    2.230000
        zeta-weighting                 0.500000
      * Dispersion:
        s8                             2.700000
        a1                             0.520000
        a2                             5.000000
        s9                             5.000000
      * Repulsion:
        kExp                           1.500000    1.000000
        rExp                           1.000000
      * Coulomb:
        alpha                          2.000000
        third order                    shell-resolved
        anisotropic                    true
        a3                             3.000000
        a5                             4.000000
        cn-shift                       1.200000
        cn-exp                         4.000000
        max-rad                        5.000000


          ...................................................
          :                      SETUP                      :
          :.................................................:
          :  # basis functions                  41          :
          :  # atomic orbitals                  41          :
          :  # shells                           23          :
          :  # electrons                        44          :
          :  max. iterations                   250          :
          :  Hamiltonian                  GFN2-xTB          :
          :  restarted?                      false          :
          :  GBSA solvation                  false          :
          :  PC potential                    false          :
          :  electronic temp.          300.0000000     K    :
          :  accuracy                    1.0000000          :
          :  -> integral cutoff          0.2500000E+02      :
          :  -> integral neglect         0.1000000E-07      :
          :  -> SCF convergence          0.1000000E-05 Eh   :
          :  -> wf. convergence          0.1000000E-03 e    :
          :  Broyden damping             0.4000000          :
          :  net charge                         -1          :
          :  unpaired electrons                  0          :
          ...................................................

 iter      E             dE          RMSdq      gap      omega  full diag
   1    -23.8931576 -0.238932E+02  0.436E+00    3.08       0.0  T
   2    -23.9237636 -0.306060E-01  0.246E+00    2.42       1.0  T
   3    -23.9192287  0.453492E-02  0.150E+00    2.87       1.0  T
   4    -23.9344028 -0.151741E-01  0.349E-01    2.56       1.0  T
   5    -23.9352733 -0.870531E-03  0.126E-01    2.47       1.0  T
   6    -23.9353467 -0.733785E-04  0.605E-02    2.48       1.0  T
   7    -23.9353714 -0.246825E-04  0.256E-02    2.49       1.0  T
   8    -23.9353722 -0.811310E-06  0.127E-02    2.49       2.1  T
   9    -23.9353731 -0.933859E-06  0.212E-03    2.49      12.6  T
  10    -23.9353731 -0.130961E-07  0.116E-03    2.49      23.0  T
  11    -23.9353731 -0.222252E-08  0.260E-04    2.49     103.0  T
  12    -23.9353731 -0.180659E-09  0.908E-05    2.49     294.4  T

   *** convergence criteria satisfied after 12 iterations ***

         #    Occupation            Energy/Eh            Energy/eV
      -------------------------------------------------------------
         1        2.0000           -0.4680693             -12.7368
       ...           ...                  ...                  ...
        16        2.0000           -0.2635591              -7.1718
        17        2.0000           -0.2432883              -6.6202
        18        2.0000           -0.2372873              -6.4569
        19        2.0000           -0.2027530              -5.5172
        20        2.0000           -0.1896320              -5.1601
        21        2.0000           -0.1681160              -4.5747
        22        2.0000           -0.1606929              -4.3727 (HOMO)
        23                         -0.0692259              -1.8837 (LUMO)
        24                         -0.0193456              -0.5264
        25                          0.0286323               0.7791
        26                          0.1142129               3.1079
        27                          0.2695947               7.3360
       ...                                ...                  ...
        41                          0.9350645              25.4444
      -------------------------------------------------------------
                  HL-Gap            0.0914670 Eh            2.4889 eV
             Fermi-level           -0.1149594 Eh           -3.1282 eV

 SCC (total)                   0 d,  0 h,  0 min,  0.011 sec
 SCC setup                      ...        0 min,  0.000 sec (  1.551%)
 Dispersion                     ...        0 min,  0.000 sec (  1.324%)
 classical contributions        ...        0 min,  0.000 sec (  0.465%)
 integral evaluation            ...        0 min,  0.001 sec (  8.030%)
 iterations                     ...        0 min,  0.008 sec ( 69.439%)
 molecular gradient             ...        0 min,  0.002 sec ( 18.178%)
 printout                       ...        0 min,  0.000 sec (  0.872%)

         :::::::::::::::::::::::::::::::::::::::::::::::::::::
         ::                     SUMMARY                     ::
         :::::::::::::::::::::::::::::::::::::::::::::::::::::
         :: total energy             -23.558924313038 Eh    ::
         :: gradient norm              0.089668730031 Eh/a0 ::
         :: HOMO-LUMO gap              2.488943027899 eV    ::
         ::.................................................::
         :: SCC energy               -23.935352729580 Eh    ::
         :: -> isotropic ES            0.121787336229 Eh    ::
         :: -> anisotropic ES          0.010419244606 Eh    ::
         :: -> anisotropic XC          0.019818712287 Eh    ::
         :: -> dispersion             -0.013843071327 Eh    ::
         :: repulsion energy           0.376428416542 Eh    ::
         :: add. restraining           0.000000000000 Eh    ::
         :: total charge              -1.000000000000 e     ::
         :::::::::::::::::::::::::::::::::::::::::::::::::::::

      ----------------------------------------------------------- 
     |                   =====================                   |
     |                        A N C O P T                        |
     |                   =====================                   |
     |               Approximate Normal Coordinate               |
     |                Rational Function Optimizer                |
      ----------------------------------------------------------- 
      ----------------------------------------------------------- 
     |                   =====================                   |
     |                        A N C O P T                        |
     |                   =====================                   |
     |               Approximate Normal Coordinate               |
     |                Rational Function Optimizer                |
      ----------------------------------------------------------- 

          ...................................................
          :                      SETUP                      :
          :.................................................:
          :   optimization level            normal          :
          :   max. optcycles                   200          :
          :   ANC micro-cycles                  20          :
          :   degrees of freedom                36          :
          :.................................................:
          :   RF solver                   davidson          :
          :   write xtbopt.log                true          :
          :   linear?                        false          :
          :   energy convergence         0.5000000E-05 Eh   :
          :   grad. convergence          0.1000000E-02 Eh/α :
          :   maxmium RF displ.          1.0000000          :
          :   Hlow (freq-cutoff)         0.1000000E-01      :
          :   Hmax (freq-cutoff)         5.0000000          :
          :   S6 in model hess.         20.0000000          :
          ...................................................

generating ANC from exact Hessian ...
Using Lindh-Hessian (1995)
 Shifting diagonal of input Hessian by    5.2270595067925932E-004
 Lowest  eigenvalues of input Hessian
    0.000000    0.000000    0.000000    0.000000    0.000000    0.000000
    0.010000    0.013186    0.020982    0.025121    0.052111    0.060701
    0.067663    0.081427    0.087674    0.092743    0.095212    0.107684
 Highest eigenvalues
    1.627097    1.780292    1.819521    1.957703    2.032514    2.228830


........................................................................
.............................. CYCLE    1 ..............................
........................................................................

 iter      E             dE          RMSdq      gap      omega  full diag
   1    -23.9353731 -0.239354E+02  0.500E-05    2.49       0.0  T
   2    -23.9353731 -0.452971E-11  0.290E-05    2.49     920.5  T
   3    -23.9353731 -0.137845E-11  0.185E-05    2.49    1448.3  T
     SCC iter.                  ...        0 min,  0.002 sec
     gradient                   ...        0 min,  0.002 sec
 * total energy  :   -23.5589243 Eh     change       -0.2710010E-10 Eh
   gradient norm :     0.0896689 Eh/α   predicted     0.0000000E+00 (-100.00%)
   displ. norm   :     0.2020747 α      lambda       -0.8981524E-02
   maximum displ.:     0.1237035 α      in ANC's #5, #9, #18, ...

........................................................................
.............................. CYCLE    2 ..............................
........................................................................

 iter      E             dE          RMSdq      gap      omega  full diag
   1    -23.9407009 -0.239407E+02  0.271E-01    2.55       0.0  T
   2    -23.9407944 -0.934593E-04  0.197E-01    2.58       1.0  T
   3    -23.9407989 -0.449579E-05  0.847E-02    2.57       1.0  T
   4    -23.9408458 -0.468846E-04  0.255E-02    2.58       1.0  T
   5    -23.9408523 -0.658582E-05  0.672E-03    2.58       4.0  T
   6    -23.9408524 -0.424648E-07  0.207E-03    2.58      12.9  T
   7    -23.9408524 -0.521919E-07  0.535E-04    2.58      50.0  T
   8    -23.9408524 -0.889312E-09  0.295E-04    2.58      90.5  T
     SCC iter.                  ...        0 min,  0.004 sec
     gradient                   ...        0 min,  0.002 sec
 * total energy  :   -23.5648017 Eh     change       -0.5877430E-02 Eh
   gradient norm :     0.0330975 Eh/α   predicted    -0.4674136E-02 ( -20.47%)
   displ. norm   :     0.1273672 α      lambda       -0.1755397E-02
   maximum displ.:     0.0993278 α      in ANC's #5, #9, #11, ...

........................................................................
.............................. CYCLE    3 ..............................
........................................................................

 iter      E             dE          RMSdq      gap      omega  full diag
   1    -23.9421344 -0.239421E+02  0.165E-01    2.58       0.0  T
   2    -23.9421838 -0.494146E-04  0.121E-01    2.61       1.0  T
   3    -23.9421974 -0.135238E-04  0.573E-02    2.60       1.0  T
   4    -23.9422062 -0.886773E-05  0.158E-02    2.60       1.7  T
   5    -23.9422093 -0.308434E-05  0.285E-03    2.61       9.4  T
   6    -23.9422093 -0.141387E-07  0.122E-03    2.61      21.9  T
   7    -23.9422093 -0.755411E-08  0.355E-04    2.61      75.3  T
   8    -23.9422093 -0.223373E-09  0.187E-04    2.61     142.5  T
     SCC iter.                  ...        0 min,  0.004 sec
     gradient                   ...        0 min,  0.002 sec
 * total energy  :   -23.5657962 Eh     change       -0.9944814E-03 Eh
   gradient norm :     0.0088189 Eh/α   predicted    -0.8919368E-03 ( -10.31%)
   displ. norm   :     0.0349554 α      lambda       -0.1158824E-03
   maximum displ.:     0.0313756 α      in ANC's #5, #12, #9, ...

........................................................................
.............................. CYCLE    4 ..............................
........................................................................

 iter      E             dE          RMSdq      gap      omega  full diag
   1    -23.9418499 -0.239418E+02  0.498E-02    2.60       0.0  T
   2    -23.9418545 -0.467920E-05  0.334E-02    2.61       1.0  T
   3    -23.9418553 -0.747310E-06  0.173E-02    2.61       1.5  T
   4    -23.9418561 -0.835799E-06  0.426E-03    2.61       6.3  T
   5    -23.9418564 -0.254199E-06  0.802E-04    2.61      33.3  T
   6    -23.9418564 -0.141975E-08  0.417E-04    2.61      64.0  T
     SCC iter.                  ...        0 min,  0.003 sec
     gradient                   ...        0 min,  0.002 sec
 * total energy  :   -23.5658725 Eh     change       -0.7628829E-04 Eh
   gradient norm :     0.0043499 Eh/α   predicted    -0.5801244E-04 ( -23.96%)
   displ. norm   :     0.0195379 α      lambda       -0.3231402E-04
   maximum displ.:     0.0170540 α      in ANC's #5, #12, #9, ...

........................................................................
.............................. CYCLE    5 ..............................
........................................................................

 iter      E             dE          RMSdq      gap      omega  full diag
   1    -23.9419008 -0.239419E+02  0.259E-02    2.61       0.0  T
   2    -23.9419017 -0.971560E-06  0.161E-02    2.61       1.7  T
   3    -23.9419018 -0.270879E-07  0.888E-03    2.61       3.0  T
   4    -23.9419021 -0.349689E-06  0.180E-03    2.61      14.9  T
   5    -23.9419022 -0.439693E-07  0.424E-04    2.61      63.0  T
   6    -23.9419022 -0.341796E-09  0.234E-04    2.61     114.2  T
     SCC iter.                  ...        0 min,  0.003 sec
     gradient                   ...        0 min,  0.001 sec
 * total energy  :   -23.5658918 Eh     change       -0.1926673E-04 Eh
   gradient norm :     0.0017647 Eh/α   predicted    -0.1616464E-04 ( -16.10%)
   displ. norm   :     0.0090184 α      lambda       -0.4038230E-05
   maximum displ.:     0.0063627 α      in ANC's #5, #9, #13, ...

........................................................................
.............................. CYCLE    6 ..............................
........................................................................

 iter      E             dE          RMSdq      gap      omega  full diag
   1    -23.9420976 -0.239421E+02  0.103E-02    2.61       0.0  T
   2    -23.9420976 -0.487782E-07  0.591E-03    2.61       4.5  T
   3    -23.9420976  0.397344E-07  0.303E-03    2.61       8.8  T
   4    -23.9420977 -0.641439E-07  0.383E-04    2.61      69.7  T
   5    -23.9420977 -0.160778E-08  0.155E-04    2.61     172.2  T
     SCC iter.                  ...        0 min,  0.002 sec
     gradient                   ...        0 min,  0.001 sec
 * total energy  :   -23.5658945 Eh     change       -0.2701362E-05 Eh
   gradient norm :     0.0007166 Eh/α   predicted    -0.2018684E-05 ( -25.27%)
   displ. norm   :     0.0015101 α      lambda       -0.4328375E-06
   maximum displ.:     0.0008400 α      in ANC's #5, #19, #11, ...

   *** GEOMETRY OPTIMIZATION CONVERGED AFTER 6 ITERATIONS ***

------------------------------------------------------------------------
 total energy gain   :        -0.0069702 Eh       -4.3738 kcal/mol
 total RMSD          :         0.0975749 a0        0.0516 Å
 total power (kW/mol):        -3.0500288 (step) -522.6845 (real)
------------------------------------------------------------------------

 ANCopt (total)                0 d,  0 h,  0 min,  0.035 sec
 optimizer setup                ...        0 min,  0.000 sec (  0.221%)
 model hessian                  ...        0 min,  0.002 sec (  6.071%)
 ANC generation                 ...        0 min,  0.000 sec (  0.812%)
 coordinate transformation      ...        0 min,  0.000 sec (  0.106%)
 single point calculation       ...        0 min,  0.031 sec ( 88.649%)
 optimization log               ...        0 min,  0.000 sec (  0.903%)
 hessian update                 ...        0 min,  0.000 sec (  0.429%)
 rational function              ...        0 min,  0.001 sec (  2.055%)

================
 final structure:
================
14
 xtb: 6.7.1 (edcfbbe)
N           -1.54666202332643       -1.11051664864554       -0.00031984888207
N           -2.34154257187551       -0.03762300283192       -0.00043983705201
C           -1.61493040123278        1.07651677264862       -0.00025224796812
C           -0.24733838701361        0.76262839838045       -0.00016212699126
C            0.96926270613032        1.44409798571781       -0.00003351368206
C            2.13330702063081        0.71417778404034        0.00004331455277
C            2.10993541294643       -0.69207495349961       -0.00001454691987
C            0.93005550035362       -1.39406281142767       -0.00014881870056
C           -0.27317969858615       -0.67931141363932       -0.00022120421402
H           -2.09178740996572        2.04617537768853       -0.00022999202562
H            0.99624966668292        2.53138400843785        0.00002291582635
H            3.09422398790337        1.22119044154081        0.00016048014787
H            3.05683780259756       -1.22545375264614        0.00005862663382
H            0.92420839475518       -2.47813818576420       -0.00018320072523

 Bond Distances (Angstroems)
 ---------------------------
N1-N2=1.3353         N1-C9=1.3445         N2-N1=1.3353         N2-C3=1.3301         C3-N2=1.3301         C3-C4=1.4032         
C3-H10=1.0806        C4-C3=1.4032         C4-C5=1.3945         C4-C9=1.4422         C5-C4=1.3945         C5-C6=1.3740         
C5-H11=1.0876        C6-C5=1.3740         C6-C7=1.4064         C6-H12=1.0865        C7-C6=1.4064         C7-C8=1.3729         
C7-H13=1.0868        C8-C7=1.3729         C8-C9=1.3995         C8-H14=1.0841        C9-N1=1.3445         C9-C4=1.4422         
C9-C8=1.3995         H10-C3=1.0806        H11-C5=1.0876        H12-C6=1.0865        H13-C7=1.0868        H14-C8=1.0841        
 C  H  Rav=1.0851 sigma=0.0026  Rmin=1.0806  Rmax=1.0876     5
 C  C  Rav=1.3989 sigma=0.0216  Rmin=1.3729  Rmax=1.4422     7
 N  C  Rav=1.3373 sigma=0.0072  Rmin=1.3301  Rmax=1.3445     2
 N  N  Rav=1.3353 sigma=0.0000  Rmin=1.3353  Rmax=1.3353     1

 selected bond angles (degree)
 --------------------
C9-N1-N2=107.83                C3-N2-N1=110.35                C4-C3-N2=110.18                H10-C3-N2=120.70               
H10-C3-C4=129.11               C5-C4-C3=137.82                C9-C4-C3=101.90                C9-C4-C5=120.28                
C6-C5-C4=118.65                H11-C5-C4=120.68               H11-C5-C6=120.67               C7-C6-C5=121.14                
H12-C6-C5=120.09               H12-C6-C7=118.77               C8-C7-C6=121.70                H13-C7-C6=118.44               
H13-C7-C8=119.86               C9-C8-C7=118.54                H14-C8-C7=121.06               H14-C8-C9=120.40               
C4-C9-N1=109.73                C8-C9-N1=130.58                C8-C9-C4=119.68                

 selected dihedral angles (degree)
 ---------------------------------
C3-N2-N1-C9=  0.00            C4-C3-N2-N1=  0.00            H10-C3-N2-N1=180.01           C5-C4-C3-N2=180.00            
C5-C4-C3-H10=  0.00           C9-C4-C3-N2=  0.00            C9-C4-C3-H10=180.00           C6-C5-C4-C3=180.00            
C6-C5-C4-C9=  0.00            H11-C5-C4-C3=  0.00           H11-C5-C4-C9=180.00           C7-C6-C5-C4=  0.00            
C7-C6-C5-H11=180.00           H12-C6-C5-C4=180.00           H12-C6-C5-H11=  0.00          C8-C7-C6-C5=  0.00            
C8-C7-C6-H12=180.00           H13-C7-C6-C5=180.00           H13-C7-C6-H12=  0.00          C9-C8-C7-C6=  0.00            
C9-C8-C7-H13=180.00           H14-C8-C7-C6=180.00           H14-C8-C7-H13=  0.00          C4-C9-N1-N2=  0.00            
C8-C9-N1-N2=180.00            N1-C9-C4-C3=  0.00            N1-C9-C4-C5=180.00            C8-C9-C4-C3=180.00            
C8-C9-C4-C5=  0.00            N1-C9-C8-C7=180.00            N1-C9-C8-H14=  0.00           C4-C9-C8-C7=  0.00            
C4-C9-C8-H14=180.00           
           -------------------------------------------------
          |                Final Singlepoint                |
           -------------------------------------------------

          ...................................................
          :                      SETUP                      :
          :.................................................:
          :  # basis functions                  41          :
          :  # atomic orbitals                  41          :
          :  # shells                           23          :
          :  # electrons                        44          :
          :  max. iterations                   250          :
          :  Hamiltonian                  GFN2-xTB          :
          :  restarted?                      false          :
          :  GBSA solvation                  false          :
          :  PC potential                    false          :
          :  electronic temp.          300.0000000     K    :
          :  accuracy                    1.0000000          :
          :  -> integral cutoff          0.2500000E+02      :
          :  -> integral neglect         0.1000000E-07      :
          :  -> SCF convergence          0.1000000E-05 Eh   :
          :  -> wf. convergence          0.1000000E-03 e    :
          :  Broyden damping             0.4000000          :
          :  net charge                         -1          :
          :  unpaired electrons                  0          :
          ...................................................

 iter      E             dE          RMSdq      gap      omega  full diag
   1    -23.9420977 -0.239421E+02  0.673E-05    2.61       0.0  T
   2    -23.9420977 -0.659028E-11  0.427E-05    2.61     626.6  T
   3    -23.9420977 -0.509104E-11  0.275E-05    2.61     970.5  T

   *** convergence criteria satisfied after 3 iterations ***

         #    Occupation            Energy/Eh            Energy/eV
      -------------------------------------------------------------
         1        2.0000           -0.4663616             -12.6903
       ...           ...                  ...                  ...
        16        2.0000           -0.2639348              -7.1820
        17        2.0000           -0.2439507              -6.6382
        18        2.0000           -0.2383501              -6.4858
        19        2.0000           -0.1992295              -5.4213
        20        2.0000           -0.1888618              -5.1392
        21        2.0000           -0.1700747              -4.6280
        22        2.0000           -0.1573432              -4.2815 (HOMO)
        23                         -0.0614152              -1.6712 (LUMO)
        24                         -0.0173242              -0.4714
        25                          0.0333158               0.9066
        26                          0.1090300               2.9669
        27                          0.2757413               7.5033
       ...                                ...                  ...
        41                          0.9017977              24.5392
      -------------------------------------------------------------
                  HL-Gap            0.0959279 Eh            2.6103 eV
             Fermi-level           -0.1093792 Eh           -2.9764 eV

 SCC (total)                   0 d,  0 h,  0 min,  0.003 sec
 SCC setup                      ...        0 min,  0.000 sec (  1.929%)
 Dispersion                     ...        0 min,  0.000 sec (  1.472%)
 classical contributions        ...        0 min,  0.000 sec (  0.263%)
 integral evaluation            ...        0 min,  0.000 sec ( 15.936%)
 iterations                     ...        0 min,  0.001 sec ( 39.903%)
 molecular gradient             ...        0 min,  0.001 sec ( 37.717%)
 printout                       ...        0 min,  0.000 sec (  2.267%)

         :::::::::::::::::::::::::::::::::::::::::::::::::::::
         ::                     SUMMARY                     ::
         :::::::::::::::::::::::::::::::::::::::::::::::::::::
         :: total energy             -23.565894480951 Eh    ::
         :: gradient norm              0.000716144911 Eh/a0 ::
         :: HOMO-LUMO gap              2.610331712866 eV    ::
         ::.................................................::
         :: SCC energy               -23.942077419219 Eh    ::
         :: -> isotropic ES            0.120498612003 Eh    ::
         :: -> anisotropic ES          0.010556796951 Eh    ::
         :: -> anisotropic XC          0.020063294792 Eh    ::
         :: -> dispersion             -0.013837307571 Eh    ::
         :: repulsion energy           0.376182938268 Eh    ::
         :: add. restraining           0.000000000000 Eh    ::
         :: total charge              -1.000000000000 e     ::
         :::::::::::::::::::::::::::::::::::::::::::::::::::::

           -------------------------------------------------
          |                Property Printout                |
           -------------------------------------------------

    * Orbital Energies and Occupations

         #    Occupation            Energy/Eh            Energy/eV
      -------------------------------------------------------------
         1        2.0000           -0.4663616             -12.6903
       ...           ...                  ...                  ...
        10        2.0000           -0.3271288              -8.9016
        11        2.0000           -0.3138103              -8.5392
        12        2.0000           -0.3127603              -8.5106
        13        2.0000           -0.3125236              -8.5042
        14        2.0000           -0.2921854              -7.9508
        15        2.0000           -0.2774269              -7.5492
        16        2.0000           -0.2639348              -7.1820
        17        2.0000           -0.2439507              -6.6382
        18        2.0000           -0.2383501              -6.4858
        19        2.0000           -0.1992295              -5.4213
        20        2.0000           -0.1888618              -5.1392
        21        2.0000           -0.1700747              -4.6280
        22        2.0000           -0.1573432              -4.2815 (HOMO)
        23                         -0.0614152              -1.6712 (LUMO)
        24                         -0.0173242              -0.4714
        25                          0.0333158               0.9066
        26                          0.1090300               2.9669
        27                          0.2757413               7.5033
        28                          0.2805681               7.6346
        29                          0.2827531               7.6941
        30                          0.3212479               8.7416
        31                          0.3477679               9.4632
        32                          0.3699948              10.0681
        33                          0.4115153              11.1979
       ...                                ...                  ...
        41                          0.9017977              24.5392
      -------------------------------------------------------------
                  HL-Gap            0.0959279 Eh            2.6103 eV
             Fermi-level           -0.1093792 Eh           -2.9764 eV

     #   Z          covCN         q      C6AA      α(0)
     1   7 N        2.009    -0.306    28.701     7.946
     2   7 N        2.045    -0.259    27.493     7.778
     3   6 C        3.033    -0.001    28.024     8.683
     4   6 C        3.049    -0.054    29.287     8.876
     5   6 C        2.906    -0.054    29.338     8.881
     6   6 C        2.918    -0.063    29.574     8.918
     7   6 C        2.919    -0.059    29.472     8.902
     8   6 C        2.906    -0.062    29.552     8.914
     9   6 C        3.134     0.053    26.598     8.442
    10   1 H        0.926    -0.063     4.434     3.293
    11   1 H        0.925    -0.037     3.777     3.039
    12   1 H        0.925    -0.038     3.813     3.054
    13   1 H        0.925    -0.036     3.766     3.035
    14   1 H        0.925    -0.020     3.437     2.899

 Mol. C6AA /au·bohr⁶  :       3356.338121
 Mol. C8AA /au·bohr⁸  :      81659.981187
 Mol. α(0) /au        :         92.659510


Wiberg/Mayer (AO) data.
largest (>0.10) Wiberg bond orders for each atom

 ---------------------------------------------------------------------------
     #   Z sym  total        # sym  WBO       # sym  WBO       # sym  WBO
 ---------------------------------------------------------------------------
     1   7 N    2.957 --     9 C    1.364     2 N    1.312     3 C    0.116
     2   7 N    3.002 --     3 C    1.484     1 N    1.312
     3   6 C    3.966 --     2 N    1.484     4 C    1.305    10 H    0.965
                             1 N    0.116
     4   6 C    3.981 --     5 C    1.314     3 C    1.305     9 C    1.152
     5   6 C    3.986 --     6 C    1.516     4 C    1.314    11 H    0.968
     6   6 C    3.981 --     5 C    1.516     7 C    1.324    12 H    0.971
     7   6 C    3.983 --     8 C    1.529     6 C    1.324    13 H    0.971
     8   6 C    3.987 --     7 C    1.529     9 C    1.288    14 H    0.969
     9   6 C    3.981 --     1 N    1.364     8 C    1.288     4 C    1.152
    10   1 H    0.996 --     3 C    0.965
    11   1 H    0.999 --     5 C    0.968
    12   1 H    0.998 --     6 C    0.971
    13   1 H    0.998 --     7 C    0.971
    14   1 H    0.999 --     8 C    0.969
 ---------------------------------------------------------------------------

Topologies differ in total number of bonds
Writing topology from bond orders to xtbtopo.mol

molecular dipole:
                 x           y           z       tot (Debye)
 q only:        1.057       0.192       0.000
   full:        1.762       0.679       0.001       4.799
molecular quadrupole (traceless):
                xx          xy          yy          xz          yz          zz
 q only:      -11.202      -1.679       1.810      -0.002      -0.001       9.391
  q+dip:      -12.259      -4.468       4.932      -0.003      -0.001       7.327
   full:      -13.847      -4.656       3.846      -0.003      -0.001      10.001

           -------------------------------------------------
          |                Geometry Summary                 |
           -------------------------------------------------

      molecular mass/u    :      117.1282615
   center of mass at/Å    :       -0.0026069       0.0070609      -0.0001732
  moments of inertia/u·Å² :        0.1238574E+03   0.2984320E+03   0.4222894E+03
rotational constants/cm⁻¹ :        0.1361051E+00   0.5648735E-01   0.3991962E-01

 * 14 selected distances

     #   Z          #   Z                                           value/Å
     2   7 N        3   6 C                                       1.3301402
     3   6 C        4   6 C                                       1.4031515
     4   6 C        5   6 C                                       1.3944603
     5   6 C        6   6 C                                       1.3739662
     6   6 C        7   6 C                                       1.4064471
     7   6 C        8   6 C                                       1.3729180
     1   7 N        9   6 C                                       1.3445057
     4   6 C        9   6 C                                       1.4421715 (max)
     8   6 C        9   6 C                                       1.3995159
     3   6 C       10   1 H                                       1.0805696 (min)
     5   6 C       11   1 H                                       1.0876210
     6   6 C       12   1 H                                       1.0864730
     7   6 C       13   1 H                                       1.0867922
     8   6 C       14   1 H                                       1.0840912

 * 3 distinct bonds (by element types)

   Z      Z             #   av. dist./Å        max./Å        min./Å
   1 H    6 C           5     1.0851094     1.0876210     1.0805696
   6 C    6 C           7     1.3989472     1.4421715     1.3729180
   6 C    7 N           2     1.3373230     1.3445057     1.3301402


optimized geometry written to: xtbopt.xyz


           -------------------------------------------------
          | TOTAL ENERGY              -23.565894480951 Eh   |
          | GRADIENT NORM               0.000716144911 Eh/α |
          | HOMO-LUMO GAP               2.610331712866 eV   |
           -------------------------------------------------

------------------------------------------------------------------------
 * finished run on 2024/12/20 at 01:53:32.094     
------------------------------------------------------------------------
 total:
 * wall-time:     0 d,  0 h,  0 min,  0.065 sec
 *  cpu-time:     0 d,  0 h,  0 min,  0.451 sec
 * ratio c/w:     6.995 speedup
 SCF:
 * wall-time:     0 d,  0 h,  0 min,  0.011 sec
 *  cpu-time:     0 d,  0 h,  0 min,  0.077 sec
 * ratio c/w:     6.914 speedup
 ANC optimizer:
 * wall-time:     0 d,  0 h,  0 min,  0.038 sec
 *  cpu-time:     0 d,  0 h,  0 min,  0.274 sec
 * ratio c/w:     7.130 speedup

