5
 energy: -3.439146548570 gnorm: 0.074465126277 xtb: 6.7.1 (edcfbbe)
H            0.91862000000000        0.01875000000000        0.05501000000000
B            2.06862000000000        0.01875000000000        0.05501000000000
H            2.45196000000000       -0.66625000000000        0.89544000000000
H            2.45196000000000       -0.36659000000000       -0.95843000000000
H            2.45195000000000        1.08909000000000        0.22802000000000
5
 energy: -3.448581285331 gnorm: 0.016449585709 xtb: 6.7.1 (edcfbbe)
H            0.86131333284548        0.01874899404309        0.05500983723028
B            2.06862242118991        0.01874765270767        0.05500961755514
H            2.47106082151003       -0.70038488826954        0.93732877545553
H            2.47106082002118       -0.38578958198315       -1.00893978003671
H            2.47105260443340        1.14242782350193        0.23664154979577
5
 energy: -3.449192894437 gnorm: 0.003774065937 xtb: 6.7.1 (edcfbbe)
H            0.84512376331427        0.01874479781717        0.05500915911819
B            2.06862182883412        0.01875066797803        0.05501010721588
H            2.47645594470167       -0.71002763249563        0.94915755061106
H            2.47645594439727       -0.39121462594656       -1.02320411550235
H            2.47645251875266        1.15749679264699        0.23907729855723
5
 energy: -3.449229472708 gnorm: 0.000262379438 xtb: 6.7.1 (edcfbbe)
H            0.84030564258782        0.01874677430021        0.05500947858347
B            2.06862211005346        0.01874945931795        0.05500991179357
H            2.47806270471283       -0.71289775014089        0.95268011918019
H            2.47806270436422       -0.39282880445701       -1.02745152813023
H            2.47805683828166        1.16198032097973        0.23980201857301
5
 energy: -3.449229613623 gnorm: 0.000124029037 xtb: 6.7.1 (edcfbbe)
H            0.83976542450718        0.01874582038119        0.05500932435366
B            2.06862193569928        0.01875028378112        0.05501004578980
H            2.47824247989274       -0.71321949989776        0.95307418180921
H            2.47824247977680       -0.39301001957149       -1.02792689021904
H            2.47823768012401        1.16248341530693        0.23988333826637
