32
 energy: -44.879664291238 gnorm: 0.084593625926 xtb: 6.7.1 (edcfbbe)
C            1.40836000000000        0.20047000000000       -0.11761000000000
C            0.53108000000000        1.41777000000000        0.18705000000000
C            0.78697000000000        2.50852000000000       -0.85592000000000
C           -0.96782000000000        1.05963000000000        0.21156000000000
C           -1.35902000000000        0.18003000000000        1.37257000000000
C           -1.53845000000000        0.72735000000000        2.64863000000000
C           -1.89667000000000       -0.08646000000000        3.72645000000000
C           -2.07355000000000       -1.46622000000000        3.55725000000000
C           -1.90235000000000       -2.00857000000000        2.27661000000000
C           -1.54967000000000       -1.19546000000000        1.19583000000000
C           -2.43513000000000       -2.36957000000000        4.72544000000000
C           -1.35804000000000       -2.34584000000000        5.81032000000000
C           -3.82949000000000       -2.02081000000000        5.29039000000000
O           -4.79147000000000       -2.66041000000000        4.76858000000000
O           -3.86065000000000       -1.17588000000000        6.23292000000000
H            1.12561000000000       -0.26508000000000       -1.06797000000000
H            1.32832000000000       -0.55546000000000        0.66958000000000
H            2.46288000000000        0.48917000000000       -0.18452000000000
H            0.82819000000000        1.81520000000000        1.16605000000000
H            0.51036000000000        2.17099000000000       -1.86061000000000
H            0.20632000000000        3.40859000000000       -0.62788000000000
H            1.84500000000000        2.79109000000000       -0.87245000000000
H           -1.56785000000000        1.97794000000000        0.26852000000000
H           -1.25708000000000        0.58010000000000       -0.73289000000000
H           -1.41431000000000        1.79364000000000        2.81617000000000
H           -2.05758000000000        0.36022000000000        4.70694000000000
H           -2.05700000000000       -3.07274000000000        2.11609000000000
H           -1.42891000000000       -1.64803000000000        0.21570000000000
H           -2.49176000000000       -3.40653000000000        4.36544000000000
H           -1.21790000000000       -1.34874000000000        6.24214000000000
H           -1.62330000000000       -3.02240000000000        6.63033000000000
H           -0.39160000000000       -2.66803000000000        5.40667000000000
32
 energy: -44.885337827431 gnorm: 0.040906641371 xtb: 6.7.1 (edcfbbe)
C            1.39568569598196        0.19924436221963       -0.11144539781080
C            0.52572978362230        1.41868157178136        0.18507642599576
C            0.78483437036860        2.51001042577945       -0.85451488609307
C           -0.96779696221776        1.05571822890369        0.22129445846144
C           -1.35287149727530        0.17044103822473        1.38126617144281
C           -1.53911757623808        0.70465122370662        2.65359027977794
C           -1.88748321879154       -0.10397946215333        3.72468367899268
C           -2.05885164957006       -1.47860521666514        3.56092332055603
C           -1.90099980718970       -2.00337052844353        2.27860280203570
C           -1.55041295683967       -1.19453181352308        1.20867577370764
C           -2.41234374602826       -2.37612413656470        4.71313019464736
C           -1.34705403280293       -2.33984193282218        5.80684331623830
C           -3.82612369886548       -2.01322255896286        5.29442707074849
O           -4.77716087429422       -2.62179825130629        4.76999766760803
O           -3.85834179852328       -1.15447084600416        6.19424510504473
H            1.11228858136405       -0.25576474338749       -1.06080905112198
H            1.29442847811426       -0.55057287117925        0.67227859648258
H            2.44666460827808        0.48797673398647       -0.17369772074917
H            0.80906772097916        1.80821596289084        1.16956379325233
H            0.50812595877911        2.16564466395084       -1.85133211223798
H            0.20339962584164        3.40442078097803       -0.62993553418981
H            1.83981847464142        2.78717922265708       -0.87128817726607
H           -1.54739101324706        1.98487551087272        0.27986614597095
H           -1.23545991384081        0.56885290955195       -0.72300981840959
H           -1.41760331514972        1.76993856326381        2.81301199272017
H           -2.05678766689985        0.33760369700233        4.69796349372739
H           -2.05270581478801       -3.06278403488817        2.11557243685386
H           -1.42962300809043       -1.63771602355997        0.22703365734370
H           -2.48758817121223       -3.40594661505387        4.33952874784322
H           -1.24313920857483       -1.34012508301682        6.22879332272394
H           -1.62920238760201       -3.01262307921711        6.61842995274119
H           -0.37849497992937       -2.65749769902158        5.40861429296227
32
 energy: -44.886341532688 gnorm: 0.026445098264 xtb: 6.7.1 (edcfbbe)
C            1.38214371244169        0.19679875116817       -0.10097153402116
C            0.52140105473798        1.42074046507274        0.19318644414694
C            0.78005673815377        2.50802307487349       -0.84927253252694
C           -0.97135904411013        1.05669355943348        0.22565678474780
C           -1.34719439604360        0.16572945072357        1.38228486836215
C           -1.53388519936987        0.68780732471940        2.65621890704653
C           -1.87081591445934       -0.11974619606279        3.72114247956616
C           -2.03671878018064       -1.49346130402112        3.55801133761383
C           -1.88944517610862       -2.00354439595661        2.27124176874268
C           -1.54657286980999       -1.19422579708337        1.20951030989770
C           -2.38788564367439       -2.38044435176285        4.69244074073308
C           -1.34358083414526       -2.33448226927373        5.80580114518752
C           -3.83205050483354       -1.95962574623841        5.25805314872364
O           -4.76318635013899       -2.61432520968760        4.79474810740182
O           -3.83867079508419       -1.14409448763570        6.17419883111933
H            1.09853931126176       -0.24625681731997       -1.05275997720706
H            1.25479827541595       -0.54940262043651        0.67774721978467
H            2.43324807838377        0.47618735432026       -0.15314637837083
H            0.79643836270857        1.80732340225377        1.18074839085333
H            0.50270881526447        2.15536329983082       -1.84005574335579
H            0.19884199228882        3.39959159235225       -0.62904521949967
H            1.83309700864561        2.78035270998754       -0.86627032834903
H           -1.54189614484948        1.98812376895248        0.28990099513132
H           -1.22789763738881        0.56314159018028       -0.71577834973028
H           -1.41770931040850        1.75362591749070        2.80961290321153
H           -2.04554490291528        0.31415080083914        4.69213712968398
H           -2.04608976277388       -3.05939351993936        2.10414088226266
H           -1.43052444245552       -1.62739538734987        0.22374197725422
H           -2.48846727498194       -3.40824209584842        4.32120759606833
H           -1.27515802137498       -1.32996138014716        6.21393595398830
H           -1.63781128187983       -3.00311461997084        6.61237398027847
H           -0.36531906231564       -2.64145686346376        5.42663816125484
32
 energy: -44.887611270209 gnorm: 0.014754951201 xtb: 6.7.1 (edcfbbe)
C            1.37184211348725        0.19426479924860       -0.09119768354338
C            0.51705313366321        1.42273974134545        0.20206564219603
C            0.77645101461984        2.50625563353677       -0.84390905079587
C           -0.97727174837092        1.06000414750698        0.22752510461173
C           -1.34905000482631        0.16509426445067        1.38018607119281
C           -1.53116943799260        0.68054920492580        2.65876945150809
C           -1.86052377365064       -0.13086151515126        3.72116336763841
C           -2.02593994229409       -1.50696717784946        3.55500901881202
C           -1.88334003327944       -2.00933664304507        2.26251536229135
C           -1.54737069891629       -1.19540633935684        1.20313798478593
C           -2.36952185170504       -2.39196439997856        4.68358247118483
C           -1.33907095345539       -2.33386271729649        5.80844028599308
C           -3.82760733308276       -1.96966872039013        5.27125282707016
O           -4.76399228128727       -2.58116890364465        4.77226490449478
O           -3.82515251358545       -1.08385618853652        6.12105244745620
H            1.09049705370916       -0.24115965422468       -1.04739937901971
H            1.22754889515815       -0.55282812012708        0.68340134032170
H            2.42574648294240        0.46309823261723       -0.13281630836567
H            0.79067813581296        1.81015374724177        1.18978851051751
H            0.49824314100073        2.14872232337834       -1.83284364175772
H            0.19571460383034        3.39853600698619       -0.62678016032388
H            1.82959477799124        2.77674859773651       -0.86148179702770
H           -1.54901787945603        1.98883921080454        0.29579549533153
H           -1.23282498145451        0.56617765128293       -0.71298200722740
H           -1.41676249360820        1.74700557217033        2.81230045164530
H           -2.03086530520253        0.29744267632034        4.69532397015114
H           -2.04073312131392       -3.06501619063049        2.09197066515478
H           -1.43409853882407       -1.62279660130779        0.21385203932814
H           -2.47724441889608       -3.42083575732322        4.32079665206007
H           -1.29401447035887       -1.32591828278129        6.21097880701667
H           -1.63317725291923       -3.00382525133842        6.61283967168465
H           -0.35113031773567       -2.62567934657050        5.44277748561457
32
 energy: -44.888066057049 gnorm: 0.007657825076 xtb: 6.7.1 (edcfbbe)
C            1.36379325534750        0.19162894415815       -0.08307961468790
C            0.51162919904062        1.42437447936555        0.20345332120842
C            0.77758560575882        2.50711451822640       -0.84184113319581
C           -0.98337969802172        1.06409337359697        0.22665902216627
C           -1.35485519657239        0.16569849491910        1.37570869188062
C           -1.52742049585163        0.67946930983405        2.65787750661105
C           -1.84808673040822       -0.13742972875360        3.72077843053982
C           -2.01587785464669       -1.51451291105952        3.54962719738978
C           -1.87978454220309       -2.01598615402374        2.25413043051499
C           -1.55056083821052       -1.19665945129596        1.19352661528270
C           -2.36273484062534       -2.39690194773288        4.68162081923374
C           -1.34165235363371       -2.33268437777621        5.81410846181278
C           -3.82591657346119       -1.95785912434037        5.25898676331037
O           -4.76309480791836       -2.58821781721473        4.77356331804619
O           -3.81248946816591       -1.05286944941700        6.09468389685251
H            1.08972007628962       -0.24049048139043       -1.04404833064431
H            1.21000335288594       -0.55851995743324        0.68852545916427
H            2.42090542352894        0.45328641302160       -0.11315497576188
H            0.78458433971769        1.81258809167841        1.19093132734346
H            0.49947898970103        2.14913036882979       -1.83157896410061
H            0.19730025067322        3.40159192447917       -0.62643553399837
H            1.83203315809500        2.77717996710866       -0.85887937890643
H           -1.55781941625101        1.99178531133275        0.29650339426776
H           -1.23980789581678        0.57620422047990       -0.71701032768476
H           -1.41299351277011        1.74591466747117        2.81518510854963
H           -2.01457729199393        0.28774022614796        4.69876638328448
H           -2.03545143498109       -3.07288468406543        2.08223185581250
H           -1.44046394029952       -1.62167767755486        0.20223126786643
H           -2.47123428150305       -3.42905413301203        4.32956172068532
H           -1.30415380661759       -1.32525282837983        6.22011805825151
H           -1.63464013918977       -3.00716085634968        6.61640522874980
H           -0.34654853189679       -2.61515873085009        5.45822398015584
32
 energy: -44.888385594591 gnorm: 0.007641016447 xtb: 6.7.1 (edcfbbe)
C            1.34784527708740        0.18748577532598       -0.06876663347306
C            0.50100894503732        1.42649454656045        0.20836202719582
C            0.77720727289607        2.50524864977037       -0.83821024561633
C           -0.99519039965995        1.07032556821589        0.22482849719490
C           -1.36205522637456        0.16522596289216        1.36902614679690
C           -1.51780099806105        0.67458614126657        2.65625986977017
C           -1.82466974212449       -0.14862721576309        3.71886374516559
C           -1.99626949807439       -1.52589930512173        3.54167927557951
C           -1.87264601695863       -2.02412276502388        2.24219103861278
C           -1.55567880787000       -1.19793710250255        1.18083873843002
C           -2.34601287725650       -2.40198618788874        4.67672606613793
C           -1.34444944094903       -2.32986162847600        5.82476626863667
C           -3.82168478347425       -1.93658766593542        5.23435101885693
O           -4.75236240186893       -2.59346888406885        4.76950244809540
O           -3.79792428773504       -1.00915953188503        6.04417211188026
H            1.08795016216918       -0.23844884928262       -1.03746017723277
H            1.17302622646620       -0.56570205713370        0.69697660083349
H            2.40926008392118        0.43719896872486       -0.07662374077249
H            0.77138768196645        1.81655508650472        1.19591860928292
H            0.50128080349293        2.14756466743312       -1.82937720725883
H            0.19972302018991        3.40345392810860       -0.62632607341570
H            1.83327073055690        2.77204640373170       -0.85179428037480
H           -1.57120983778958        1.99738797769500        0.29994958259487
H           -1.25284937770172        0.59110563478010       -0.72346465363137
H           -1.40270718309840        1.74059051441212        2.81798723998797
H           -1.98085530197375        0.27008725483647        4.70234920331609
H           -2.02846802775863       -3.08149206892893        2.06752097136023
H           -1.45583807403226       -1.61770633602478        0.18565612492120
H           -2.45778205334341       -3.43743983165791        4.33749649723566
H           -1.32817544504711       -1.32448700030464        6.23921195573720
H           -1.63709160325774       -3.01541127631777        6.61905499703702
H           -0.33674881937416       -2.59253937394245        5.48571397711609
32
 energy: -44.888542946187 gnorm: 0.006087515621 xtb: 6.7.1 (edcfbbe)
C            1.33724644321223        0.18495566966021       -0.05920424973154
C            0.49304703340080        1.42730059157071        0.21005197046782
C            0.77664590106088        2.50304122718936       -0.83731179408298
C           -1.00365728316267        1.07388064294764        0.22338896155449
C           -1.36688761831346        0.16467134342677        1.36534929531358
C           -1.50868542057257        0.67155790678714        2.65519469912092
C           -1.80581108053150       -0.15414913631400        3.71831100777454
C           -1.98210465338959       -1.53070243241262        3.53878426408641
C           -1.86981496316408       -2.02702110352967        2.23741211591601
C           -1.56190434293440       -1.19788581499427        1.17510500231182
C           -2.33419723370480       -2.40394225969040        4.67484869444088
C           -1.34610811078909       -2.32763409734299        5.83292468078049
C           -3.81784757126748       -1.92828225597367        5.21677305458804
O           -4.74232687016591       -2.59648072725742        4.75921804769655
O           -3.79536306792911       -0.98812908802497        6.00824116966234
H            1.08889886863767       -0.23752094180809       -1.03252478908983
H            1.14795296825543       -0.56923367636453        0.70216121288289
H            2.40010036436141        0.42853287032845       -0.05117677486621
H            0.76079215769727        1.81947267705487        1.19753382409536
H            0.50317526905549        2.14569592286253       -1.82939041353436
H            0.20182331980057        3.40399400118755       -0.62852463888715
H            1.83384273390448        2.76616859766068       -0.84727491371225
H           -1.57936842924968        2.00124141941365        0.30299814398666
H           -1.26283930259209        0.60011053680598       -0.72755352133779
H           -1.39115236740596        1.73687118644668        2.81906911375129
H           -1.95296655807400        0.26137660514289        4.70439189799897
H           -2.02728531383594       -3.08400220207858        2.06114170034614
H           -1.47099715343580       -1.61499738012601        0.17791153916998
H           -2.44548576564179       -3.44033554139814        4.33977069133707
H           -1.34776577600328       -1.32601359856037        6.25803392896476
H           -1.63707783544471       -3.02527605101697        6.61796095917337
H           -0.33038834177836       -2.57278489159239        5.50376511982203
32
 energy: -44.888740835883 gnorm: 0.005239103850 xtb: 6.7.1 (edcfbbe)
C            1.32360161652662        0.18238427246890       -0.04628571993307
C            0.48186859710900        1.42833555225426        0.21121902572512
C            0.77564224281098        2.49887161140167       -0.83817330565711
C           -1.01519697174085        1.07823273148063        0.22117260367404
C           -1.37260210291674        0.16425778389025        1.36152459753151
C           -1.49211268071272        0.66792940069225        2.65447610981695
C           -1.77656777951858       -0.15957735268839        3.71889455170137
C           -1.96326775534800       -1.53421259770055        3.53731030504013
C           -1.86995288950590       -2.02776232423881        2.23390316455232
C           -1.57387882219476       -1.19636467150692        1.17003025520233
C           -2.31822493792511       -2.40600037135092        4.67344201469349
C           -1.34887846602592       -2.32402450520001        5.84513546332096
C           -3.81132388621644       -1.92502212243332        5.19076621165222
O           -4.72638642184149       -2.60902931023153        4.74244583021566
O           -3.79948335997879       -0.96287743845378        5.95271333669252
H            1.09269520202070       -0.23604637679113       -1.02539181678046
H            1.11406090594809       -0.57222811558284        0.70866198596538
H            2.38697662660979        0.41964745501724       -0.01562600264950
H            0.74511289879518        1.82448778504599        1.19844717402355
H            0.50638715211055        2.14140896601682       -1.83126350886039
H            0.20491539661934        3.40363946573259       -0.63468837504052
H            1.83432035444039        2.75594087203528       -0.84216738432298
H           -1.58944119673713        2.00636372357777        0.30722969510884
H           -1.27701636227802        0.61034947839156       -0.73228896377319
H           -1.36791145852924        1.73181943699160        2.82073884635291
H           -1.90651859549314        0.25302796827561        4.70799195548661
H           -2.03275456058966       -3.08330829145393        2.05559470999976
H           -1.49893541491044       -1.61064898594407        0.17042230507753
H           -2.42424564939015       -3.44303447139785        4.34006830134750
H           -1.38105147507009       -1.33006414896518        6.28938134832381
H           -1.63393673441593       -3.04320772712034        6.61379030069462
H           -0.32240347165158       -2.53880769221283        5.52790498481847
32
 energy: -44.888904561903 gnorm: 0.004627551895 xtb: 6.7.1 (edcfbbe)
C            1.31085888745079        0.18038137999705       -0.03274378521023
C            0.47088022507565        1.42991939558610        0.21137768915891
C            0.77470047726661        2.49428325648966       -0.84103951890233
C           -1.02646465342865        1.08260516372496        0.21853879835888
C           -1.37811972378239        0.16550763951142        1.35856315768887
C           -1.47054733127155        0.66522986083436        2.65505184022749
C           -1.74172388567609       -0.16347787032961        3.72151745504495
C           -1.94381527851428       -1.53538590082712        3.53796152895004
C           -1.87470452520406       -2.02520088570857        2.23203482763965
C           -1.59088209784021       -1.19249964021229        1.16618188193548
C           -2.30246329927914       -2.40761444447879        4.67233476818998
C           -1.35317146015034       -2.31912786787782        5.85905726110956
C           -3.80379679377433       -1.92952266504979        5.16115348796326
O           -4.70815018218740       -2.63591527185851        4.72638940067767
O           -3.81077184231230       -0.94213341188978        5.89010253467555
H            1.09827994540656       -0.23392067370125       -1.01744449427836
H            1.08006424175355       -0.57437738269534        0.71522156340091
H            2.37402384928405        0.41198269840882        0.02153557058749
H            0.72892344027828        1.83102780148058        1.19807030746829
H            0.50999873092200        2.13443316866889       -1.83428951686349
H            0.20763370682322        3.40266755381097       -0.64454920614705
H            1.83466942913173        2.74519192386177       -0.83901690250899
H           -1.59925568399637        2.01108848157098        0.30955380676368
H           -1.29047913752202        0.61769422782296       -0.73572588688738
H           -1.33530005004386        1.72727546865715        2.82337945137342
H           -1.84973340075029        0.24737684638206        4.71350459200183
H           -2.04720932227806       -3.07855547413670        2.05194868400068
H           -1.53521348075107       -1.60437466169739        0.16431107544180
H           -2.39884821935162       -3.44530153672309        4.33816063424582
H           -1.42210545884644       -1.33521647267219        6.32338112405514
H           -1.62781949629752       -3.06245298426110        6.60909075020244
H           -0.31596761013450       -2.49710772268839        5.55376711963643
32
 energy: -44.889022343512 gnorm: 0.003180911383 xtb: 6.7.1 (edcfbbe)
C            1.30425206925440        0.18016389611785       -0.02376244775673
C            0.46490505860442        1.43200472338072        0.21074107674299
C            0.77393661453627        2.49055442663942       -0.84580937788439
C           -1.03254814472345        1.08548756964098        0.21700297324929
C           -1.38047365319221        0.16854578804610        1.35842070361988
C           -1.45010830526122        0.66444650757695        2.65748420212045
C           -1.71344765617645       -0.16449865323168        3.72544609836970
C           -1.93182122802747       -1.53359807412681        3.54045740959845
C           -1.88418226754702       -2.01950834757226        2.23235537380687
C           -1.60757209844179       -1.18690416557823        1.16533697917240
C           -2.29268307423549       -2.40831081413095        4.67166873191581
C           -1.35826137158830       -2.31335571952090        5.86981731660802
C           -3.79863325033685       -1.94267808855062        5.13892248959472
O           -4.69357630330023       -2.66884347449330        4.71620580378785
O           -3.82661601722154       -0.94059616840543        5.84555413318024
H            1.10411411610992       -0.23188889038194       -1.01146804190887
H            1.05979360787296       -0.57416147744328        0.71923717049042
H            2.36636368094092        0.40854510396666        0.04605592186290
H            0.71969415400899        1.83776853327263        1.19631698887329
H            0.51201661984424        2.12598259547362       -1.83790696428309
H            0.20833018978122        3.40085097466207       -0.65582074885335
H            1.83429908822612        2.73838270813904       -0.84086463809161
H           -1.60491373514908        2.01366118468345        0.30832235078239
H           -1.29698672957523        0.61871131736633       -0.73583418761265
H           -1.30228510610666        1.72473981340228        2.82677459726081
H           -1.80103709570934        0.24597782562659        4.71932393989140
H           -2.06882285515232       -3.07052831476314        2.05155303372918
H           -1.56906331322434       -1.59699074466750        0.16193960376989
H           -2.37769448718944       -3.44644994943124        4.33476437570360
H           -1.45787731409028       -1.33866557572776        6.34584148733111
H           -1.62089325229693       -3.07364307866995        6.60607184691261
H           -0.31471794063382       -2.46072143129970        5.57323179801689
32
 energy: -44.889095835493 gnorm: 0.004531307801 xtb: 6.7.1 (edcfbbe)
C            1.30140008875863        0.18062735151032       -0.01864463954250
C            0.46337814049564        1.43460453667408        0.21045152542315
C            0.77355231529674        2.48799004845657       -0.85090608062979
C           -1.03429022731646        1.08821950811345        0.21775382336147
C           -1.38066952512560        0.17246745560320        1.36044653062820
C           -1.43322289100643        0.66348193684601        2.66191750080947
C           -1.69333722736562       -0.16668583263796        3.72971312948033
C           -1.92594138323314       -1.53335615975098        3.54238183587804
C           -1.89569543590670       -2.01394781241970        2.23158016918880
C           -1.62236273473551       -1.18056862474589        1.16503016975412
C           -2.28582722351496       -2.41114955435879        4.67032751445157
C           -1.36261197715130       -2.30666193563652        5.87721148820686
C           -3.79635029451296       -1.95850086296630        5.12492763397283
O           -4.68202372984655       -2.70607116193919        4.71641893242966
O           -3.84200444153664       -0.93811282395027        5.80919144782606
H            1.10785426102842       -0.22918399935063       -1.00838933658730
H            1.04757642486897       -0.57370628863218        0.72117316685041
H            2.36334833252600        0.40565246067927        0.06069421254922
H            0.71782657400158        1.84390499379903        1.19444068874420
H            0.51190533853884        2.11773841235746       -1.84091627612179
H            0.20806837852441        3.39921277294177       -0.66612531621395
H            1.83386184149397        2.73520545434711       -0.84667019183234
H           -1.60678781898187        2.01615761308916        0.30677757696955
H           -1.29805174887632        0.61809810072361       -0.73328217120060
H           -1.27348379215001        1.72205596348073        2.83260789428998
H           -1.76479312115315        0.24263934676430        4.72523930636623
H           -2.09234096016998       -3.06271037747605        2.04993640034117
H           -1.59702080729083       -1.58766819189603        0.16007446881907
H           -2.35959316360002       -3.45027637323325        4.33299661692240
H           -1.49069035809219       -1.33851156071438        6.35904798814894
H           -1.61458971060028       -3.07884359283193        6.60368240680733
H           -0.31359312336665       -2.42762080284603        5.58829158390975
32
 energy: -44.889169523762 gnorm: 0.004878544966 xtb: 6.7.1 (edcfbbe)
C            1.30484736317439        0.18246471730614       -0.01880463812694
C            0.46735501371924        1.43741501224456        0.20873857369696
C            0.77327661920797        2.48613392776506       -0.85855615121145
C           -1.03036895214218        1.08981984039255        0.21974632544871
C           -1.37768558196486        0.17800295042898        1.36495857801129
C           -1.41870953478376        0.66444678622527        2.66780992019574
C           -1.68108169489524       -0.16650766397113        3.73480015983755
C           -1.92704135066046       -1.53054474205500        3.54534751219780
C           -1.91053467541543       -2.00585355837814        2.23231862911998
C           -1.63559714905022       -1.17248980357689        1.16709857128215
C           -2.28453662082705       -2.41293044327336        4.66948095569346
C           -1.36813225548331       -2.29879527969307        5.88181688842266
C           -3.79790212156412       -1.98168217216299        5.12023039760901
O           -4.67533870685713       -2.74253562166766        4.71956271414860
O           -3.86002888468060       -0.96223993006982        5.79971673693101
H            1.11135621496285       -0.22725241260635       -1.00820815662708
H            1.04958258083119       -0.57123931970302        0.72074244318362
H            2.36649031649692        0.40628292190632        0.06126739241543
H            0.72440664620680        1.85009746151752        1.19033602812845
H            0.50973297930977        2.10861836228567       -1.84535289989203
H            0.20587848038991        3.39684329225707       -0.67804116100532