      -----------------------------------------------------------      
     |                   =====================                   |     
     |                           x T B                           |     
     |                   =====================                   |     
     |                         S. Grimme                         |     
     |          Mulliken Center for Theoretical Chemistry        |     
     |                    University of Bonn                     |     
      -----------------------------------------------------------      

   * xtb version 6.7.1 (edcfbbe) compiled by 'conda@3ef47c1a292c' on 2024-11-25

   xtb is free software: you can redistribute it and/or modify it under
   the terms of the GNU Lesser General Public License as published by
   the Free Software Foundation, either version 3 of the License, or
   (at your option) any later version.
   
   xtb is distributed in the hope that it will be useful,
   but WITHOUT ANY WARRANTY; without even the implied warranty of
   MERCHANTABILITY or FITNESS FOR A PARTICULAR PURPOSE.  See the
   GNU Lesser General Public License for more details.
   
   Cite this work as:
   * C. Bannwarth, E. Caldeweyher, S. Ehlert, A. Hansen, P. Pracht,
     J. Seibert, S. Spicher, S. Grimme, WIREs Comput. Mol. Sci., 2020, 11,
     e01493. DOI: 10.1002/wcms.1493
   
   for GFN2-xTB:
   * C. Bannwarth, S. Ehlert and S. Grimme., J. Chem. Theory Comput., 2019,
     15, 1652-1671. DOI: 10.1021/acs.jctc.8b01176
   for GFN1-xTB:
   * S. Grimme, C. Bannwarth, P. Shushkov, J. Chem. Theory Comput., 2017,
     13, 1989-2009. DOI: 10.1021/acs.jctc.7b00118
   for GFN0-xTB:
   * P. Pracht, E. Caldeweyher, S. Ehlert, S. Grimme, ChemRxiv, 2019, preprint.
     DOI: 10.26434/chemrxiv.8326202.v1
   for GFN-FF:
   * S. Spicher and S. Grimme, Angew. Chem. Int. Ed., 2020, 59, 15665-15673.
     DOI: 10.1002/anie.202004239
   
   for ALPB and GBSA implicit solvation:
   * S. Ehlert, M. Stahn, S. Spicher, S. Grimme, J. Chem. Theory Comput.,
     2021, 17, 4250-4261. DOI: 10.1021/acs.jctc.1c00471
   
   for ddCOSMO and CPCM-X implicit solvation:
   * M. Stahn, S. Ehlert, S. Grimme, J. Phys. Chem. A,
     2023, XX, XXXX-XXXX. DOI: 10.1021/acs.jpca.3c04382
   
   for DFT-D4:
   * E. Caldeweyher, C. Bannwarth and S. Grimme, J. Chem. Phys., 2017,
     147, 034112. DOI: 10.1063/1.4993215
   * E. Caldeweyher, S. Ehlert, A. Hansen, H. Neugebauer, S. Spicher,
     C. Bannwarth and S. Grimme, J. Chem. Phys., 2019, 150, 154122.
     DOI: 10.1063/1.5090222
   * E. Caldeweyher, J.-M. Mewes, S. Ehlert and S. Grimme, Phys. Chem. Chem. Phys.
     2020, 22, 8499-8512. DOI: 10.1039/D0CP00502A
   
   for sTDA-xTB:
   * S. Grimme and C. Bannwarth, J. Chem. Phys., 2016, 145, 054103.
     DOI: 10.1063/1.4959605
   
   in the mass-spec context:
   * V. Asgeirsson, C. Bauer and S. Grimme, Chem. Sci., 2017, 8, 4879.
     DOI: 10.1039/c7sc00601b
   * J. Koopman and S. Grimme, ACS Omega 2019, 4, 12, 15120-15133.
     DOI: 10.1021/acsomega.9b02011
   
   for metadynamics refer to:
   * S. Grimme, J. Chem. Theory Comput., 2019, 155, 2847-2862
     DOI: 10.1021/acs.jctc.9b00143
   
   for SPH calculations refer to:
   * S. Spicher and S. Grimme, J. Chem. Theory Comput., 2021, 17, 1701-1714
     DOI: 10.1021/acs.jctc.0c01306
   
   for ONIOM refer to:
   * C. Plett, A. Katbashev, S. Ehlert, S. Grimme, M. Bursch,
     Phys. Chem. Chem. Phys., 2023, 25, 17860-17868. DOI: 10.1039/D3CP02178E
   
   for DIPRO refer to:
   * J. Kohn, N. Gildemeister, S. Grimme, D. Fazzi, A. Hansen,
     J. Chem. Phys., 2023, just accepted.
   
   for PTB refer to:
   * S. Grimme, M. Mueller, A. Hansen, J. Chem. Phys., 2023, 158, 124111.
     DOI: 10.1063/5.0137838
   
   with help from (in alphabetical order)
   P. Atkinson, C. Bannwarth, F. Bohle, G. Brandenburg, E. Caldeweyher
   M. Checinski, S. Dohm, S. Ehlert, S. Ehrlich, I. Gerasimov, C. Hölzer
   A. Katbashev, J. Kohn, J. Koopman, C. Lavigne, S. Lehtola, F. März, M. Müller,
   F. Musil, H. Neugebauer, J. Pisarek, C. Plett, P. Pracht, F. Pultar,
   J. Seibert, P. Shushkov, S. Spicher, M. Stahn, M. Steiner, T. Strunk,
   J. Stückrath, T. Rose, and J. Unsleber
   
 * started run on 2024/12/20 at 01:53:33.732     
   ID    Z sym.   atoms
    1    6 C      1, 3-6, 10-15, 17-22, 24-28, 32-37, 39-43, 47-52, 54-58
    2   14 Si     2, 23, 38, 53
    3    9 F      7-9, 29-31, 44-46, 59-61
    4    5 B      16
    5    1 H      62-117

           -------------------------------------------------
          |                Calculation Setup                |
           -------------------------------------------------

          program call               : xtb A113.xyz --opt --namespace A113 --charge -1
          calculation namespace      : A113
          coordinate file            : A113.xyz
          omp threads                :                     8


           -------------------------------------------------
          |                 G F N 2 - x T B                 |
           -------------------------------------------------

        Reference                      10.1021/acs.jctc.8b01176
      * Hamiltonian:
        H0-scaling (s, p, d)           1.850000    2.230000    2.230000
        zeta-weighting                 0.500000
      * Dispersion:
        s8                             2.700000
        a1                             0.520000
        a2                             5.000000
        s9                             5.000000
      * Repulsion:
        kExp                           1.500000    1.000000
        rExp                           1.000000
      * Coulomb:
        alpha                          2.000000
        third order                    shell-resolved
        anisotropic                    true
        a3                             3.000000
        a5                             4.000000
        cn-shift                       1.200000
        cn-exp                         4.000000
        max-rad                        5.000000


          ...................................................
          :                      SETUP                      :
          :.................................................:
          :  # basis functions                 324          :
          :  # atomic orbitals                 320          :
          :  # shells                          182          :
          :  # electrons                       336          :
          :  max. iterations                   250          :
          :  Hamiltonian                  GFN2-xTB          :
          :  restarted?                      false          :
          :  GBSA solvation                  false          :
          :  PC potential                    false          :
          :  electronic temp.          300.0000000     K    :
          :  accuracy                    1.0000000          :
          :  -> integral cutoff          0.2500000E+02      :
          :  -> integral neglect         0.1000000E-07      :
          :  -> SCF convergence          0.1000000E-05 Eh   :
          :  -> wf. convergence          0.1000000E-03 e    :
          :  Broyden damping             0.4000000          :
          :  net charge                         -1          :
          :  unpaired electrons                  0          :
          ...................................................

 iter      E             dE          RMSdq      gap      omega  full diag
   1   -186.9062954 -0.186906E+03  0.472E+00    2.26       0.0  T
   2   -187.7679905 -0.861695E+00  0.422E+00    0.56       1.0  T
   3   -188.4582210 -0.690231E+00  0.242E+00    1.90       1.0  T
   4   -188.0344374  0.423784E+00  0.224E+00    0.85       1.0  T
   5   -188.5576535 -0.523216E+00  0.742E-01    1.38       1.0  T
   6   -188.5765927 -0.189392E-01  0.397E-01    1.56       1.0  T
   7   -188.5827815 -0.618883E-02  0.241E-01    1.57       1.0  T
   8   -188.5830947 -0.313120E-03  0.114E-01    1.58       1.0  T
   9   -188.5834837 -0.389051E-03  0.581E-02    1.60       1.0  T
  10   -188.5836754 -0.191685E-03  0.215E-02    1.59       1.0  T
  11   -188.5836893 -0.139447E-04  0.136E-02    1.60       1.0  T
  12   -188.5836943 -0.497174E-05  0.704E-03    1.60       1.3  T
  13   -188.5836958 -0.151595E-05  0.362E-03    1.60       2.6  T
  14   -188.5836961 -0.296207E-06  0.180E-03    1.60       5.1  T
  15   -188.5836962 -0.636941E-07  0.774E-04    1.60      11.9  T
  16   -188.5836962 -0.116079E-07  0.389E-04    1.60      23.7  T

   *** convergence criteria satisfied after 16 iterations ***

         #    Occupation            Energy/Eh            Energy/eV
      -------------------------------------------------------------
         1        2.0000           -0.8511456             -23.1609
       ...           ...                  ...                  ...
       162        2.0000           -0.1602048              -4.3594
       163        2.0000           -0.1497305              -4.0744
       164        2.0000           -0.1455599              -3.9609
       165        2.0000           -0.1412486              -3.8436
       166        2.0000           -0.1145843              -3.1180
       167        2.0000           -0.1115292              -3.0349
       168        2.0000           -0.1094468              -2.9782 (HOMO)
       169                         -0.0506929              -1.3794 (LUMO)
       170                         -0.0456112              -1.2411
       171                         -0.0432445              -1.1767
       172                         -0.0422537              -1.1498
       173                         -0.0361188              -0.9828
       ...                                ...                  ...
       320                          1.0024358              27.2777
      -------------------------------------------------------------
                  HL-Gap            0.0587540 Eh            1.5988 eV
             Fermi-level           -0.0800698 Eh           -2.1788 eV

 SCC (total)                   0 d,  0 h,  0 min,  0.292 sec
 SCC setup                      ...        0 min,  0.001 sec (  0.203%)
 Dispersion                     ...        0 min,  0.004 sec (  1.335%)
 classical contributions        ...        0 min,  0.000 sec (  0.090%)
 integral evaluation            ...        0 min,  0.017 sec (  5.684%)
 iterations                     ...        0 min,  0.206 sec ( 70.665%)
 molecular gradient             ...        0 min,  0.063 sec ( 21.658%)
 printout                       ...        0 min,  0.001 sec (  0.356%)

         :::::::::::::::::::::::::::::::::::::::::::::::::::::
         ::                     SUMMARY                     ::
         :::::::::::::::::::::::::::::::::::::::::::::::::::::
         :: total energy            -185.948227121898 Eh    ::
         :: gradient norm              1.208276952277 Eh/a0 ::
         :: HOMO-LUMO gap              1.598776537783 eV    ::
         ::.................................................::
         :: SCC energy              -188.579569712649 Eh    ::
         :: -> isotropic ES            0.426347826004 Eh    ::
         :: -> anisotropic ES          0.077741645583 Eh    ::
         :: -> anisotropic XC         -0.021560215088 Eh    ::
         :: -> dispersion             -0.159959966592 Eh    ::
         :: repulsion energy           2.631342590751 Eh    ::
         :: add. restraining           0.000000000000 Eh    ::
         :: total charge              -1.000000000000 e     ::
         :::::::::::::::::::::::::::::::::::::::::::::::::::::

      ----------------------------------------------------------- 
     |                   =====================                   |
     |                        A N C O P T                        |
     |                   =====================                   |
     |               Approximate Normal Coordinate               |
     |                Rational Function Optimizer                |
      ----------------------------------------------------------- 
      ----------------------------------------------------------- 
     |                   =====================                   |
     |                        A N C O P T                        |
     |                   =====================                   |
     |               Approximate Normal Coordinate               |
     |                Rational Function Optimizer                |
      ----------------------------------------------------------- 

          ...................................................
          :                      SETUP                      :
          :.................................................:
          :   optimization level            normal          :
          :   max. optcycles                   351          :
          :   ANC micro-cycles                  20          :
          :   degrees of freedom               345          :
          :.................................................:
          :   RF solver                   davidson          :
          :   write xtbopt.log                true          :
          :   linear?                        false          :
          :   energy convergence         0.5000000E-05 Eh   :
          :   grad. convergence          0.1000000E-02 Eh/α :
          :   maxmium RF displ.          1.0000000          :
          :   Hlow (freq-cutoff)         0.1000000E-01      :
          :   Hmax (freq-cutoff)         5.0000000          :
          :   S6 in model hess.         20.0000000          :
          ...................................................

generating ANC from exact Hessian ...
Using Lindh-Hessian (1995)
 Shifting diagonal of input Hessian by    9.9496859092619589E-003
 Lowest  eigenvalues of input Hessian
    0.000000    0.000000    0.000000    0.000000    0.000000    0.000000
    0.010000    0.010011    0.010036    0.010058    0.010072    0.010106
    0.010128    0.010176    0.010278    0.010947    0.011264    0.011309
 Highest eigenvalues
    2.220168    2.220926    2.221060    2.255984    2.259423    2.260060


........................................................................
.............................. CYCLE    1 ..............................
........................................................................

 iter      E             dE          RMSdq      gap      omega  full diag
   1   -188.5836962 -0.188584E+03  0.164E-04    1.60       0.0  T
   2   -188.5836962 -0.409841E-09  0.128E-04    1.60      72.0  T
   3   -188.5836962 -0.983391E-09  0.838E-05    1.60     110.4  T
     SCC iter.                  ...        0 min,  0.041 sec
     gradient                   ...        0 min,  0.074 sec
 * total energy  :  -185.9482271 Eh     change       -0.9678047E-08 Eh
   gradient norm :     1.2082657 Eh/α   predicted     0.0000000E+00 (-100.00%)
   displ. norm   :     0.6993340 α      lambda       -0.8060253E+00
   maximum displ.:     0.2899771 α      in ANC's #246, #303, #239, ...

........................................................................
.............................. CYCLE    2 ..............................
........................................................................

 iter      E             dE          RMSdq      gap      omega  full diag
   1   -189.1351682 -0.189135E+03  0.891E-01    2.07       0.0  T
   2   -189.1578018 -0.226335E-01  0.676E-01    2.56       1.0  T
   3   -189.2024470 -0.446452E-01  0.351E-01    2.36       1.0  T
   4   -189.2054251 -0.297816E-02  0.187E-01    2.43       1.0  T
   5   -189.2063502 -0.925068E-03  0.972E-02    2.39       1.0  T
   6   -189.2070241 -0.673903E-03  0.424E-02    2.41       1.0  T
   7   -189.2070708 -0.466648E-04  0.219E-02    2.40       1.0  T
   8   -189.2070704  0.383511E-06  0.125E-02    2.41       1.0  T
   9   -189.2070723 -0.195084E-05  0.617E-03    2.40       1.5  T
  10   -189.2070736 -0.130855E-05  0.239E-03    2.40       3.9  T
  11   -189.2070737 -0.102997E-06  0.917E-04    2.40      10.1  T
  12   -189.2070738 -0.133588E-07  0.536E-04    2.40      17.2  T
     SCC iter.                  ...        0 min,  0.151 sec
     gradient                   ...        0 min,  0.062 sec
 * total energy  :  -186.6173878 Eh     change       -0.6691607E+00 Eh
   gradient norm :     0.8280758 Eh/α   predicted    -0.6001172E+00 ( -10.32%)
   displ. norm   :     0.7462472 α      lambda       -0.6066539E+00
   maximum displ.:     0.3236828 α      in ANC's #303, #246, #299, ...

........................................................................
.............................. CYCLE    3 ..............................
........................................................................

 iter      E             dE          RMSdq      gap      omega  full diag
   1   -189.6212878 -0.189621E+03  0.799E-01    2.49       0.0  T
   2   -189.6430494 -0.217616E-01  0.543E-01    2.90       1.0  T
   3   -189.6686980 -0.256486E-01  0.305E-01    2.68       1.0  T
   4   -189.6707144 -0.201636E-02  0.180E-01    2.80       1.0  T
   5   -189.6711987 -0.484339E-03  0.110E-01    2.72       1.0  T
   6   -189.6721857 -0.986998E-03  0.413E-02    2.76       1.0  T
   7   -189.6722098 -0.241252E-04  0.216E-02    2.76       1.0  T
   8   -189.6722091  0.709269E-06  0.129E-02    2.76       1.0  T
   9   -189.6722114 -0.227347E-05  0.612E-03    2.76       1.5  T
  10   -189.6722124 -0.992593E-06  0.235E-03    2.76       3.9  T
  11   -189.6722125 -0.101494E-06  0.829E-04    2.76      11.2  T
  12   -189.6722125 -0.774122E-09  0.447E-04    2.76      20.7  T
     SCC iter.                  ...        0 min,  0.150 sec
     gradient                   ...        0 min,  0.062 sec
 * total energy  :  -187.1009656 Eh     change       -0.4835778E+00 Eh
   gradient norm :     0.4925754 Eh/α   predicted    -0.4722450E+00 (  -2.34%)
   displ. norm   :     0.7007556 α      lambda       -0.3352986E+00
   maximum displ.:     0.2783488 α      in ANC's #303, #299, #246, ...

........................................................................
.............................. CYCLE    4 ..............................
........................................................................

 iter      E             dE          RMSdq      gap      omega  full diag
   1   -189.8779824 -0.189878E+03  0.438E-01    2.69       0.0  T
   2   -189.8822728 -0.429040E-02  0.272E-01    2.87       1.0  T
   3   -189.8852411 -0.296836E-02  0.192E-01    2.74       1.0  T
   4   -189.8868074 -0.156628E-02  0.984E-02    2.82       1.0  T
   5   -189.8869608 -0.153358E-03  0.637E-02    2.78       1.0  T
   6   -189.8872659 -0.305113E-03  0.229E-02    2.80       1.0  T
   7   -189.8872683 -0.240076E-05  0.126E-02    2.80       1.0  T
   8   -189.8872679  0.383960E-06  0.724E-03    2.80       1.3  T
   9   -189.8872689 -0.994711E-06  0.312E-03    2.80       3.0  T
  10   -189.8872691 -0.221707E-06  0.132E-03    2.80       7.0  T
  11   -189.8872692 -0.618255E-07  0.611E-04    2.80      15.1  T
  12   -189.8872692  0.634543E-09  0.299E-04    2.80      30.9  T
     SCC iter.                  ...        0 min,  0.153 sec
     gradient                   ...        0 min,  0.061 sec
 * total energy  :  -187.3636821 Eh     change       -0.2627165E+00 Eh
   gradient norm :     0.2832413 Eh/α   predicted    -0.2499750E+00 (  -4.85%)
   displ. norm   :     0.6904324 α      lambda       -0.1853344E+00
   maximum displ.:     0.2057796 α      in ANC's #303, #299, #206, ...

........................................................................
.............................. CYCLE    5 ..............................
........................................................................

 iter      E             dE          RMSdq      gap      omega  full diag
   1   -189.9628923 -0.189963E+03  0.274E-01    2.75       0.0  T
   2   -189.9638808 -0.988506E-03  0.175E-01    2.83       1.0  T
   3   -189.9635927  0.288117E-03  0.129E-01    2.76       1.0  T
   4   -189.9645523 -0.959600E-03  0.601E-02    2.82       1.0  T
   5   -189.9646463 -0.940377E-04  0.417E-02    2.79       1.0  T
   6   -189.9647554 -0.109067E-03  0.164E-02    2.80       1.0  T
   7   -189.9647562 -0.866680E-06  0.830E-03    2.80       1.1  T
   8   -189.9647563 -0.341240E-07  0.370E-03    2.80       2.5  T
   9   -189.9647566 -0.356108E-06  0.176E-03    2.80       5.2  T
  10   -189.9647567 -0.118010E-06  0.865E-04    2.80      10.7  T
  11   -189.9647568 -0.194306E-07  0.490E-04    2.80      18.9  T
     SCC iter.                  ...        0 min,  0.141 sec
     gradient                   ...        0 min,  0.061 sec
 * total energy  :  -187.5125198 Eh     change       -0.1488377E+00 Eh
   gradient norm :     0.1755511 Eh/α   predicted    -0.1368414E+00 (  -8.06%)
   displ. norm   :     0.7179932 α      lambda       -0.1179292E+00
   maximum displ.:     0.1667373 α      in ANC's #206, #303, #53, ...

........................................................................
.............................. CYCLE    6 ..............................
........................................................................

 iter      E             dE          RMSdq      gap      omega  full diag
   1   -189.9997538 -0.190000E+03  0.225E-01    2.78       0.0  T
   2   -190.0002249 -0.471116E-03  0.150E-01    2.82       1.0  T
   3   -189.9999533  0.271627E-03  0.949E-02    2.78       1.0  T
   4   -190.0003066 -0.353280E-03  0.468E-02    2.82       1.0  T
   5   -190.0003829 -0.763625E-04  0.340E-02    2.80       1.0  T
   6   -190.0004606 -0.776490E-04  0.145E-02    2.81       1.0  T
   7   -190.0004636 -0.299501E-05  0.660E-03    2.80       1.4  T
   8   -190.0004638 -0.256172E-06  0.258E-03    2.80       3.6  T
   9   -190.0004640 -0.121711E-06  0.139E-03    2.80       6.7  T
  10   -190.0004640 -0.639006E-07  0.741E-04    2.80      12.5  T
  11   -190.0004640 -0.936967E-08  0.384E-04    2.80      24.1  T
     SCC iter.                  ...        0 min,  0.139 sec
     gradient                   ...        0 min,  0.061 sec
 * total energy  :  -187.6095540 Eh     change       -0.9703414E-01 Eh
   gradient norm :     0.1209320 Eh/α   predicted    -0.8936187E-01 (  -7.91%)
   displ. norm   :     0.7503000 α      lambda       -0.8257019E-01
   maximum displ.:     0.1823738 α      in ANC's #53, #206, #208, ...

........................................................................
.............................. CYCLE    7 ..............................
........................................................................

 iter      E             dE          RMSdq      gap      omega  full diag
   1   -190.0236356 -0.190024E+03  0.206E-01    2.81       0.0  T
   2   -190.0238883 -0.252695E-03  0.141E-01    2.83       1.0  T
   3   -190.0236828  0.205444E-03  0.767E-02    2.81       1.0  T
   4   -190.0239515 -0.268693E-03  0.373E-02    2.83       1.0  T
   5   -190.0239655 -0.139513E-04  0.248E-02    2.81       1.0  T
   6   -190.0239924 -0.269002E-04  0.125E-02    2.83       1.0  T
   7   -190.0240021 -0.966118E-05  0.511E-03    2.82       1.8  T
   8   -190.0240025 -0.434240E-06  0.207E-03    2.82       4.5  T
   9   -190.0240026 -0.685515E-07  0.115E-03    2.82       8.1  T
  10   -190.0240026 -0.230119E-07  0.620E-04    2.82      14.9  T
  11   -190.0240026 -0.721022E-08  0.283E-04    2.82      32.7  T
     SCC iter.                  ...        0 min,  0.142 sec
     gradient                   ...        0 min,  0.061 sec
 * total energy  :  -187.6793804 Eh     change       -0.6982648E-01 Eh
   gradient norm :     0.0956338 Eh/α   predicted    -0.6452655E-01 (  -7.59%)
   displ. norm   :     0.7797129 α      lambda       -0.6331114E-01
   maximum displ.:     0.1928799 α      in ANC's #53, #206, #208, ...

........................................................................
.............................. CYCLE    8 ..............................
........................................................................

 iter      E             dE          RMSdq      gap      omega  full diag
   1   -190.0462583 -0.190046E+03  0.198E-01    2.85       0.0  T
   2   -190.0464013 -0.143063E-03  0.135E-01    2.86       1.0  T
   3   -190.0461775  0.223843E-03  0.652E-02    2.84       1.0  T
   4   -190.0464557 -0.278181E-03  0.320E-02    2.86       1.0  T
   5   -190.0464664 -0.106683E-04  0.170E-02    2.85       1.0  T
   6   -190.0464644  0.194283E-05  0.957E-03    2.86       1.0  T
   7   -190.0464734 -0.899285E-05  0.407E-03    2.85       2.3  T
   8   -190.0464741 -0.707019E-06  0.176E-03    2.85       5.3  T
   9   -190.0464742 -0.678760E-07  0.101E-03    2.85       9.2  T
  10   -190.0464742 -0.156558E-07  0.512E-04    2.85      18.1  T
  11   -190.0464742 -0.552387E-08  0.232E-04    2.85      39.8  T
     SCC iter.                  ...        0 min,  0.146 sec
     gradient                   ...        0 min,  0.062 sec
 * total energy  :  -187.7340565 Eh     change       -0.5467609E-01 Eh
   gradient norm :     0.0808893 Eh/α   predicted    -0.5090065E-01 (  -6.91%)
   displ. norm   :     0.7985163 α      lambda       -0.5084294E-01
   maximum displ.:     0.1934438 α      in ANC's #53, #206, #208, ...

........................................................................
.............................. CYCLE    9 ..............................
........................................................................

 iter      E             dE          RMSdq      gap      omega  full diag
   1   -190.0698685 -0.190070E+03  0.191E-01    2.89       0.0  T
   2   -190.0699573 -0.888331E-04  0.128E-01    2.89       1.0  T
   3   -190.0697545  0.202799E-03  0.554E-02    2.88       1.0  T
   4   -190.0699973 -0.242762E-03  0.280E-02    2.89       1.0  T
   5   -190.0700026 -0.533012E-05  0.139E-02    2.89       1.0  T
   6   -190.0700013  0.127527E-05  0.737E-03    2.89       1.3  T
   7   -190.0700065 -0.516179E-05  0.337E-03    2.89       2.7  T
   8   -190.0700070 -0.551855E-06  0.154E-03    2.89       6.0  T
   9   -190.0700071 -0.572627E-07  0.875E-04    2.89      10.6  T
  10   -190.0700071 -0.133062E-07  0.434E-04    2.89      21.3  T
     SCC iter.                  ...        0 min,  0.150 sec
     gradient                   ...        0 min,  0.070 sec
 * total energy  :  -187.7781469 Eh     change       -0.4409039E-01 Eh
   gradient norm :     0.0663571 Eh/α   predicted    -0.4163093E-01 (  -5.58%)
   displ. norm   :     0.7994622 α      lambda       -0.3987479E-01
   maximum displ.:     0.1886837 α      in ANC's #53, #206, #68, ...

........................................................................
.............................. CYCLE   10 ..............................
........................................................................

 iter      E             dE          RMSdq      gap      omega  full diag
   1   -190.0916405 -0.190092E+03  0.183E-01    2.93       0.0  T
   2   -190.0916994 -0.588097E-04  0.120E-01    2.93       1.0  T
   3   -190.0915523  0.147028E-03  0.469E-02    2.93       1.0  T
   4   -190.0917277 -0.175392E-03  0.242E-02    2.93       1.0  T
   5   -190.0917269  0.786973E-06  0.129E-02    2.93       1.0  T
   6   -190.0917281 -0.114249E-05  0.668E-03    2.93       1.4  T
   7   -190.0917335 -0.545122E-05  0.283E-03    2.93       3.3  T
   8   -190.0917338 -0.265847E-06  0.131E-03    2.93       7.1  T
   9   -190.0917338 -0.229395E-07  0.714E-04    2.93      12.9  T
  10   -190.0917338 -0.927031E-08  0.347E-04    2.93      26.7  T
     SCC iter.                  ...        0 min,  0.130 sec
     gradient                   ...        0 min,  0.066 sec
 * total energy  :  -187.8120817 Eh     change       -0.3393483E-01 Eh
   gradient norm :     0.0492556 Eh/α   predicted    -0.3268019E-01 (  -3.70%)
   displ. norm   :     0.7798729 α      lambda       -0.2831402E-01
   maximum displ.:     0.1779085 α      in ANC's #53, #50, #68, ...

........................................................................
.............................. CYCLE   11 ..............................
........................................................................

 iter      E             dE          RMSdq      gap      omega  full diag
   1   -190.1068974 -0.190107E+03  0.169E-01    2.97       0.0  T
   2   -190.1069343 -0.368795E-04  0.109E-01    2.97       1.0  T
   3   -190.1068450  0.892357E-04  0.380E-02    2.97       1.0  T
   4   -190.1069538 -0.108728E-03  0.202E-02    2.97       1.0  T
   5   -190.1069512  0.262280E-05  0.103E-02    2.97       1.0  T
   6   -190.1069530 -0.184698E-05  0.523E-03    2.97       1.8  T
   7   -190.1069566 -0.359981E-05  0.225E-03    2.97       4.1  T
   8   -190.1069567 -0.147524E-06  0.106E-03    2.97       8.7  T
   9   -190.1069568 -0.132503E-07  0.552E-04    2.97      16.7  T
  10   -190.1069568 -0.512904E-08  0.259E-04    2.97      35.7  T
     SCC iter.                  ...        0 min,  0.131 sec
     gradient                   ...        0 min,  0.062 sec
 * total energy  :  -187.8353103 Eh     change       -0.2322856E-01 Eh
   gradient norm :     0.0337257 Eh/α   predicted    -0.2276741E-01 (  -1.99%)
   displ. norm   :     0.7466679 α      lambda       -0.1777958E-01
   maximum displ.:     0.1822433 α      in ANC's #25, #50, #39, ...

........................................................................
.............................. CYCLE   12 ..............................
........................................................................

 iter      E             dE          RMSdq      gap      omega  full diag
   1   -190.1142213 -0.190114E+03  0.147E-01    3.01       0.0  T
   2   -190.1142424 -0.210788E-04  0.934E-02    3.00       1.0  T
   3   -190.1141937  0.486773E-04  0.286E-02    3.01       1.0  T
   4   -190.1142547 -0.610326E-04  0.157E-02    3.00       1.0  T
   5   -190.1142535  0.127074E-05  0.604E-03    3.01       1.5  T
   6   -190.1142544 -0.903703E-06  0.328E-03    3.00       2.8  T
   7   -190.1142555 -0.117958E-05  0.173E-03    3.00       5.3  T
   8   -190.1142556 -0.995619E-07  0.848E-04    3.00      10.9  T
   9   -190.1142557 -0.214622E-07  0.413E-04    3.00      22.4  T
     SCC iter.                  ...        0 min,  0.117 sec
     gradient                   ...        0 min,  0.062 sec
 * total energy  :  -187.8496468 Eh     change       -0.1433648E-01 Eh
   gradient norm :     0.0274685 Eh/α   predicted    -0.1384596E-01 (  -3.42%)
   displ. norm   :     0.7293382 α      lambda       -0.1160570E-01
   maximum displ.:     0.2139211 α      in ANC's #25, #46, #14, ...

........................................................................
.............................. CYCLE   13 ..............................
........................................................................

 iter      E             dE          RMSdq      gap      omega  full diag
   1   -190.1173701 -0.190117E+03  0.127E-01    3.04       0.0  T
   2   -190.1173837 -0.136231E-04  0.801E-02    3.03       1.0  T
   3   -190.1173158  0.679472E-04  0.267E-02    3.04       1.0  T
   4   -190.1173923 -0.765668E-04  0.125E-02    3.03       1.0  T
   5   -190.1173887  0.363195E-05  0.896E-03    3.04       1.0  T
   6   -190.1173941 -0.539604E-05  0.224E-03    3.03       4.1  T
   7   -190.1173945 -0.398530E-06  0.129E-03    3.03       7.2  T
   8   -190.1173945 -0.261124E-07  0.674E-04    3.03      13.7  T
   9   -190.1173945 -0.733010E-08  0.324E-04    3.03      28.5  T
     SCC iter.                  ...        0 min,  0.114 sec
     gradient                   ...        0 min,  0.061 sec
 * total energy  :  -187.8593706 Eh     change       -0.9723826E-02 Eh
   gradient norm :     0.0267031 Eh/α   predicted    -0.8889585E-02 (  -8.58%)
   displ. norm   :     0.7545098 α      lambda       -0.9496092E-02
   maximum displ.:     0.2471739 α      in ANC's #46, #25, #14, ...

........................................................................
.............................. CYCLE   14 ..............................
........................................................................

 iter      E             dE          RMSdq      gap      omega  full diag
   1   -190.1198135 -0.190120E+03  0.120E-01    3.06       0.0  T
   2   -190.1198256 -0.120851E-04  0.760E-02    3.06       1.0  T
   3   -190.1197203  0.105334E-03  0.302E-02    3.07       1.0  T
   4   -190.1198357 -0.115401E-03  0.116E-02    3.06       1.0  T
   5   -190.1198334  0.226257E-05  0.873E-03    3.06       1.1  T
   6   -190.1198379 -0.453727E-05  0.218E-03    3.06       4.2  T
   7   -190.1198382 -0.252319E-06  0.105E-03    3.06       8.8  T
   8   -190.1198382 -0.116721E-07  0.643E-04    3.06      14.4  T
   9   -190.1198382 -0.909731E-08  0.305E-04    3.06      30.4  T
     SCC iter.                  ...        0 min,  0.118 sec
     gradient                   ...        0 min,  0.061 sec
 * total energy  :  -187.8676190 Eh     change       -0.8248405E-02 Eh
   gradient norm :     0.0238235 Eh/α   predicted    -0.7451065E-02 (  -9.67%)
   displ. norm   :     0.7794800 α      lambda       -0.8436857E-02
   maximum displ.:     0.2751682 α      in ANC's #46, #25, #14, ...

........................................................................
.............................. CYCLE   15 ..............................
........................................................................

 iter      E             dE          RMSdq      gap      omega  full diag
   1   -190.1223786 -0.190122E+03  0.120E-01    3.08       0.0  T
   2   -190.1223897 -0.110691E-04  0.761E-02    3.07       1.0  T
   3   -190.1222714  0.118324E-03  0.322E-02    3.09       1.0  T
   4   -190.1224004 -0.128985E-03  0.118E-02    3.07       1.0  T
   5   -190.1223978  0.251914E-05  0.878E-03    3.08       1.1  T
   6   -190.1224028 -0.493003E-05  0.240E-03    3.07       3.8  T
   7   -190.1224030 -0.205908E-06  0.110E-03    3.07       8.4  T
   8   -190.1224030 -0.105905E-08  0.728E-04    3.07      12.7  T
   9   -190.1224030 -0.142801E-07  0.345E-04    3.07      26.8  T
     SCC iter.                  ...        0 min,  0.114 sec
     gradient                   ...        0 min,  0.061 sec
 * total energy  :  -187.8749344 Eh     change       -0.7315365E-02 Eh
   gradient norm :     0.0188652 Eh/α   predicted    -0.6781535E-02 (  -7.30%)
   displ. norm   :     0.7845058 α      lambda       -0.6932760E-02
   maximum displ.:     0.2796046 α      in ANC's #46, #25, #14, ...

........................................................................
.............................. CYCLE   16 ..............................
........................................................................

 iter      E             dE          RMSdq      gap      omega  full diag
   1   -190.1241122 -0.190124E+03  0.117E-01    3.09       0.0  T
   2   -190.1241216 -0.938091E-05  0.739E-02    3.08       1.0  T
   3   -190.1240249  0.967008E-04  0.298E-02    3.10       1.0  T
   4   -190.1241301 -0.105208E-03  0.115E-02    3.08       1.0  T
   5   -190.1241281  0.200269E-05  0.816E-03    3.09       1.1  T
   6   -190.1241322 -0.416927E-05  0.247E-03    3.08       3.7  T
   7   -190.1241324 -0.197415E-06  0.116E-03    3.08       8.0  T
   8   -190.1241324 -0.100010E-08  0.705E-04    3.08      13.1  T
   9   -190.1241324 -0.197879E-07  0.353E-04    3.08      26.2  T
     SCC iter.                  ...        0 min,  0.113 sec
     gradient                   ...        0 min,  0.062 sec
 * total energy  :  -187.8808870 Eh     change       -0.5952573E-02 Eh
   gradient norm :     0.0168144 Eh/α   predicted    -0.5599771E-02 (  -5.93%)
   displ. norm   :     0.7824276 α      lambda       -0.5506934E-02
   maximum displ.:     0.2622538 α      in ANC's #46, #9, #25, ...

........................................................................
.............................. CYCLE   17 ..............................
........................................................................

 iter      E             dE          RMSdq      gap      omega  full diag
   1   -190.1254160 -0.190125E+03  0.108E-01    3.09       0.0  T
   2   -190.1254236 -0.758495E-05  0.677E-02    3.09       1.0  T
   3   -190.1253518  0.717660E-04  0.258E-02    3.10       1.0  T
   4   -190.1254296 -0.778030E-04  0.101E-02    3.09       1.0  T
   5   -190.1254291  0.563392E-06  0.701E-03    3.09       1.3  T
   6   -190.1254316 -0.256381E-05  0.234E-03    3.09       4.0  T
   7   -190.1254319 -0.211475E-06  0.103E-03    3.09       9.0  T
   8   -190.1254319 -0.776660E-08  0.601E-04    3.09      15.4  T
   9   -190.1254319 -0.137911E-07  0.319E-04    3.09      29.0  T
     SCC iter.                  ...        0 min,  0.114 sec
     gradient                   ...        0 min,  0.061 sec
 * total energy  :  -187.8856777 Eh     change       -0.4790738E-02 Eh
   gradient norm :     0.0181473 Eh/α   predicted    -0.4439126E-02 (  -7.34%)
   displ. norm   :     0.7864440 α      lambda       -0.4784714E-02
   maximum displ.:     0.2632266 α      in ANC's #9, #46, #25, ...

........................................................................
.............................. CYCLE   18 ..............................
........................................................................

 iter      E             dE          RMSdq      gap      omega  full diag
   1   -190.1281271 -0.190128E+03  0.985E-02    3.09       0.0  T
   2   -190.1281332 -0.608225E-05  0.611E-02    3.09       1.0  T
   3   -190.1280775  0.556546E-04  0.224E-02    3.10       1.0  T
   4   -190.1281371 -0.595808E-04  0.875E-03    3.09       1.1  T
   5   -190.1281382 -0.109922E-05  0.602E-03    3.09       1.5  T
   6   -190.1281395 -0.129542E-05  0.215E-03    3.09       4.3  T
   7   -190.1281397 -0.217329E-06  0.858E-04    3.09      10.8  T
   8   -190.1281397 -0.755938E-08  0.504E-04    3.09      18.3  T
     SCC iter.                  ...        0 min,  0.104 sec
     gradient                   ...        0 min,  0.061 sec
 * total energy  :  -187.8899428 Eh     change       -0.4265119E-02 Eh
   gradient norm :     0.0190538 Eh/α   predicted    -0.3872040E-02 (  -9.22%)
   displ. norm   :     0.7966441 α      lambda       -0.4643685E-02
   maximum displ.:     0.2799346 α      in ANC's #9, #25, #23, ...

........................................................................
.............................. CYCLE   19 ..............................
........................................................................

 iter      E             dE          RMSdq      gap      omega  full diag
   1   -190.1336207 -0.190134E+03  0.910E-02    3.09       0.0  T
   2   -190.1336268 -0.618434E-05  0.558E-02    3.09       1.0  T
   3   -190.1335832  0.436177E-04  0.197E-02    3.10       1.0  T
   4   -190.1336289 -0.456986E-04  0.779E-03    3.09       1.2  T
   5   -190.1336315 -0.260731E-05  0.517E-03    3.09       1.8  T
   6   -190.1336322 -0.637192E-06  0.204E-03    3.09       4.5  T
   7   -190.1336324 -0.195329E-06  0.754E-04    3.09      12.3  T
   8   -190.1336324 -0.687751E-08  0.431E-04    3.09      21.4  T
     SCC iter.                  ...        0 min,  0.122 sec
     gradient                   ...        0 min,  0.061 sec
 * total energy  :  -187.8941496 Eh     change       -0.4206821E-02 Eh
   gradient norm :     0.0176883 Eh/α   predicted    -0.3795390E-02 (  -9.78%)
   displ. norm   :     0.8016661 α      lambda       -0.4708320E-02
   maximum displ.:     0.2855058 α      in ANC's #9, #23, #18, ...

........................................................................
.............................. CYCLE   20 ..............................
........................................................................

 iter      E             dE          RMSdq      gap      omega  full diag
   1   -190.1412059 -0.190141E+03  0.853E-02    3.09       0.0  T
   2   -190.1412151 -0.917035E-05  0.512E-02    3.08       1.0  T
   3   -190.1411812  0.338894E-04  0.173E-02    3.10       1.0  T
   4   -190.1412158 -0.346390E-04  0.695E-03    3.08       1.3  T
   5   -190.1412198 -0.398908E-05  0.413E-03    3.09       2.2  T
   6   -190.1412202 -0.389891E-06  0.205E-03    3.09       4.5  T
   7   -190.1412203 -0.118939E-06  0.827E-04    3.09      11.2  T
   8   -190.1412203 -0.870807E-08  0.374E-04    3.09      24.7  T
     SCC iter.                  ...        0 min,  0.102 sec
     gradient                   ...        0 min,  0.067 sec
 * total energy  :  -187.8983761 Eh     change       -0.4226458E-02 Eh
   gradient norm :     0.0151129 Eh/α   predicted    -0.3867112E-02 (  -8.50%)
   displ. norm   :     0.8107146 α      lambda       -0.4467108E-02
   maximum displ.:     0.2806499 α      in ANC's #9, #18, #23, ...
 * RMSD in coord.:     1.0920038 α      energy gain  -0.1950149E+01 Eh

generating ANC from exact Hessian ...
Using Lindh-Hessian (1995)
 Shifting diagonal of input Hessian by    1.0113232209040316E-002
 Lowest  eigenvalues of input Hessian
    0.010000    0.010069    0.010074    0.010087    0.010090    0.000000
    0.000000    0.000000    0.000000    0.000000    0.000000    0.010126
    0.010140    0.010162    0.010228    0.010298    0.010361    0.010584
 Highest eigenvalues
    1.899937    1.901294    1.967134    1.974600    1.977512    1.981474


........................................................................
.............................. CYCLE   21 ..............................
........................................................................

 iter      E             dE          RMSdq      gap      omega  full diag
   1   -190.1477891 -0.190148E+03  0.836E-02    3.08       0.0  T
   2   -190.1477987 -0.962001E-05  0.496E-02    3.08       1.0  T
   3   -190.1477596  0.391143E-04  0.171E-02    3.09       1.0  T
   4   -190.1478017 -0.421416E-04  0.582E-03    3.08       1.6  T
   5   -190.1478041 -0.234304E-05  0.337E-03    3.09       2.7  T
   6   -190.1478045 -0.460862E-06  0.170E-03    3.08       5.4  T
   7   -190.1478046 -0.497260E-07  0.794E-04    3.08      11.7  T
   8   -190.1478046 -0.782410E-08  0.342E-04    3.08      27.1  T
     SCC iter.                  ...        0 min,  0.105 sec
     gradient                   ...        0 min,  0.061 sec
 * total energy  :  -187.9023016 Eh     change       -0.3925550E-02 Eh
   gradient norm :     0.0154328 Eh/α   predicted     0.0000000E+00 (-100.00%)
   displ. norm   :     0.3661838 α      lambda       -0.2528120E-02
   maximum displ.:     0.2365564 α      in ANC's #12, #13, #11, ...

........................................................................
.............................. CYCLE   22 ..............................
........................................................................

 iter      E             dE          RMSdq      gap      omega  full diag
   1   -190.1483301 -0.190148E+03  0.487E-02    3.09       0.0  T
   2   -190.1483324 -0.235674E-05  0.292E-02    3.09       1.0  T
   3   -190.1483179  0.144765E-04  0.118E-02    3.09       1.0  T
   4   -190.1483339 -0.159888E-04  0.399E-03    3.09       2.3  T
   5   -190.1483342 -0.247986E-06  0.297E-03    3.09       3.1  T
   6   -190.1483344 -0.204022E-06  0.131E-03    3.09       7.1  T
   7   -190.1483345 -0.962591E-07  0.516E-04    3.09      17.9  T
   8   -190.1483345 -0.611570E-08  0.245E-04    3.09      37.7  T
     SCC iter.                  ...        0 min,  0.102 sec
     gradient                   ...        0 min,  0.061 sec
 * total energy  :  -187.9045175 Eh     change       -0.2215817E-02 Eh
   gradient norm :     0.0083028 Eh/α   predicted    -0.1433565E-02 ( -35.30%)
   displ. norm   :     0.6898684 α      lambda       -0.3565676E-02
   maximum displ.:     0.4324172 α      in ANC's #12, #13, #11, ...

........................................................................
.............................. CYCLE   23 ..............................
........................................................................

 iter      E             dE          RMSdq      gap      omega  full diag
   1   -190.1468247 -0.190147E+03  0.749E-02    3.10       0.0  T
   2   -190.1468305 -0.578769E-05  0.448E-02    3.10       1.0  T
   3   -190.1467784  0.521065E-04  0.201E-02    3.11       1.0  T
   4   -190.1468356 -0.571632E-04  0.542E-03    3.10       1.7  T
   5   -190.1468369 -0.131780E-05  0.377E-03    3.10       2.5  T
   6   -190.1468374 -0.478074E-06  0.167E-03    3.10       5.5  T
   7   -190.1468374 -0.631988E-07  0.777E-04    3.10      11.9  T
   8   -190.1468374 -0.119855E-07  0.348E-04    3.10      26.5  T
     SCC iter.                  ...        0 min,  0.101 sec
     gradient                   ...        0 min,  0.061 sec
 * total energy  :  -187.9074823 Eh     change       -0.2964817E-02 Eh
   gradient norm :     0.0070458 Eh/α   predicted    -0.2631324E-02 ( -11.25%)
   displ. norm   :     0.7215910 α      lambda       -0.2701550E-02
   maximum displ.:     0.4688150 α      in ANC's #12, #13, #11, ...

........................................................................
.............................. CYCLE   24 ..............................
........................................................................

 iter      E             dE          RMSdq      gap      omega  full diag
   1   -190.1456668 -0.190146E+03  0.725E-02    3.11       0.0  T
   2   -190.1456706 -0.378606E-05  0.435E-02    3.11       1.0  T
   3   -190.1456076  0.629913E-04  0.205E-02    3.12       1.0  T
   4   -190.1456768 -0.692686E-04  0.466E-03    3.11       2.0  T
   5   -190.1456777 -0.843279E-06  0.312E-03    3.11       3.0  T
   6   -190.1456779 -0.256921E-06  0.130E-03    3.11       7.1  T
   7   -190.1456780 -0.354263E-07  0.633E-04    3.11      14.6  T
   8   -190.1456780 -0.149875E-07  0.259E-04    3.11      35.7  T
     SCC iter.                  ...        0 min,  0.103 sec
     gradient                   ...        0 min,  0.061 sec
 * total energy  :  -187.9098580 Eh     change       -0.2375762E-02 Eh
   gradient norm :     0.0097593 Eh/α   predicted    -0.2054150E-02 ( -13.54%)
   displ. norm   :     0.7168150 α      lambda       -0.2379748E-02
   maximum displ.:     0.4649474 α      in ANC's #12, #13, #11, ...

........................................................................
.............................. CYCLE   25 ..............................
........................................................................

 iter      E             dE          RMSdq      gap      omega  full diag
   1   -190.1465541 -0.190147E+03  0.748E-02    3.12       0.0  T
   2   -190.1465573 -0.317587E-05  0.451E-02    3.11       1.0  T
   3   -190.1464918  0.654760E-04  0.203E-02    3.13       1.0  T
   4   -190.1465634 -0.715769E-04  0.511E-03    3.12       1.8  T
   5   -190.1465640 -0.616608E-06  0.333E-03    3.12       2.8  T
   6   -190.1465641 -0.119630E-06  0.133E-03    3.12       6.9  T
   7   -190.1465642 -0.719004E-07  0.652E-04    3.12      14.2  T
   8   -190.1465642 -0.155190E-07  0.300E-04    3.12      30.9  T
     SCC iter.                  ...        0 min,  0.101 sec
     gradient                   ...        0 min,  0.061 sec
 * total energy  :  -187.9120415 Eh     change       -0.2183465E-02 Eh
   gradient norm :     0.0092387 Eh/α   predicted    -0.1801259E-02 ( -17.50%)
   displ. norm   :     0.7444364 α      lambda       -0.2378106E-02
   maximum displ.:     0.4815001 α      in ANC's #12, #13, #11, ...

........................................................................
.............................. CYCLE   26 ..............................
........................................................................

 iter      E             dE          RMSdq      gap      omega  full diag
   1   -190.1490646 -0.190149E+03  0.842E-02    3.12       0.0  T
   2   -190.1490678 -0.320396E-05  0.512E-02    3.12       1.0  T
   3   -190.1489993  0.684593E-04  0.206E-02    3.13       1.0  T
   4   -190.1490738 -0.744449E-04  0.645E-03    3.12       1.4  T
   5   -190.1490743 -0.478976E-06  0.411E-03    3.12       2.2  T
   6   -190.1490744 -0.167395E-06  0.150E-03    3.12       6.2  T
   7   -190.1490745 -0.124713E-06  0.787E-04    3.12      11.8  T
   8   -190.1490746 -0.162976E-07  0.417E-04    3.12      22.2  T
     SCC iter.                  ...        0 min,  0.101 sec
     gradient                   ...        0 min,  0.062 sec
 * total energy  :  -187.9142214 Eh     change       -0.2179864E-02 Eh
   gradient norm :     0.0070703 Eh/α   predicted    -0.1848010E-02 ( -15.22%)
   displ. norm   :     0.7837357 α      lambda       -0.2256607E-02
   maximum displ.:     0.5094062 α      in ANC's #12, #13, #11, ...

........................................................................
.............................. CYCLE   27 ..............................
........................................................................

 iter      E             dE          RMSdq      gap      omega  full diag
   1   -190.1509018 -0.190151E+03  0.946E-02    3.12       0.0  T
   2   -190.1509051 -0.327499E-05  0.580E-02    3.12       1.0  T
   3   -190.1508457  0.593342E-04  0.196E-02    3.13       1.0  T
   4   -190.1509102 -0.644409E-04  0.755E-03    3.12       1.2  T
   5   -190.1509103 -0.102485E-06  0.445E-03    3.12       2.1  T
   6   -190.1509110 -0.756528E-06  0.142E-03    3.12       6.5  T
   7   -190.1509111 -0.709380E-07  0.834E-04    3.12      11.1  T
   8   -190.1509111 -0.162004E-07  0.463E-04    3.12      20.0  T
     SCC iter.                  ...        0 min,  0.102 sec
     gradient                   ...        0 min,  0.061 sec
 * total energy  :  -187.9162529 Eh     change       -0.2031580E-02 Eh
   gradient norm :     0.0056209 Eh/α   predicted    -0.1821356E-02 ( -10.35%)
   displ. norm   :     0.7967356 α      lambda       -0.1913191E-02
   maximum displ.:     0.5220096 α      in ANC's #12, #13, #14, ...

........................................................................
.............................. CYCLE   28 ..............................
........................................................................

 iter      E             dE          RMSdq      gap      omega  full diag
   1   -190.1508957 -0.190151E+03  0.979E-02    3.12       0.0  T
   2   -190.1508994 -0.371779E-05  0.599E-02    3.12       1.0  T
   3   -190.1508580  0.414030E-04  0.170E-02    3.13       1.0  T
   4   -190.1509029 -0.449141E-04  0.759E-03    3.12       1.2  T
   5   -190.1509032 -0.292215E-06  0.446E-03    3.12       2.1  T
   6   -190.1509042 -0.989578E-06  0.148E-03    3.12       6.3  T
   7   -190.1509042 -0.600984E-07  0.815E-04    3.12      11.3  T
   8   -190.1509043 -0.598888E-08  0.470E-04    3.12      19.7  T
     SCC iter.                  ...        0 min,  0.101 sec
     gradient                   ...        0 min,  0.061 sec
 * total energy  :  -187.9179527 Eh     change       -0.1699705E-02 Eh
   gradient norm :     0.0048842 Eh/α   predicted    -0.1563834E-02 (  -7.99%)
   displ. norm   :     0.7821681 α      lambda       -0.1530199E-02
   maximum displ.:     0.5158041 α      in ANC's #12, #13, #14, ...

........................................................................
.............................. CYCLE   29 ..............................
........................................................................

 iter      E             dE          RMSdq      gap      omega  full diag
   1   -190.1501804 -0.190150E+03  0.965E-02    3.12       0.0  T
   2   -190.1501840 -0.359704E-05  0.586E-02    3.11       1.0  T
   3   -190.1501534  0.305764E-04  0.150E-02    3.12       1.0  T
   4   -190.1501867 -0.333092E-04  0.678E-03    3.11       1.4  T
   5   -190.1501870 -0.281974E-06  0.414E-03    3.12       2.2  T
   6   -190.1501879 -0.893420E-06  0.140E-03    3.12       6.6  T
   7   -190.1501879 -0.596383E-07  0.743E-04    3.12      12.4  T
   8   -190.1501879 -0.853021E-09  0.445E-04    3.12      20.8  T
     SCC iter.                  ...        0 min,  0.105 sec
     gradient                   ...        0 min,  0.061 sec
 * total energy  :  -187.9193000 Eh     change       -0.1347316E-02 Eh
   gradient norm :     0.0047230 Eh/α   predicted    -0.1233179E-02 (  -8.47%)
   displ. norm   :     0.7562351 α      lambda       -0.1218887E-02
   maximum displ.:     0.5034586 α      in ANC's #12, #13, #14, ...

........................................................................
.............................. CYCLE   30 ..............................
........................................................................

 iter      E             dE          RMSdq      gap      omega  full diag
   1   -190.1501313 -0.190150E+03  0.936E-02    3.11       0.0  T
   2   -190.1501342 -0.294264E-05  0.564E-02    3.11       1.0  T
   3   -190.1501083  0.259488E-04  0.135E-02    3.12       1.0  T
   4   -190.1501367 -0.284068E-04  0.573E-03    3.11       1.6  T
   5   -190.1501369 -0.170704E-06  0.363E-03    3.11       2.5  T
   6   -190.1501376 -0.719283E-06  0.119E-03    3.11       7.8  T
   7   -190.1501376 -0.417940E-07  0.631E-04    3.11      14.6  T
   8   -190.1501376  0.652847E-09  0.393E-04    3.11      23.5  T
     SCC iter.                  ...        0 min,  0.104 sec
     gradient                   ...        0 min,  0.061 sec
 * total energy  :  -187.9203629 Eh     change       -0.1062904E-02 Eh
   gradient norm :     0.0050361 Eh/α   predicted    -0.9579812E-03 (  -9.87%)
   displ. norm   :     0.7400742 α      lambda       -0.9926469E-03
   maximum displ.:     0.4981880 α      in ANC's #12, #13, #14, ...

........................................................................
.............................. CYCLE   31 ..............................
........................................................................

 iter      E             dE          RMSdq      gap      omega  full diag
   1   -190.1507119 -0.190151E+03  0.944E-02    3.11       0.0  T
   2   -190.1507146 -0.266702E-05  0.566E-02    3.11       1.0  T
   3   -190.1506897  0.248816E-04  0.133E-02    3.12       1.0  T
   4   -190.1507171 -0.273831E-04  0.523E-03    3.11       1.8  T
   5   -190.1507171 -0.565593E-07  0.340E-03    3.11       2.7  T
   6   -190.1507177 -0.586550E-06  0.106E-03    3.11       8.7  T
   7   -190.1507178 -0.456623E-07  0.539E-04    3.11      17.1  T
   8   -190.1507178 -0.183755E-08  0.349E-04    3.11      26.5  T
     SCC iter.                  ...        0 min,  0.129 sec
     gradient                   ...        0 min,  0.060 sec
 * total energy  :  -187.9212119 Eh     change       -0.8490680E-03 Eh
   gradient norm :     0.0049591 Eh/α   predicted    -0.7681661E-03 (  -9.53%)
   displ. norm   :     0.7269122 α      lambda       -0.7996889E-03
   maximum displ.:     0.4946029 α      in ANC's #12, #14, #13, ...

........................................................................
.............................. CYCLE   32 ..............................
........................................................................

 iter      E             dE          RMSdq      gap      omega  full diag
   1   -190.1517524 -0.190152E+03  0.963E-02    3.11       0.0  T
   2   -190.1517550 -0.261883E-05  0.575E-02    3.10       1.0  T
   3   -190.1517311  0.239112E-04  0.128E-02    3.11       1.0  T
   4   -190.1517575 -0.263329E-04  0.483E-03    3.11       1.9  T
   5   -190.1517577 -0.181994E-06  0.314E-03    3.11       2.9  T
   6   -190.1517581 -0.439633E-06  0.105E-03    3.11       8.8  T
   7   -190.1517581 -0.518573E-07  0.505E-04    3.11      18.3  T
   8   -190.1517581 -0.226763E-08  0.322E-04    3.11      28.7  T
     SCC iter.                  ...        0 min,  0.101 sec
     gradient                   ...        0 min,  0.060 sec
 * total energy  :  -187.9218717 Eh     change       -0.6597167E-03 Eh
   gradient norm :     0.0050449 Eh/α   predicted    -0.6111254E-03 (  -7.37%)
   displ. norm   :     0.6917615 α      lambda       -0.6251129E-03
   maximum displ.:     0.4719866 α      in ANC's #12, #14, #24, ...

........................................................................
.............................. CYCLE   33 ..............................
........................................................................

 iter      E             dE          RMSdq      gap      omega  full diag
   1   -190.1533140 -0.190153E+03  0.966E-02    3.11       0.0  T
   2   -190.1533169 -0.296982E-05  0.577E-02    3.10       1.0  T
   3   -190.1532993  0.176468E-04  0.116E-02    3.11       1.0  T
   4   -190.1533188 -0.195296E-04  0.499E-03    3.10       1.9  T
   5   -190.1533191 -0.246768E-06  0.322E-03    3.11       2.9  T
   6   -190.1533194 -0.383023E-06  0.128E-03    3.10       7.2  T
   7   -190.1533195 -0.901572E-07  0.509E-04    3.11      18.2  T
   8   -190.1533195 -0.422619E-08  0.329E-04    3.11      28.1  T
     SCC iter.                  ...        0 min,  0.102 sec
     gradient                   ...        0 min,  0.061 sec
 * total energy  :  -187.9223463 Eh     change       -0.4746138E-03 Eh
   gradient norm :     0.0054423 Eh/α   predicted    -0.4621253E-03 (  -2.63%)
   displ. norm   :     0.6315056 α      lambda       -0.4807007E-03
   maximum displ.:     0.4211131 α      in ANC's #12, #14, #24, ...

........................................................................
.............................. CYCLE   34 ..............................
........................................................................

 iter      E             dE          RMSdq      gap      omega  full diag
   1   -190.1536256 -0.190154E+03  0.937E-02    3.11       0.0  T
   2   -190.1536282 -0.259264E-05  0.559E-02    3.10       1.0  T
   3   -190.1536141  0.141156E-04  0.106E-02    3.11       1.0  T
   4   -190.1536299 -0.157763E-04  0.466E-03    3.10       2.0  T
   5   -190.1536301 -0.216585E-06  0.297E-03    3.11       3.1  T
   6   -190.1536304 -0.311496E-06  0.117E-03    3.11       7.9  T
   7   -190.1536305 -0.886018E-07  0.519E-04    3.11      17.8  T
   8   -190.1536305 -0.316976E-08  0.306E-04    3.11      30.2  T
     SCC iter.                  ...        0 min,  0.102 sec
     gradient                   ...        0 min,  0.076 sec
 * total energy  :  -187.9226729 Eh     change       -0.3266253E-03 Eh
   gradient norm :     0.0053090 Eh/α   predicted    -0.3362042E-03 (   2.93%)
   displ. norm   :     0.4907222 α      lambda       -0.3178074E-03
   maximum displ.:     0.3071604 α      in ANC's #12, #14, #24, ...

........................................................................
.............................. CYCLE   35 ..............................
........................................................................

 iter      E             dE          RMSdq      gap      omega  full diag
   1   -190.1565906 -0.190157E+03  0.749E-02    3.10       0.0  T
   2   -190.1565926 -0.192118E-05  0.448E-02    3.10       1.0  T
   3   -190.1565863  0.628993E-05  0.761E-03    3.11       1.2  T
   4   -190.1565932 -0.694170E-05  0.398E-03    3.10       2.3  T
   5   -190.1565936 -0.388060E-06  0.254E-03    3.10       3.6  T
   6   -190.1565938 -0.163068E-06  0.114E-03    3.10       8.1  T
   7   -190.1565938 -0.774222E-07  0.463E-04    3.10      20.0  T
   8   -190.1565938 -0.259377E-08  0.263E-04    3.10      35.1  T
     SCC iter.                  ...        0 min,  0.101 sec
     gradient                   ...        0 min,  0.061 sec
 * total energy  :  -187.9229086 Eh     change       -0.2357118E-03 Eh
   gradient norm :     0.0031544 Eh/α   predicted    -0.1971708E-03 ( -16.35%)
   displ. norm   :     0.4685396 α      lambda       -0.2601338E-03
   maximum displ.:     0.2444299 α      in ANC's #12, #24, #14, ...

........................................................................
.............................. CYCLE   36 ..............................
........................................................................

 iter      E             dE          RMSdq      gap      omega  full diag
   1   -190.1569979 -0.190157E+03  0.757E-02    3.10       0.0  T
   2   -190.1569999 -0.195972E-05  0.455E-02    3.10       1.0  T
   3   -190.1569983  0.154476E-05  0.631E-03    3.10       1.5  T
   4   -190.1570003 -0.195919E-05  0.447E-03    3.10       2.1  T
   5   -190.1570007 -0.460653E-06  0.233E-03    3.10       4.0  T
   6   -190.1570008 -0.375986E-07  0.831E-04    3.10      11.1  T
   7   -190.1570008 -0.170482E-07  0.496E-04    3.10      18.6  T
     SCC iter.                  ...        0 min,  0.089 sec
     gradient                   ...        0 min,  0.061 sec
 * total energy  :  -187.9231046 Eh     change       -0.1960260E-03 Eh
   gradient norm :     0.0037479 Eh/α   predicted    -0.1586393E-03 ( -19.07%)
   displ. norm   :     0.4702096 α      lambda       -0.2697913E-03
   maximum displ.:     0.1473878 α      in ANC's #16, #50, #12, ...

........................................................................
.............................. CYCLE   37 ..............................
........................................................................

 iter      E             dE          RMSdq      gap      omega  full diag
   1   -190.1599016 -0.190160E+03  0.694E-02    3.10       0.0  T
   2   -190.1599034 -0.175200E-05  0.418E-02    3.10       1.0  T
   3   -190.1599020  0.140141E-05  0.608E-03    3.10       1.5  T
   4   -190.1599037 -0.177498E-05  0.432E-03    3.10       2.1  T
   5   -190.1599042 -0.427522E-06  0.255E-03    3.10       3.6  T
   6   -190.1599042 -0.901694E-07  0.810E-04    3.10      11.4  T
   7   -190.1599042 -0.232876E-08  0.506E-04    3.10      18.3  T
     SCC iter.                  ...        0 min,  0.091 sec
     gradient                   ...        0 min,  0.060 sec
 * total energy  :  -187.9232884 Eh     change       -0.1837808E-03 Eh
   gradient norm :     0.0047510 Eh/α   predicted    -0.1647216E-03 ( -10.37%)
   displ. norm   :     0.4212016 α      lambda       -0.2081546E-03
   maximum displ.:     0.1277013 α      in ANC's #50, #10, #16, ...

........................................................................
.............................. CYCLE   38 ..............................
........................................................................

 iter      E             dE          RMSdq      gap      omega  full diag
   1   -190.1563781 -0.190156E+03  0.638E-02    3.10       0.0  T
   2   -190.1563796 -0.151223E-05  0.391E-02    3.10       1.0  T
   3   -190.1563674  0.121895E-04  0.968E-03    3.10       1.0  T
   4   -190.1563794 -0.120302E-04  0.564E-03    3.10       1.6  T
   5   -190.1563807 -0.129604E-05  0.343E-03    3.10       2.7  T
   6   -190.1563811 -0.420601E-06  0.119E-03    3.10       7.7  T
   7   -190.1563811 -0.197305E-07  0.451E-04    3.10      20.5  T
   8   -190.1563811 -0.289069E-08  0.254E-04    3.10      36.3  T
     SCC iter.                  ...        0 min,  0.103 sec
     gradient                   ...        0 min,  0.061 sec
 * total energy  :  -187.9234153 Eh     change       -0.1269229E-03 Eh
   gradient norm :     0.0048045 Eh/α   predicted    -0.1225425E-03 (  -3.45%)
   displ. norm   :     0.2993768 α      lambda       -0.1467703E-03
   maximum displ.:     0.1174786 α      in ANC's #13, #10, #26, ...

........................................................................
.............................. CYCLE   39 ..............................
........................................................................

 iter      E             dE          RMSdq      gap      omega  full diag
   1   -190.1603096 -0.190160E+03  0.287E-02    3.10       0.0  T
   2   -190.1603105 -0.862915E-06  0.182E-02    3.10       1.0  T
   3   -190.1603086  0.186455E-05  0.495E-03    3.10       1.9  T
   4   -190.1603103 -0.166301E-05  0.341E-03    3.10       2.7  T
   5   -190.1603108 -0.527352E-06  0.205E-03    3.10       4.5  T
   6   -190.1603109 -0.353509E-07  0.837E-04    3.10      11.0  T
   7   -190.1603109 -0.442963E-07  0.397E-04    3.10      23.3  T
     SCC iter.                  ...        0 min,  0.088 sec
     gradient                   ...        0 min,  0.061 sec
 * total energy  :  -187.9235016 Eh     change       -0.8623641E-04 Eh
   gradient norm :     0.0040807 Eh/α   predicted    -0.7996322E-04 (  -7.27%)
   displ. norm   :     0.2619047 α      lambda       -0.1301537E-03
   maximum displ.:     0.0953810 α      in ANC's #23, #6, #10, ...

........................................................................
.............................. CYCLE   40 ..............................
........................................................................

 iter      E             dE          RMSdq      gap      omega  full diag
   1   -190.1558472 -0.190156E+03  0.364E-02    3.10       0.0  T
   2   -190.1558482 -0.941795E-06  0.221E-02    3.10       1.0  T
   3   -190.1558434  0.479584E-05  0.638E-03    3.10       1.4  T
   4   -190.1558486 -0.517149E-05  0.347E-03    3.10       2.7  T
   5   -190.1558488 -0.243077E-06  0.229E-03    3.10       4.0  T
   6   -190.1558488  0.379623E-07  0.101E-03    3.10       9.1  T
   7   -190.1558488 -0.841505E-07  0.364E-04    3.10      25.4  T
   8   -190.1558489 -0.261954E-08  0.165E-04    3.10      55.9  T
     SCC iter.                  ...        0 min,  0.107 sec
     gradient                   ...        0 min,  0.061 sec
 * total energy  :  -187.9235647 Eh     change       -0.6307830E-04 Eh
   gradient norm :     0.0044200 Eh/α   predicted    -0.6954176E-04 (  10.25%)
   displ. norm   :     0.1540057 α      lambda       -0.9597561E-04
   maximum displ.:     0.0614121 α      in ANC's #12, #9, #10, ...

........................................................................
.............................. CYCLE   41 ..............................
........................................................................

 iter      E             dE          RMSdq      gap      omega  full diag
   1   -190.1580126 -0.190158E+03  0.192E-02    3.10       0.0  T
   2   -190.1580130 -0.368436E-06  0.119E-02    3.10       1.0  T
   3   -190.1580125  0.408199E-06  0.306E-03    3.10       3.0  T
   4   -190.1580130 -0.452165E-06  0.191E-03    3.10       4.9  T
   5   -190.1580131 -0.612894E-07  0.115E-03    3.10       8.1  T
   6   -190.1580131 -0.579317E-08  0.493E-04    3.10      18.7  T
   7   -190.1580131 -0.214864E-07  0.246E-04    3.10      37.6  T
     SCC iter.                  ...        0 min,  0.092 sec
     gradient                   ...        0 min,  0.066 sec
 * total energy  :  -187.9236333 Eh     change       -0.6864442E-04 Eh
   gradient norm :     0.0035856 Eh/α   predicted    -0.4912713E-04 ( -28.43%)
   displ. norm   :     0.2400575 α      lambda       -0.1255049E-03
   maximum displ.:     0.0967626 α      in ANC's #6, #9, #5, ...

........................................................................
.............................. CYCLE   42 ..............................
........................................................................

 iter      E             dE          RMSdq      gap      omega  full diag
   1   -190.1577747 -0.190158E+03  0.265E-02    3.10       0.0  T
   2   -190.1577753 -0.619612E-06  0.163E-02    3.10       1.0  T
   3   -190.1577746  0.689777E-06  0.393E-03    3.10       2.4  T
   4   -190.1577755 -0.871648E-06  0.252E-03    3.10       3.7  T
   5   -190.1577755 -0.551732E-07  0.141E-03    3.10       6.6  T
   6   -190.1577755 -0.817238E-08  0.585E-04    3.10      15.8  T
   7   -190.1577756 -0.168665E-07  0.276E-04    3.10      33.5  T
     SCC iter.                  ...        0 min,  0.119 sec
     gradient                   ...        0 min,  0.066 sec
 * total energy  :  -187.9237206 Eh     change       -0.8728805E-04 Eh
   gradient norm :     0.0038098 Eh/α   predicted    -0.6636997E-04 ( -23.96%)
   displ. norm   :     0.2963154 α      lambda       -0.1227656E-03
   maximum displ.:     0.1232571 α      in ANC's #6, #9, #5, ...
 * RMSD in coord.:     0.9076507 α      energy gain  -0.2534449E-01 Eh

generating ANC from exact Hessian ...
Using Lindh-Hessian (1995)
 Shifting diagonal of input Hessian by    1.0040244487449305E-002
 Lowest  eigenvalues of input Hessian
    0.010000    0.010003    0.010010    0.010014    0.000000    0.000000
    0.000000    0.000000    0.000000    0.000000    0.010052    0.010064
    0.010085    0.010103    0.010123    0.010273    0.010395    0.010492
 Highest eigenvalues
    1.889255    1.894920    1.960557    1.966081    1.966711    1.969001


........................................................................
.............................. CYCLE   43 ..............................
........................................................................

 iter      E             dE          RMSdq      gap      omega  full diag
   1   -190.1567939 -0.190157E+03  0.305E-02    3.10       0.0  T
   2   -190.1567945 -0.647142E-06  0.187E-02    3.10       1.0  T
   3   -190.1567929  0.166219E-05  0.506E-03    3.10       1.8  T
   4   -190.1567947 -0.186387E-05  0.287E-03    3.10       3.2  T
   5   -190.1567947  0.281600E-07  0.187E-03    3.10       4.9  T
   6   -190.1567949 -0.172531E-06  0.722E-04    3.10      12.8  T
   7   -190.1567949 -0.360737E-07  0.306E-04    3.10      30.2  T
     SCC iter.                  ...        0 min,  0.098 sec
     gradient                   ...        0 min,  0.080 sec
 * total energy  :  -187.9238079 Eh     change       -0.8730019E-04 Eh
   gradient norm :     0.0046131 Eh/α   predicted     0.0000000E+00 (-100.00%)
   displ. norm   :     0.0632131 α      lambda       -0.8157078E-04
   maximum displ.:     0.0336717 α      in ANC's #9, #5, #7, ...

........................................................................
.............................. CYCLE   44 ..............................
........................................................................

 iter      E             dE          RMSdq      gap      omega  full diag
   1   -190.1570759 -0.190157E+03  0.139E-02    3.10       0.0  T
   2   -190.1570761 -0.190421E-06  0.917E-03    3.10       1.0  T
   3   -190.1570758  0.291635E-06  0.263E-03    3.10       3.5  T
   4   -190.1570761 -0.329458E-06  0.162E-03    3.10       5.7  T
   5   -190.1570761 -0.137534E-07  0.838E-04    3.10      11.0  T
   6   -190.1570761 -0.276135E-07  0.374E-04    3.10      24.7  T
     SCC iter.                  ...        0 min,  0.085 sec
     gradient                   ...        0 min,  0.065 sec
 * total energy  :  -187.9238732 Eh     change       -0.6530935E-04 Eh
   gradient norm :     0.0022957 Eh/α   predicted    -0.4163711E-04 ( -36.25%)
   displ. norm   :     0.1630333 α      lambda       -0.1230168E-03
   maximum displ.:     0.0877979 α      in ANC's #9, #5, #7, ...

........................................................................
.............................. CYCLE   45 ..............................
........................................................................

 iter      E             dE          RMSdq      gap      omega  full diag
   1   -190.1575680 -0.190158E+03  0.234E-02    3.10       0.0  T
   2   -190.1575687 -0.683478E-06  0.153E-02    3.10       1.0  T
   3   -190.1575679  0.756377E-06  0.451E-03    3.10       2.1  T
   4   -190.1575687 -0.842169E-06  0.284E-03    3.10       3.3  T
   5   -190.1575689 -0.117518E-06  0.146E-03    3.10       6.3  T
   6   -190.1575689 -0.482874E-07  0.727E-04    3.10      12.7  T
   7   -190.1575690 -0.403765E-07  0.317E-04    3.10      29.1  T
     SCC iter.                  ...        0 min,  0.096 sec
     gradient                   ...        0 min,  0.073 sec
 * total energy  :  -187.9239604 Eh     change       -0.8719858E-04 Eh
   gradient norm :     0.0025003 Eh/α   predicted    -0.6314405E-04 ( -27.59%)
   displ. norm   :     0.1882397 α      lambda       -0.8941910E-04
   maximum displ.:     0.1025413 α      in ANC's #9, #5, #7, ...

........................................................................
.............................. CYCLE   46 ..............................
........................................................................

 iter      E             dE          RMSdq      gap      omega  full diag
   1   -190.1579470 -0.190158E+03  0.200E-02    3.10       0.0  T
   2   -190.1579474 -0.442013E-06  0.126E-02    3.10       1.0  T
   3   -190.1579467  0.667096E-06  0.370E-03    3.10       2.5  T
   4   -190.1579475 -0.793204E-06  0.217E-03    3.10       4.3  T
   5   -190.1579476 -0.415077E-07  0.120E-03    3.10       7.7  T
   6   -190.1579476 -0.221628E-07  0.530E-04    3.10      17.4  T
   7   -190.1579476 -0.166649E-07  0.289E-04    3.10      32.0  T
     SCC iter.                  ...        0 min,  0.097 sec
     gradient                   ...        0 min,  0.066 sec
 * total energy  :  -187.9240352 Eh     change       -0.7476179E-04 Eh
   gradient norm :     0.0040502 Eh/α   predicted    -0.4629433E-04 ( -38.08%)
   displ. norm   :     0.2996913 α      lambda       -0.1378428E-03
   maximum displ.:     0.1603836 α      in ANC's #9, #5, #7, ...

........................................................................
.............................. CYCLE   47 ..............................
........................................................................

 iter      E             dE          RMSdq      gap      omega  full diag
   1   -190.1583186 -0.190158E+03  0.289E-02    3.10       0.0  T
   2   -190.1583192 -0.658367E-06  0.179E-02    3.10       1.0  T
   3   -190.1583179  0.134038E-05  0.470E-03    3.10       2.0  T
   4   -190.1583195 -0.160868E-05  0.262E-03    3.10       3.5  T
   5   -190.1583195 -0.187737E-07  0.158E-03    3.10       5.9  T
   6   -190.1583196 -0.420189E-07  0.668E-04    3.10      13.8  T
   7   -190.1583196 -0.355548E-07  0.352E-04    3.10      26.3  T
     SCC iter.                  ...        0 min,  0.101 sec
     gradient                   ...        0 min,  0.065 sec
 * total energy  :  -187.9241562 Eh     change       -0.1210897E-03 Eh
   gradient norm :     0.0047803 Eh/α   predicted    -0.7511254E-04 ( -37.97%)
   displ. norm   :     0.4579267 α      lambda       -0.2086692E-03
   maximum displ.:     0.2447702 α      in ANC's #9, #5, #7, ...

........................................................................
.............................. CYCLE   48 ..............................
........................................................................

 iter      E             dE          RMSdq      gap      omega  full diag
   1   -190.1584562 -0.190158E+03  0.433E-02    3.11       0.0  T
   2   -190.1584573 -0.106344E-05  0.263E-02    3.11       1.0  T
   3   -190.1584544  0.286937E-05  0.623E-03    3.11       1.5  T
   4   -190.1584579 -0.344854E-05  0.324E-03    3.11       2.8  T
   5   -190.1584578  0.352140E-07  0.201E-03    3.10       4.6  T
   6   -190.1584579 -0.101884E-06  0.805E-04    3.11      11.5  T
   7   -190.1584580 -0.596199E-07  0.405E-04    3.10      22.8  T
     SCC iter.                  ...        0 min,  0.097 sec
     gradient                   ...        0 min,  0.065 sec
 * total energy  :  -187.9243371 Eh     change       -0.1808202E-03 Eh
   gradient norm :     0.0046429 Eh/α   predicted    -0.1262179E-03 ( -30.20%)
   displ. norm   :     0.5488815 α      lambda       -0.2338151E-03
   maximum displ.:     0.2967114 α      in ANC's #9, #5, #7, ...

........................................................................
.............................. CYCLE   49 ..............................
........................................................................

 iter      E             dE          RMSdq      gap      omega  full diag
   1   -190.1583273 -0.190158E+03  0.516E-02    3.11       0.0  T
   2   -190.1583286 -0.131404E-05  0.312E-02    3.11       1.0  T
   3   -190.1583250  0.357540E-05  0.670E-03    3.11       1.4  T
   4   -190.1583294 -0.435540E-05  0.336E-03    3.11       2.8  T
   5   -190.1583294  0.624922E-08  0.192E-03    3.11       4.8  T
   6   -190.1583295 -0.963561E-07  0.701E-04    3.11      13.2  T
   7   -190.1583295 -0.300586E-07  0.387E-04    3.11      23.9  T
     SCC iter.                  ...        0 min,  0.098 sec
     gradient                   ...        0 min,  0.065 sec
 * total energy  :  -187.9245377 Eh     change       -0.2006020E-03 Eh
   gradient norm :     0.0040240 Eh/α   predicted    -0.1521296E-03 ( -24.16%)
   displ. norm   :     0.5683523 α      lambda       -0.2299213E-03
   maximum displ.:     0.3118226 α      in ANC's #9, #5, #7, ...

........................................................................
.............................. CYCLE   50 ..............................
........................................................................

 iter      E             dE          RMSdq      gap      omega  full diag
   1   -190.1584572 -0.190158E+03  0.526E-02    3.11       0.0  T
   2   -190.1584586 -0.141891E-05  0.318E-02    3.11       1.0  T
   3   -190.1584551  0.351408E-05  0.661E-03    3.11       1.4  T
   4   -190.1584594 -0.429867E-05  0.338E-03    3.11       2.7  T
   5   -190.1584594 -0.120877E-07  0.179E-03    3.11       5.2  T
   6   -190.1584595 -0.105113E-06  0.709E-04    3.11      13.0  T
   7   -190.1584595 -0.163514E-07  0.355E-04    3.11      26.1  T
     SCC iter.                  ...        0 min,  0.098 sec
     gradient                   ...        0 min,  0.065 sec
 * total energy  :  -187.9247368 Eh     change       -0.1991283E-03 Eh
   gradient norm :     0.0034166 Eh/α   predicted    -0.1521038E-03 ( -23.62%)
   displ. norm   :     0.5855913 α      lambda       -0.2379103E-03
   maximum displ.:     0.3249820 α      in ANC's #9, #5, #7, ...

........................................................................
.............................. CYCLE   51 ..............................
........................................................................

 iter      E             dE          RMSdq      gap      omega  full diag
   1   -190.1589532 -0.190159E+03  0.534E-02    3.11       0.0  T
   2   -190.1589548 -0.159117E-05  0.324E-02    3.11       1.0  T
   3   -190.1589513  0.345024E-05  0.688E-03    3.11       1.3  T
   4   -190.1589555 -0.419780E-05  0.380E-03    3.11       2.4  T
   5   -190.1589555 -0.375030E-07  0.198E-03    3.11       4.7  T
   6   -190.1589557 -0.150353E-06  0.821E-04    3.11      11.3  T
   7   -190.1589557 -0.222128E-07  0.414E-04    3.11      22.3  T
     SCC iter.                  ...        0 min,  0.096 sec
     gradient                   ...        0 min,  0.065 sec
 * total energy  :  -187.9249461 Eh     change       -0.2093106E-03 Eh
   gradient norm :     0.0035714 Eh/α   predicted    -0.1597810E-03 ( -23.66%)
   displ. norm   :     0.6328783 α      lambda       -0.2648786E-03
   maximum displ.:     0.3520908 α      in ANC's #9, #5, #7, ...

........................................................................
.............................. CYCLE   52 ..............................
........................................................................

 iter      E             dE          RMSdq      gap      omega  full diag
   1   -190.1592509 -0.190159E+03  0.575E-02    3.12       0.0  T
   2   -190.1592526 -0.178780E-05  0.352E-02    3.11       1.0  T
   3   -190.1592489  0.376915E-05  0.766E-03    3.12       1.2  T
   4   -190.1592533 -0.445433E-05  0.463E-03    3.11       2.0  T
   5   -190.1592534 -0.104329E-06  0.242E-03    3.11       3.8  T
   6   -190.1592537 -0.270113E-06  0.969E-04    3.11       9.5  T
   7   -190.1592537 -0.407153E-07  0.486E-04    3.11      19.0  T
     SCC iter.                  ...        0 min,  0.121 sec
     gradient                   ...        0 min,  0.069 sec
[...]
   116   1 H        0.924     0.054     2.265     2.354
   117   1 H        0.924     0.060     2.198     2.318

 Mol. C6AA /au·bohr⁶  :     158759.564827
 Mol. C8AA /au·bohr⁸  :    4181139.058285
 Mol. α(0) /au        :        626.860804


Wiberg/Mayer (AO) data.
largest (>0.10) Wiberg bond orders for each atom

 ---------------------------------------------------------------------------
     #   Z sym  total        # sym  WBO       # sym  WBO       # sym  WBO
 ---------------------------------------------------------------------------
     1   6 C    3.977 --    64 H    0.993    63 H    0.992    62 H    0.990
                             2 Si   0.880
     2  14 Si   3.587 --    10 C    0.919     1 C    0.880     3 C    0.877
                             4 C    0.819
     3   6 C    3.973 --    67 H    0.994    66 H    0.992    65 H    0.990
                             2 Si   0.877
     4   6 C    3.947 --     5 C    1.018    68 H    0.988    69 H    0.985
                             2 Si   0.819
     5   6 C    3.977 --     4 C    1.018    71 H    0.973    70 H    0.969
                             6 C    0.963
     6   6 C    3.820 --     5 C    0.963     7 F    0.956     9 F    0.955
                             8 F    0.926
     7   9 F    1.079 --     6 C    0.956
     8   9 F    1.047 --     6 C    0.926
     9   9 F    1.084 --     6 C    0.955
    10   6 C    3.983 --    11 C    1.402    15 C    1.401     2 Si   0.919
                            13 C    0.108
    11   6 C    3.990 --    12 C    1.464    10 C    1.402    72 H    0.972
    12   6 C    3.989 --    11 C    1.464    13 C    1.400    73 H    0.965
    13   6 C    3.905 --    12 C    1.400    14 C    1.390    16 B    0.889
                            10 C    0.108
    14   6 C    3.989 --    15 C    1.468    13 C    1.390    74 H    0.968
    15   6 C    3.990 --    14 C    1.468    10 C    1.401    75 H    0.972
    16   5 B    3.660 --    13 C    0.889    32 C    0.886    47 C    0.885
                            17 C    0.885
    17   6 C    3.900 --    18 C    1.402    22 C    1.382    16 B    0.885
                            20 C    0.107
    18   6 C    3.989 --    19 C    1.461    17 C    1.402    76 H    0.964
    19   6 C    3.991 --    18 C    1.461    20 C    1.405    77 H    0.972
    20   6 C    3.982 --    19 C    1.405    21 C    1.395    23 Si   0.921
                            17 C    0.107
    21   6 C    3.990 --    22 C    1.473    20 C    1.395    78 H    0.971
    22   6 C    3.989 --    21 C    1.473    17 C    1.382    79 H    0.968
    23  14 Si   3.588 --    20 C    0.921    25 C    0.880    24 C    0.878
                            26 C    0.818
    24   6 C    3.973 --    80 H    0.994    82 H    0.991    81 H    0.989
                            23 Si   0.878
    25   6 C    3.976 --    85 H    0.993    83 H    0.992    84 H    0.990
                            23 Si   0.880
    26   6 C    3.947 --    27 C    1.018    86 H    0.988    87 H    0.985
                            23 Si   0.818
    27   6 C    3.977 --    26 C    1.018    89 H    0.973    88 H    0.969
                            28 C    0.963
    28   6 C    3.820 --    27 C    0.963    29 F    0.956    31 F    0.955
                            30 F    0.925
    29   9 F    1.080 --    28 C    0.956
    30   9 F    1.045 --    28 C    0.925
    31   9 F    1.084 --    28 C    0.955
    32   6 C    3.900 --    37 C    1.404    33 C    1.380    16 B    0.886
                            35 C    0.107
    33   6 C    3.989 --    34 C    1.476    32 C    1.380    90 H    0.967
    34   6 C    3.989 --    33 C    1.476    35 C    1.393    91 H    0.973
    35   6 C    3.981 --    36 C    1.406    34 C    1.393    38 Si   0.921
                            32 C    0.107
    36   6 C    3.991 --    37 C    1.459    35 C    1.406    92 H    0.971
    37   6 C    3.989 --    36 C    1.459    32 C    1.404    93 H    0.965
    38  14 Si   3.586 --    35 C    0.921    40 C    0.885    39 C    0.877
                            41 C    0.815
    39   6 C    3.973 --    94 H    0.995    96 H    0.992    95 H    0.990
                            38 Si   0.877
    40   6 C    3.975 --    99 H    0.990    97 H    0.989    98 H    0.987
                            38 Si   0.885
    41   6 C    3.946 --    42 C    1.017   100 H    0.988   101 H    0.988
                            38 Si   0.815
    42   6 C    3.976 --    41 C    1.017   103 H    0.972   102 H    0.969
                            43 C    0.964
    43   6 C    3.818 --    42 C    0.964    46 F    0.957    44 F    0.950
                            45 F    0.926
    44   9 F    1.073 --    43 C    0.950
    45   9 F    1.046 --    43 C    0.926
    46   9 F    1.084 --    43 C    0.957
    47   6 C    3.899 --    48 C    1.396    52 C    1.388    16 B    0.885
                            50 C    0.107
    48   6 C    3.989 --    49 C    1.468    47 C    1.396   104 H    0.964
    49   6 C    3.990 --    48 C    1.468    50 C    1.399   105 H    0.973
    50   6 C    3.982 --    51 C    1.400    49 C    1.399    53 Si   0.920
                            47 C    0.107
    51   6 C    3.990 --    52 C    1.467    50 C    1.400   106 H    0.970
    52   6 C    3.989 --    51 C    1.467    47 C    1.388   107 H    0.968
    53  14 Si   3.586 --    50 C    0.920    55 C    0.883    54 C    0.879
                            56 C    0.814
    54   6 C    3.973 --   108 H    0.994   110 H    0.990   109 H    0.989
                            53 Si   0.879
    55   6 C    3.975 --   113 H    0.992   111 H    0.990   112 H    0.988
                            53 Si   0.883
    56   6 C    3.947 --    57 C    1.018   114 H    0.988   115 H    0.987
                            53 Si   0.814
    57   6 C    3.976 --    56 C    1.018   117 H    0.972   116 H    0.969
                            58 C    0.964
    58   6 C    3.819 --    57 C    0.964    61 F    0.958    59 F    0.951
                            60 F    0.925
    59   9 F    1.074 --    58 C    0.951
    60   9 F    1.046 --    58 C    0.925
    61   9 F    1.087 --    58 C    0.958
    62   1 H    0.999 --     1 C    0.990
    63   1 H    0.999 --     1 C    0.992
    64   1 H    0.999 --     1 C    0.993
    65   1 H    0.999 --     3 C    0.990
    66   1 H    0.999 --     3 C    0.992
    67   1 H    0.999 --     3 C    0.994
    68   1 H    0.999 --     4 C    0.988
    69   1 H    0.999 --     4 C    0.985
    70   1 H    0.997 --     5 C    0.969
    71   1 H    0.996 --     5 C    0.973
    72   1 H    1.000 --    11 C    0.972
    73   1 H    0.999 --    12 C    0.965
    74   1 H    0.999 --    14 C    0.968
    75   1 H    0.999 --    15 C    0.972
    76   1 H    0.999 --    18 C    0.964
    77   1 H    1.000 --    19 C    0.972
    78   1 H    0.999 --    21 C    0.971
    79   1 H    0.999 --    22 C    0.968
    80   1 H    0.999 --    24 C    0.994
    81   1 H    0.999 --    24 C    0.989
    82   1 H    0.999 --    24 C    0.991
    83   1 H    0.999 --    25 C    0.992
    84   1 H    0.999 --    25 C    0.990
    85   1 H    0.999 --    25 C    0.993
    86   1 H    0.999 --    26 C    0.988
    87   1 H    0.999 --    26 C    0.985
    88   1 H    0.997 --    27 C    0.969
    89   1 H    0.996 --    27 C    0.973
    90   1 H    0.999 --    33 C    0.967
    91   1 H    0.999 --    34 C    0.973
    92   1 H    1.000 --    36 C    0.971
    93   1 H    0.999 --    37 C    0.965
    94   1 H    0.999 --    39 C    0.995
    95   1 H    0.999 --    39 C    0.990
    96   1 H    0.999 --    39 C    0.992
    97   1 H    0.999 --    40 C    0.989
    98   1 H    0.999 --    40 C    0.987
    99   1 H    0.999 --    40 C    0.990
   100   1 H    0.999 --    41 C    0.988
   101   1 H    0.999 --    41 C    0.988
   102   1 H    0.997 --    42 C    0.969
   103   1 H    0.996 --    42 C    0.972
   104   1 H    0.999 --    48 C    0.964
   105   1 H    0.999 --    49 C    0.973
   106   1 H    0.999 --    51 C    0.970
   107   1 H    0.999 --    52 C    0.968
   108   1 H    0.999 --    54 C    0.994
   109   1 H    0.999 --    54 C    0.989
   110   1 H    0.999 --    54 C    0.990
   111   1 H    0.999 --    55 C    0.990
   112   1 H    0.999 --    55 C    0.988
   113   1 H    0.999 --    55 C    0.992
   114   1 H    0.999 --    56 C    0.988
   115   1 H    0.999 --    56 C    0.987
   116   1 H    0.997 --    57 C    0.969
   117   1 H    0.996 --    57 C    0.972
 ---------------------------------------------------------------------------

Topologies differ in total number of bonds
Writing topology from bond orders to xtbtopo.mol

molecular dipole:
                 x           y           z       tot (Debye)
 q only:       -3.002      10.866       0.095
   full:       -3.227      11.072       0.105      29.313
molecular quadrupole (traceless):
                xx          xy          yy          xz          yz          zz
 q only:       34.833      44.942     -96.701     -15.528       8.644      61.867
  q+dip:       38.735      51.820    -105.499     -16.252       6.736      66.765
   full:       39.435      51.469    -106.529     -15.525       6.484      67.093

           -------------------------------------------------
          |                Geometry Summary                 |
           -------------------------------------------------

      molecular mass/u    :      936.0509224
   center of mass at/Å    :        2.0090777      -6.4380247       0.0877092
  moments of inertia/u·Å² :        0.2097692E+05   0.2309101E+05   0.2636486E+05
rotational constants/cm⁻¹ :        0.8036278E-03   0.7300517E-03   0.6393978E-03

 * 116 selected distances

     #   Z          #   Z                                           value/Å
     1   6 C        2  14 Si                                      1.9101525
     2  14 Si       3   6 C                                       1.9150815
     2  14 Si       4   6 C                                       1.9342898 (max)
     4   6 C        5   6 C                                       1.5245633
     5   6 C        6   6 C                                       1.5124621
     6   6 C        7   9 F                                       1.3367438
     6   6 C        8   9 F                                       1.3563584
     6   6 C        9   9 F                                       1.3360631
     2  14 Si      10   6 C                                       1.8770069
    10   6 C       11   6 C                                       1.3957705
    11   6 C       12   6 C                                       1.3805283
    12   6 C       13   6 C                                       1.3940543
    13   6 C       14   6 C                                       1.3969662
    10   6 C       15   6 C                                       1.3951127
    14   6 C       15   6 C                                       1.3800039
    17   6 C       18   6 C                                       1.3936852
    18   6 C       19   6 C                                       1.3814168
    19   6 C       20   6 C                                       1.3945996
    20   6 C       21   6 C                                       1.3968541
    17   6 C       22   6 C                                       1.3979497
    21   6 C       22   6 C                                       1.3787806
    20   6 C       23  14 Si                                      1.8763661
    23  14 Si      24   6 C                                       1.9159547
    23  14 Si      25   6 C                                       1.9109044
    23  14 Si      26   6 C                                       1.9325059
    26   6 C       27   6 C                                       1.5243533
    27   6 C       28   6 C                                       1.5121661
    28   6 C       29   9 F                                       1.3363942
    28   6 C       30   9 F                                       1.3575022
    28   6 C       31   9 F                                       1.3362644
    32   6 C       33   6 C                                       1.3981806
    33   6 C       34   6 C                                       1.3782145
    34   6 C       35   6 C                                       1.3976402
    35   6 C       36   6 C                                       1.3949624
    32   6 C       37   6 C                                       1.3933900
    36   6 C       37   6 C                                       1.3823190
    35   6 C       38  14 Si                                      1.8777718
    38  14 Si      39   6 C                                       1.9172208
    38  14 Si      40   6 C                                       1.9153297
    38  14 Si      41   6 C                                       1.9336975
    41   6 C       42   6 C                                       1.5259146
    42   6 C       43   6 C                                       1.5104173
    43   6 C       44   9 F                                       1.3403089
    43   6 C       45   9 F                                       1.3559993
    43   6 C       46   9 F                                       1.3352747
    47   6 C       48   6 C                                       1.3945288
    48   6 C       49   6 C                                       1.3798371
    49   6 C       50   6 C                                       1.3964457
    50   6 C       51   6 C                                       1.3953780
    47   6 C       52   6 C                                       1.3970590
    51   6 C       52   6 C                                       1.3805773
    50   6 C       53  14 Si                                      1.8769875
    53  14 Si      54   6 C                                       1.9171255
    53  14 Si      55   6 C                                       1.9142530
    53  14 Si      56   6 C                                       1.9309086
    56   6 C       57   6 C                                       1.5244383
    57   6 C       58   6 C                                       1.5105950
    58   6 C       59   9 F                                       1.3397192
    58   6 C       60   9 F                                       1.3566625
    58   6 C       61   9 F                                       1.3348054
     1   6 C       62   1 H                                       1.0870794
     1   6 C       63   1 H                                       1.0846236
     1   6 C       64   1 H                                       1.0850727
     3   6 C       65   1 H                                       1.0865632
     3   6 C       66   1 H                                       1.0852217
     3   6 C       67   1 H                                       1.0850107
     4   6 C       68   1 H                                       1.0894390
     4   6 C       69   1 H                                       1.0904150
     5   6 C       70   1 H                                       1.0946609
     5   6 C       71   1 H                                       1.0909835
    11   6 C       72   1 H                                       1.0839697
    12   6 C       73   1 H                                       1.0814559
    14   6 C       74   1 H                                       1.0824312
    15   6 C       75   1 H                                       1.0820956
    18   6 C       76   1 H                                       1.0818085
    19   6 C       77   1 H                                       1.0827269
    21   6 C       78   1 H                                       1.0838490
    22   6 C       79   1 H                                       1.0821167
    24   6 C       80   1 H                                       1.0851593
    24   6 C       81   1 H                                       1.0864956
    24   6 C       82   1 H                                       1.0854111
    25   6 C       83   1 H                                       1.0848208
    25   6 C       84   1 H                                       1.0870545
    25   6 C       85   1 H                                       1.0850626
    26   6 C       86   1 H                                       1.0891068
    26   6 C       87   1 H                                       1.0903293
    27   6 C       88   1 H                                       1.0946571
    27   6 C       89   1 H                                       1.0909887
    33   6 C       90   1 H                                       1.0827142
    34   6 C       91   1 H                                       1.0834840
    36   6 C       92   1 H                                       1.0819888
    37   6 C       93   1 H                                       1.0812818 (min)
    39   6 C       94   1 H                                       1.0847605
    39   6 C       95   1 H                                       1.0868464
    39   6 C       96   1 H                                       1.0856030
    40   6 C       97   1 H                                       1.0844414
    40   6 C       98   1 H                                       1.0875531
    40   6 C       99   1 H                                       1.0857430
    41   6 C      100   1 H                                       1.0888937
    41   6 C      101   1 H                                       1.0897980
    42   6 C      102   1 H                                       1.0946803
    42   6 C      103   1 H                                       1.0904140
    48   6 C      104   1 H                                       1.0817152
    49   6 C      105   1 H                                       1.0837676
    51   6 C      106   1 H                                       1.0827572
    52   6 C      107   1 H                                       1.0822376
    54   6 C      108   1 H                                       1.0849481
    54   6 C      109   1 H                                       1.0866703
    54   6 C      110   1 H                                       1.0856984
    55   6 C      111   1 H                                       1.0849898
    55   6 C      112   1 H                                       1.0874238
    55   6 C      113   1 H                                       1.0851308
    56   6 C      114   1 H                                       1.0887919
    56   6 C      115   1 H                                       1.0900295
    57   6 C      116   1 H                                       1.0948014
    57   6 C      117   1 H                                       1.0906351

 * 4 distinct bonds (by element types)

   Z      Z             #   av. dist./Å        max./Å        min./Å
   1 H    6 C          56     1.0863644     1.0948014     1.0812818
   6 C    6 C          32     1.4224739     1.5259146     1.3782145
   6 C    9 F          12     1.3435080     1.3575022     1.3348054
   6 C   14 Si         16     1.9097223     1.9342898     1.8763661


optimized geometry written to: xtbopt.xyz


           -------------------------------------------------
          | TOTAL ENERGY             -187.928232269996 Eh   |
          | GRADIENT NORM               0.000363140313 Eh/α |
          | HOMO-LUMO GAP               3.152578701565 eV   |
           -------------------------------------------------

------------------------------------------------------------------------
 * finished run on 2024/12/20 at 01:53:56.712     
------------------------------------------------------------------------
 total:
 * wall-time:     0 d,  0 h,  0 min, 22.980 sec
 *  cpu-time:     0 d,  0 h,  3 min,  0.396 sec
 * ratio c/w:     7.850 speedup
 SCF:
 * wall-time:     0 d,  0 h,  0 min,  0.293 sec
 *  cpu-time:     0 d,  0 h,  0 min,  2.334 sec
 * ratio c/w:     7.963 speedup
 ANC optimizer:
 * wall-time:     0 d,  0 h,  0 min, 22.649 sec
 *  cpu-time:     0 d,  0 h,  2 min, 57.777 sec
 * ratio c/w:     7.849 speedup

