117
 energy: -185.948227131576 gnorm: 1.208265793597 xtb: 6.7.1 (edcfbbe)
C            1.06761000000000       -0.07368000000000        0.00040000000000
Si           0.44428000000000       -1.26895000000000        1.29642000000000
C            1.06760000000000       -0.74421000000000        2.97957000000000
C           -1.42572000000000       -1.26896000000000        1.29641000000000
C           -1.93239000000000       -1.69548000000000       -0.07171000000000
C           -1.42573000000000       -3.09358000000000       -0.38639000000000
F           -1.86907000000000       -3.94370000000000        0.53537000000000
F           -1.86906000000000       -3.46679000000000       -1.58350000000000
F           -0.09573000000000       -3.09358000000000       -0.38639000000000
C            1.06761000000000       -2.98898000000000        0.90928000000000
C            0.16350000000000       -4.03423000000000        1.00201000000000
C            0.76328000000000       -5.31540000000000        0.97165000000000
C            1.98730000000000       -5.55930000000000        0.54001000000000
C            2.81127000000000       -4.47666000000000        0.40427000000000
C            2.32801000000000       -3.19846000000000        0.54769000000000
B            2.47957000000000       -7.04195000000000        0.19447000000000
C            2.36925000000000       -7.95866000000000        1.50117000000000
C            3.52278000000000       -8.58714000000000        1.94043000000000
C            3.28883000000000       -9.63933000000000        2.85707000000000
C            2.16634000000000       -9.80916000000000        3.53174000000000
C            1.07901000000000       -9.10803000000000        3.08951000000000
C            1.20398000000000       -8.15626000000000        2.10645000000000
Si           2.06924000000000      -10.94734000000000        5.01229000000000
C            2.51438000000000      -12.68724000000000        4.49123000000000
C            3.26575000000000      -10.36470000000000        6.32598000000000
C            0.33047000000000      -10.92826000000000        5.70021000000000
C           -0.03135000000000       -9.51401000000000        6.12374000000000
C            0.04758000000000       -8.58885000000000        4.92030000000000
F           -0.80342000000000       -9.00324000000000        3.98597000000000
F           -0.26902000000000       -7.35139000000000        5.29090000000000
F            1.28424000000000       -8.60243000000000        4.43104000000000
C            1.56077000000000       -7.65247000000000       -0.96445000000000
C            0.76281000000000       -8.76067000000000       -0.73267000000000
C            0.17322000000000       -9.29716000000000       -1.90169000000000
C            0.06035000000000       -8.65093000000000       -3.04784000000000
C            0.82382000000000       -7.52550000000000       -3.18916000000000
C            1.53178000000000       -7.01409000000000       -2.12844000000000
Si          -1.08221000000000       -9.24324000000000       -4.40454000000000
C           -0.57670000000000      -10.96251000000000       -4.93883000000000
C           -2.83991000000000       -9.28008000000000       -3.76736000000000
C           -0.97256000000000       -8.07942000000000       -5.86413000000000
C           -1.38345000000000       -6.68194000000000       -5.42984000000000
C           -0.45474000000000       -6.20049000000000       -4.32707000000000
F            0.79539000000000       -6.17428000000000       -4.78025000000000
F           -0.81428000000000       -4.97770000000000       -3.94706000000000
F           -0.53273000000000       -7.02823000000000       -3.28896000000000
C            4.00096000000000       -6.99738000000000       -0.29886000000000
C            4.31763000000000       -7.45494000000000       -1.56730000000000
C            5.70420000000000       -7.63925000000000       -1.78066000000000
C            6.65414000000000       -7.10979000000000       -1.03147000000000
C            6.26591000000000       -6.61333000000000        0.18189000000000
C            4.93611000000000       -6.52232000000000        0.51543000000000
Si           8.43451000000000       -7.04268000000000       -1.59955000000000
C            9.05755000000000       -8.77935000000000       -1.90399000000000
C            8.54681000000000       -6.05368000000000       -3.18264000000000
C            9.47951000000000       -6.22788000000000       -0.28009000000000
C            8.97308000000000       -4.81625000000000       -0.03263000000000
C            7.52594000000000       -4.87081000000000        0.42912000000000
F            7.44606000000000       -5.57421000000000        1.55506000000000
F            7.08281000000000       -3.63563000000000        0.64565000000000
F            6.78270000000000       -5.45031000000000       -0.50932000000000
H            0.71095000000000        0.91051000000000        0.22192000000000
H            0.71095000000000       -0.37393000000000       -0.96269000000000
H            2.13761000000000       -0.07368000000000        0.00040000000000
H            0.71093000000000        0.23997000000000        3.20109000000000
H            0.71093000000000       -1.42814000000000        3.72114000000000
H            2.13760000000000       -0.74421000000000        2.97957000000000
H           -1.78239000000000       -1.95289000000000        2.03798000000000
H           -1.78239000000000       -0.28477000000000        1.51793000000000
H           -3.00239000000000       -1.69548000000000       -0.07171000000000
H           -1.57572000000000       -1.01155000000000       -0.81328000000000
H           -0.89266000000000       -3.88626000000000        1.08874000000000
H            0.18489000000000       -6.14426000000000        1.32284000000000
H            3.84733000000000       -4.62697000000000        0.18318000000000
H            2.97316000000000       -2.36432000000000        0.36637000000000
H            4.50195000000000       -8.30275000000000        1.61602000000000
H            4.07615000000000      -10.34659000000000        3.01455000000000
H            0.11691000000000       -9.30334000000000        3.51510000000000
H            0.35464000000000       -7.56897000000000        1.82609000000000
H            3.50928000000000      -12.69816000000000        4.09761000000000
H            2.45881000000000      -13.33850000000000        5.33838000000000
H            1.82974000000000      -13.02062000000000        3.73954000000000
H            3.01105000000000       -9.36914000000000        6.62413000000000
H            3.21019000000000      -11.01596000000000        7.17313000000000
H            4.26066000000000      -10.37562000000000        5.93235000000000
H           -0.35417000000000      -11.26164000000000        4.94852000000000
H            0.27491000000000      -11.57951000000000        6.54736000000000
H           -1.02626000000000       -9.50309000000000        6.51736000000000
H            0.65329000000000       -9.18063000000000        6.87542000000000
H            0.60644000000000       -9.17357000000000        0.24199000000000
H           -0.20767000000000      -10.29592000000000       -1.85374000000000
H            0.87064000000000       -7.03598000000000       -4.13947000000000
H            2.06457000000000       -6.09307000000000       -2.24137000000000
H           -0.63944000000000      -11.62844000000000       -4.10367000000000
H           -1.23046000000000      -11.30142000000000       -5.71513000000000
H            0.42905000000000      -10.94142000000000       -5.30342000000000
H           -3.12917000000000       -8.29633000000000       -3.46164000000000
H           -3.49368000000000       -9.61899000000000       -4.54365000000000
H           -2.90265000000000       -9.94601000000000       -2.93219000000000
H            0.03319000000000       -8.05834000000000       -6.22872000000000
H           -1.62632000000000       -8.41833000000000       -6.64043000000000
H           -1.32071000000000       -6.01601000000000       -6.26501000000000
H           -2.38920000000000       -6.70302000000000       -5.06525000000000
H            3.58059000000000       -7.65121000000000       -2.31772000000000
H            6.00390000000000       -8.25010000000000       -2.60646000000000
H            7.00834000000000       -6.29105000000000        0.88177000000000
H            4.65149000000000       -6.06449000000000        1.43970000000000
H            8.45961000000000       -9.24557000000000       -2.65898000000000
H           10.07626000000000       -8.74094000000000       -2.22904000000000
H            8.99329000000000       -9.34524000000000       -0.99816000000000
H            8.19031000000000       -5.05997000000000       -3.00845000000000
H            9.56552000000000       -6.01528000000000       -3.50769000000000
H            7.94886000000000       -6.51991000000000       -3.93762000000000
H            9.41525000000000       -6.79377000000000        0.62574000000000
H           10.49822000000000       -6.18948000000000       -0.60514000000000
H            9.57103000000000       -4.35004000000000        0.72235000000000
H            9.03734000000000       -4.25036000000000       -0.93847000000000
117
 energy: -186.617387781853 gnorm: 0.828075820641 xtb: 6.7.1 (edcfbbe)
C            1.06618540154145       -0.06993164541121       -0.00111735083913
Si           0.45511824381704       -1.27287929942706        1.29975262488407
C            1.06661469932605       -0.74132973571579        2.98285813684707
C           -1.42549104799922       -1.26911286580913        1.29545510745290
C           -1.93543514266409       -1.69311960286342       -0.06872061164946
C           -1.45002640369998       -3.08438691534679       -0.40637448143681
F           -1.93213051765947       -3.94480992393657        0.50072947379298
F           -1.88093809952611       -3.47288029627010       -1.59685010141727
F           -0.15167991348125       -3.07043665881656       -0.48294654449959
C            1.09891808637643       -2.98418306969152        0.96526839583397
C            0.20177975174478       -4.05576312398230        1.06798825705212
C            0.74875215938702       -5.31372351314081        0.98100745749004
C            2.00338994916747       -5.56330434759678        0.53912421410823
C            2.82089566380107       -4.47776308942061        0.39623638210214
C            2.34685311189645       -3.19454319482361        0.55627259513967
B            2.48087107317660       -7.03823663225423        0.19745793021208
C            2.38853041224685       -7.94576145909433        1.49409288324137
C            3.52399828280947       -8.59460057797900        1.94270078837332
C            3.32047384847348       -9.64699101786947        2.84362250046556
C            2.19106501598967       -9.86947024210876        3.49294443744295
C            1.08507391306545       -9.12720505221334        3.05945592686889
C            1.20002168265118       -8.15955405352064        2.09776035699066
Si           2.07773567003762      -10.94918092102228        4.99380550237586
C            2.51395284187680      -12.69187791668093        4.49332878678630
C            3.26459843410361      -10.36546048507072        6.32834505291213
C            0.33138874523331      -10.92756505936314        5.70011582112137
C           -0.03342840359115       -9.51927325174176        6.12877931328033
C            0.02603432862618       -8.58112087905833        4.95416827113813
F           -0.86104914419071       -8.98362474985006        4.02655552468626
F           -0.28064090932799       -7.33802524594478        5.29602399039623
F            1.25273176177243       -8.52596491806868        4.50612655557181
C            1.55467394546694       -7.65054336338646       -0.93880719975574
C            0.76298952392351       -8.76591717614401       -0.73604683834861
C            0.17397446976977       -9.32428291705577       -1.87901745669565
C            0.09290745242326       -8.71922326488871       -3.05117298475383
C            0.85154456012809       -7.54921305293432       -3.18468041089011
C            1.54145227972357       -7.01311667029369       -2.12899160853509
Si          -1.06918596587930       -9.25255020386597       -4.39246481021132
C           -0.57781619458220      -10.96546550130054       -4.94268265928777
C           -2.84148700103199       -9.27958674936643       -3.76948956387417
C           -0.97295351242782       -8.07943006347191       -5.86299462268989
C           -1.38642478600209       -6.68399259735625       -5.43643137602667
C           -0.47697554962787       -6.17570642006654       -4.35090663212839
F            0.78056155898827       -6.11800400579841       -4.82441884214879
F           -0.81555369249757       -4.95957048233962       -3.94913162667301
F           -0.59655294969607       -6.93716134115038       -3.29471716933323
C            3.98083100640940       -6.99603968743778       -0.31279931815780
C            4.32299952613368       -7.45997501394102       -1.56907966519563
C            5.68916970936113       -7.66041106388695       -1.80463740756569
C            6.65826770927997       -7.18470131185002       -1.04222277871563
C            6.25594933024935       -6.64801265255440        0.18765064630955
C            4.93342843482060       -6.52910671064979        0.52371173120972
Si           8.42026650340837       -7.05712086061844       -1.60001733489237
C            9.06206996639258       -8.78148872191540       -1.90475351343135
C            8.54929065121981       -6.05257628548014       -3.18262925675591
C            9.47865631261083       -6.22764262362016       -0.28089762109203
C            8.98055803752450       -4.81673511888237       -0.03307079906516
C            7.55109638677511       -4.83935213536616        0.43607063568859
F            7.48060557335505       -5.52201146350158        1.59280479949922
F            7.08171315803131       -3.61989925895675        0.65488105454735
F            6.79476544848867       -5.33942090677201       -0.50571035964478
H            0.71087772378270        0.91786716210208        0.22003708021465
H            0.71156197641926       -0.37286444427049       -0.96839077333262
H            2.14028852248262       -0.07388964524647        0.00039906673318
H            0.71077906910459        0.24549943982989        3.20558140219209
H            0.71117776643529       -1.42940292763185        3.72598518374921
H            2.14029287610155       -0.74474722152263        2.97986417272288
H           -1.78596089928809       -1.95402342669795        2.04219110393017
H           -1.78675534009968       -0.28126245783589        1.51937223681455
H           -3.01013870085272       -1.69468161884958       -0.07469756078442
H           -1.57469768590000       -1.00945768292837       -0.81774008868763
H           -0.84631441608754       -3.89602206203392        1.12388163599659
H            0.17190948147962       -6.14384540377358        1.31551891532002
H            3.85215256271063       -4.62478227428492        0.17596177133451
H            2.98195487476835       -2.35746923228046        0.36659387606856
H            4.50179450613614       -8.31056366505587        1.61464803252200
H            4.09628873461053      -10.34921755109044        3.01851301598481
H            0.14477523191864       -9.32578719950711        3.46859775913434
H            0.34772539740660       -7.57544237018830        1.82601972619741
H            3.51125632285771      -12.69949311535555        4.09646119967804
H            2.45995009913411      -13.34556985124344        5.34133278600708
H            1.82893628946323      -13.02435810789355        3.73666870489689
H            3.01306903565468       -9.36443736158728        6.62729796606441
H            3.21265195897416      -11.01758248170650        7.17985928441504
H            4.26348066881662      -10.37490564103849        5.93268302701961
H           -0.35870296699500      -11.26449312464318        4.94714397126847
H            0.27170482197589      -11.58219593467351        6.55128135951531
H           -1.03350736994364       -9.50078653601388        6.52098409807208
H            0.65628480948773       -9.17759225893991        6.87957496373807
H            0.60927994515840       -9.17941018254874        0.23914938344432
H           -0.21945727782529      -10.30919058007289       -1.84302414512390
H            0.90354252102148       -7.07776756505664       -4.11524238333851
H            2.06858835313123       -6.08766335422114       -2.24463319812180
H           -0.63909779463533      -11.63089786491806       -4.10264613915627
H           -1.23269101143675      -11.30708228848721       -5.71977248852918
H            0.43242061560144      -10.94432573811264       -5.30505836989883
H           -3.13347936871894       -8.29325926407366       -3.45872401499539
H           -3.50053791084353       -9.62057611306981       -4.54565591216289
H           -2.90430348860932       -9.94708634778326       -2.92992247507545
H            0.03668875411843       -8.05810717042059       -6.23297502775809
H           -1.62815917364770       -8.41788519261848       -6.64582642780694
H           -1.32122677437290       -6.00928547320958       -6.27000185968252
H           -2.39459539165485       -6.70162825162645       -5.06303692645100
H            3.58439117495762       -7.65833383021584       -2.31752288163111
H            6.00152259490553       -8.25402089319492       -2.62677791049281
H            6.98192773525227       -6.34262328458111        0.87352307671652
H            4.65256414974410       -6.06546593183771        1.44817489060126
H            8.45900835116434       -9.24775957699696       -2.66046646238362
H           10.08243196716474       -8.74473773083453       -2.23170614342476
H            8.99401204477074       -9.34967420564687       -0.99653557174342
H            8.18874064905330       -5.05491917401130       -3.01127824714993
H            9.57032154839658       -6.01291945148334       -3.51274534790383
H            7.94765192923445       -6.51978511148712       -3.94036055952253
H            9.41768272135459       -6.79583008303162        0.63024659190214
H           10.50372879120565       -6.18845327433434       -0.60395892507648
H            9.57443719955878       -4.34454023476775        0.72765158109695
H            9.03720640767763       -4.24615746805160       -0.94270223122722
117
 energy: -187.100965580162 gnorm: 0.492575465734 xtb: 6.7.1 (edcfbbe)
C            1.06510892924224       -0.06850638651431       -0.00118610604342
Si           0.46166165297718       -1.27731090829199        1.30172158671789
C            1.06573622269686       -0.73895114273780        2.98501790036754
C           -1.42610235004573       -1.26916024834077        1.29442522504326
C           -1.94054959790652       -1.68544925951336       -0.06529271352690
C           -1.46421955591239       -3.06483886990615       -0.41360063053782
F           -1.99684842374754       -3.94620743635453        0.46214527058996
F           -1.89228724853712       -3.47510350205649       -1.60419636937121
F           -0.18586482197669       -3.06761465220400       -0.57305080653324
C            1.10691297877108       -2.97847031891940        0.99873673667609
C            0.23582016970027       -4.07412114416500        1.12417584675795
C            0.73512000548715       -5.31288956061199        0.98618733459735
C            2.01567341205019       -5.56565151373163        0.54241741593724
C            2.82762877527044       -4.47532925784675        0.38954804577718
C            2.36320928006110       -3.19338396798817        0.55910750896167
B            2.48057640703592       -7.03100324501360        0.20137913284835
C            2.41073626135883       -7.93117242028475        1.48884928463078
C            3.52158018071193       -8.60453534433856        1.94477555029604
C            3.35039522805357       -9.64177518656939        2.83678863929092
C            2.18970999294353       -9.90843154363610        3.45948728306318
C            1.09243379546451       -9.16738807360398        2.99274346734071
C            1.19697240039191       -8.17421325609992        2.08757972420603
Si           2.08125140263142      -10.94876294140937        4.98004596446981
C            2.51344492850936      -12.69641231990934        4.49508025881739
C            3.26336345971010      -10.36564385300099        6.32939303179550
C            0.33113121241417      -10.92621679120988        5.70009103887111
C           -0.03802933316833       -9.52519252779646        6.13558914785193
C            0.01325544166333       -8.57609592086222        4.98718022659390
F           -0.92128815338005       -8.95431065118862        4.07278262801640
F           -0.29228775008690       -7.32520069306350        5.30284202485051
F            1.24097061775160       -8.44793097101532        4.60666868657638
C            1.54523792911479       -7.64825046583949       -0.91104553391150
C            0.76574108546539       -8.77061143236533       -0.74317338455415
C            0.16852405919756       -9.33918648024686       -1.85227574763330
C            0.12913996602819       -8.75440943598929       -3.06113841787335
C            0.91440840624827       -7.59552646850861       -3.17669853357380
C            1.55391861289311       -7.02112298295698       -2.13543228417944
Si          -1.05851791622162       -9.25606969982915       -4.38405725677256
C           -0.57850032882665      -10.96838157893435       -4.94637564497043
C           -2.84186543837238       -9.27891118889370       -3.77082214877171
C           -0.97293835711444       -8.07828242312863       -5.86234105619362
C           -1.38981066074237       -6.68487716111566       -5.44579608546084
C           -0.50204409108769       -6.15815725752663       -4.36962165262708
F            0.76062504196747       -6.05174474372791       -4.86692003157930
F           -0.81804629610512       -4.94164555429842       -3.95269206575122
F           -0.69137989627158       -6.85281260489508       -3.29637135122346
C            3.96009785629855       -6.99391731648572       -0.32981804685682
C            4.33087691494454       -7.46639900259679       -1.56721328284254
C            5.67089458887085       -7.66741201658925       -1.82873707253514
C            6.66071985433227       -7.23433049671422       -1.02983844955590
C            6.23377207189429       -6.72140401459818        0.20612492896619
C            4.93692541411355       -6.54534386366439        0.53170863348388
Si           8.40936702997389       -7.06589377216420       -1.59769675341494
C            9.06632413043716       -8.78368677018233       -1.90519724139609
C            8.55053761500785       -6.05179765797772       -3.18190858389707
C            9.47782930812025       -6.22653450190203       -0.28054556518102
C            8.99057817233689       -4.81600842225707       -0.03193205533309
C            7.57459246633473       -4.81240228069030        0.43499708512102
F            7.51364443988130       -5.45820273106760        1.63142448069763
F            7.08196637033027       -3.60340807614635        0.66352088247360
F            6.81668555305208       -5.21578202329553       -0.53033308685574
H            0.71112565073431        0.92451594929966        0.21795819732717
H            0.71273161411085       -0.37141994061774       -0.97387651667653
H            2.14326882241283       -0.07000200169304       -0.00348631737811
H            0.71105480327797        0.25096607881055        3.21101624145357
H            0.71170772469914       -1.43016115019426        3.73136270601424
H            2.14332798289150       -0.74314194632918        2.98394977578452
H           -1.79002390658061       -1.95494212537838        2.04654745998929
H           -1.79141367331488       -0.27789464609040        1.52121972779765
H           -3.01999164719462       -1.69583084640847       -0.07648464896514
H           -1.57413142735973       -1.00642672490776       -0.82305333436056
H           -0.79362841237274       -3.90260318441034        1.17396283230026
H            0.15913089896274       -6.14445210658546        1.30620077669783
H            3.85742896814185       -4.62157659834205        0.16645690467627
H            2.99157286852558       -2.35172476260970        0.36793840382314
H            4.50138815426631       -8.31998426980910        1.61137557437915
H            4.11621030374557      -10.35066674887309        3.02476896474122
H            0.18158040063915       -9.35943174789408        3.41362053987081
H            0.34251066057600       -7.58556175304935        1.82645794758727
H            3.51370411755980      -12.70242894394818        4.09493637446441
H            2.46121201740373      -13.35328133822538        5.34379255433564
H            1.82839447280251      -13.02943202881301        3.73350359444688
H            3.01562496972896       -9.36001705656879        6.63045726041262
H            3.21490387827433      -11.01887563135533        7.18556353680672
H            4.26702889407395      -10.37360764031147        5.93371464268465
H           -0.36382908270724      -11.26777931632432        4.94596380545958
H            0.26874685631957      -11.58523836160343        6.55442267493143
H           -1.04263682229850       -9.49912814034574        6.52707897589818
H            0.65842660025158       -9.17478269722433        6.88453015090282
H            0.61414959306835       -9.18645308740805        0.23587836308181
H           -0.23304831578234      -10.32087881117514       -1.83256540417498
H            0.94177063459244       -7.13484685607172       -4.08813244047535
H            2.07149215270281       -6.08555517658165       -2.24812882242558
H           -0.63832153940568      -11.63500051287462       -4.10212830878026
H           -1.23435031209267      -11.31345620736315       -5.72451581433376
H            0.43621043270428      -10.94854579100777       -5.30722394184901
H           -3.13784652145141       -8.29084204005835       -3.45561704065470
H           -3.50640713071310       -9.62205339790383       -4.54723629969493
H           -2.90691593111194       -9.94809930765550       -2.92709199091935
H            0.04038950414886       -8.05785261882927       -6.23802981309545
H           -1.62930739260645       -8.41806963645141       -6.65099529570319
H           -1.32306571665523       -6.00161874351429       -6.27764524020121
H           -2.40024491729408       -6.69982128878494       -5.06186280992867
H            3.58788727425384       -7.66776510095021       -2.31618042351880
H            6.00001503892774       -8.25552419910846       -2.64754021993115
H            6.95392958811950       -6.40988035830330        0.85981200439167
H            4.65508963829294       -6.06928216380676        1.45453833686505
H            8.45907084357004       -9.25144383409433       -2.66224187508560
H           10.08865823498011       -8.74928724216666       -2.23423831767676
H            8.99534803704084       -9.35532443974151       -0.99503151610889
H            8.18717338524093       -5.05016408265602       -3.01460986918204
H            9.57429493688444       -6.01087421160750       -3.51712213631949
H            7.94632387314986       -6.51892760390333       -3.94394095459254
H            9.42074319518741       -6.79789025993579        0.63525831442435
H           10.50883335338527       -6.18814994445353       -0.60265725500850
H            9.58056348591257       -4.33751423260912        0.73369762334711
H            9.03803946514390       -4.24141283840942       -0.94646467058553
117
 energy: -187.363682121185 gnorm: 0.283241451134 xtb: 6.7.1 (edcfbbe)
C            1.06466906031192       -0.06478564224333       -0.00355922615608
Si           0.46702579087074       -1.27671652298490        1.30495064162764
C            1.06559918532564       -0.73415383913439        2.99157858404418
C           -1.42725522527664       -1.26829410530712        1.29470095354508
C           -1.94923707782989       -1.67793388364155       -0.06510417230821
C           -1.48573421160562       -3.05336635897560       -0.43187575661359
F           -2.05027351173295       -3.94901664542984        0.42286361150080
F           -1.92501618268737       -3.47650703025360       -1.62506902449821
F           -0.20668627215564       -3.06833818321162       -0.64555724931353
C            1.11728040073491       -2.97147917528467        1.02920415471455
C            0.26790920974127       -4.07523201994795        1.17541976671765
C            0.73274755263754       -5.31948491690035        0.99215552340948
C            2.02527580594204       -5.56387740346496        0.54966792542830
C            2.83611852103779       -4.47096188319060        0.38420434038620
C            2.38046192577891       -3.18945747084912        0.57010104722791
B            2.47916864372869       -7.01997309011314        0.20586763942728
C            2.43035347424257       -7.91674538158290        1.48666071611835
C            3.52343286767825       -8.61503748194444        1.94369550396847
C            3.37779784452965       -9.64582367015037        2.83368537814910
C            2.18539348999749       -9.93742934653129        3.42625655682541
C            1.10382804535606       -9.21353585035240        2.92853990008117
C            1.20071793733094       -8.18910614845732        2.07146369492822
Si           2.08316482862680      -10.94950163168481        4.96952767569036
C            2.51376993440507      -12.70460249550430        4.49584095576092
C            3.26284301903863      -10.36512490742719        6.32959478419164
C            0.33045799959253      -10.92549376151577        5.69969327242221
C           -0.04728807861147       -9.53015561579851        6.15015116683279
C           -0.00054853666421       -8.56368339565359        5.01953790568902
F           -0.97600917285881       -8.91982470544443        4.12163668311365