117
 energy: -358.423475968761 gnorm: 0.000478225603 xtb: 6.7.1 (edcfbbe)
F            0.55472435248853       -3.07507940329472        0.10766168693511
C            1.64437575527019       -2.35806938607562       -0.14703812531614
F            1.25754598066003       -1.21625008701843       -0.70270628882235
F            2.22958838912663       -2.08146943836358        1.01157746863385
C            2.59385358519627       -3.14946098908604       -1.09901394662353
F            2.68782541829097       -4.41237714713838       -0.65258789465253
F            2.02187867343965       -3.19419345957596       -2.31315440261313
C            4.01809645484703       -2.51685345345621       -1.16863799630910
F            3.90362056311220       -1.17736392049829       -1.20125125992315
F            4.66348612723691       -2.83183696258612       -0.03517410711424
C            4.82161950020004       -2.99213609353802       -2.42232145421219
F            4.60449503173790       -4.30557482203583       -2.61130184015028
F            4.32220372578249       -2.35131815858924       -3.49105160929069
C            6.35458221022103       -2.74390505310099       -2.27116170638345
F            6.55434071089243       -1.55260504975085       -1.67362594389908
F            6.82788653427174       -3.68408046197767       -1.42942795359312
C            7.15184333160810       -2.77953574199365       -3.62063651721973
F            6.71400683347369       -3.85756057243665       -4.32098728688894
F            6.75343359560772       -1.69567840164448       -4.33596897484290
C            8.62823400939090       -2.79993768775469       -3.36259857267048
C            9.29320737663131       -4.01291647628060       -3.22283524126287
C           10.64175374628520       -4.01307094500855       -2.92955841287192
C           11.36614985689680       -2.83277687527956       -2.74893872977244
C           10.67243583981407       -1.63643665968296       -2.92464232363415
C            9.32225886418000       -1.60539277437809       -3.21817007815813
B           12.95701064861656       -2.90168644511217       -2.44315496051444
C           13.31452250682687       -3.89520751830385       -1.21047462509863
C           14.63791759209571       -4.27656732139036       -0.97943745915495
C           15.00385454011672       -5.05435402257523        0.10044415067560
C           14.03056452825573       -5.46193816032441        1.00550500322116
C           12.70593978371585       -5.08820374705256        0.81742702095139
C           12.36865756459400       -4.31122416826421       -0.27419149218780
C           14.39950842594329       -6.33360739336243        2.16766467679651
F           15.67795628394307       -6.15283189979666        2.58920940892055
F           13.62268763180719       -6.11212754491667        3.26004333591787
C           14.23979121448398       -7.84954184184441        1.80361569446470
F           12.93263219318478       -8.12749248387987        1.63225893417279
F           14.84868646135069       -8.10860776736373        0.62929603662874
C           14.83994535752736       -8.82907181943870        2.85983423857448
F           16.17733288436866       -8.85946139909054        2.72227513373505
F           14.58119153990626       -8.42139897986172        4.11239563614201
C           14.27871268113084      -10.27987587328513        2.71006655064088
F           13.03285991991794      -10.32469656115138        3.21419281711093
F           14.19693861566194      -10.63239152669408        1.41783940772916
C           15.16291062739787      -11.33825329258205        3.43937291494718
F           16.24664866464360      -11.60496793725148        2.69241444165988
F           15.59579664053675      -10.87757617479559        4.62409559811215
C           14.39540672160697      -12.67299592510761        3.69161887587966
F           13.51145912666559      -12.53575342614783        4.67221779811568
F           13.75353225505754      -13.08294022863127        2.60469961379637
F           15.24891271841599      -13.62847352554789        4.04556775585718
C           13.58759419970314       -3.38453728513223       -3.85682715460479
C           14.04408093646126       -4.68230084971715       -4.08403231245176
C           14.53692977855806       -5.08460166537590       -5.31062499729037
C           14.57822793269943       -4.17597604834140       -6.36072230162974
C           14.09589044524938       -2.88433008981616       -6.18235774209448
C           13.61058403937772       -2.51010246475340       -4.94546291915942
C           15.11151661109753       -4.60193539404130       -7.69521733029770
F           15.63240848391196       -3.56995568489768       -8.40844057398687
F           16.11410819989507       -5.51522158142735       -7.59711040144531
C           13.98931637701208       -5.23746971054682       -8.58535426227361
F           13.28871794402805       -6.14443828929859       -7.87709838675849
F           13.12111972388031       -4.27507764851565       -8.95316496877487
C           14.52651742586333       -5.96331269619526       -9.85848484518569
F           15.52003731027557       -5.26989184533386      -10.43725028932881
F           15.03294668754435       -7.15712899291230       -9.50190340473689
C           13.41554298113060       -6.18308979036575      -10.93516877505814
F           12.26154311634654       -6.56317760848279      -10.36626598782737
F           13.18199858202885       -5.02145711261038      -11.57119260202969
C           13.81315518635821       -7.26872933174152      -11.98307731394945
F           15.10796134738879       -7.16415213971820      -12.32427417624732
F           13.63606174084975       -8.48865575706730      -11.45044661651570
C           12.96226131293922       -7.17016758609942      -13.28682019360614
F           11.66772822298826       -7.04992499929834      -13.02103816259684
F           13.33675745731650       -6.12974829808622      -14.02136235800118
F           13.12788791745030       -8.26569861516267      -14.02115258631030
C           13.57314829137848       -1.49376683500961       -1.92237848659547
C           14.76964217429074       -0.96378894617616       -2.40355928223028
C           15.33119717514559        0.18412114073153       -1.87781000468446
C           14.69880557764394        0.83201933901051       -0.82476294259528
C           13.50752618296790        0.32897969825897       -0.31325581200035
C           12.96990008123922       -0.81913256095725       -0.85852157821466
C           15.28527769266609        2.08552676225645       -0.24922529217881
F           15.07249874005715        2.20030388292650        1.08822797342907
F           16.63152186365520        2.16668324384149       -0.41000445325899
C           14.66000772779687        3.36270915771268       -0.90827118373693
F           14.63670410169103        3.23046511785501       -2.24935158987365
F           13.37912176253318        3.48480987117929       -0.50889149852431
C           15.42965466166462        4.68197299717189       -0.58800745513480
F           15.83866912296370        4.71481607696970        0.69007272126253
F           16.53077568719300        4.74488857871824       -1.35753686397354
C           14.56050905681399        5.95667794026129       -0.83643227136008
F           13.83596386651008        5.83493450871155       -1.95931503353437
F           13.69404829137723        6.10398468867179        0.18131920714497
C           15.42589764269334        7.24884882183266       -0.96322815170992
F           16.43917035973824        7.24494171725957       -0.08198064912097
F           15.96348059890745        7.30527326539337       -2.19262728237377
C           14.58875459140982        8.54430654674636       -0.72883239390020
F           13.44655325697433        8.52003006986943       -1.40445844972778
F           14.30935341560057        8.70277589201085        0.55912944159660
F           15.27666243971299        9.60881221044004       -1.12911151555183
H            8.75120957859966       -4.93889815626423       -3.34764383576818
H           11.15316949900602       -4.95908485580516       -2.83189550108848
H           11.19954833688116       -0.69955291867368       -2.82152907321315
H            8.80268914426746       -0.66583963366451       -3.33800149588807
H           15.40291539886869       -3.94962507301164       -1.66794580551614
H           16.03357444739479       -5.34166808106105        0.25529122937689
H           11.95428143904414       -5.40181735609207        1.52716908082014
H           11.33576426225700       -4.02293896569972       -0.40137952169970
H           14.01904514142364       -5.40046582645486       -3.27804037069691
H           14.89716858322800       -6.09221605605649       -5.45931893101133
H           14.11240200694037       -2.18721713074996       -7.00740966220039
H           13.23617228802910       -1.50557543330648       -4.81542431163668
H           15.28014750518790       -1.46265073012267       -3.21387844196845
H           16.25843579791022        0.57642805920748       -2.26935550865044
H           13.02272885112371        0.83313793830290        0.51009007088889
H           12.05413581609266       -1.21268047978949       -0.44308940229705
