117
 energy: -358.185956375122 gnorm: 0.352583681111 xtb: 6.7.1 (edcfbbe)
F            0.97359000000000       -0.09525000000000       -0.01514000000000
C            2.30359000000000       -0.09525000000000       -0.01514000000000
F            2.74692000000000        1.09145000000000       -0.42022000000000
F            2.74692000000000       -0.33780000000000        1.21511000000000
C            2.81025000000000       -1.17429000000000       -0.95820000000000
F            2.36691000000000       -2.36100000000000       -0.55313000000000
F            2.36691000000000       -0.93175000000000       -2.18846000000000
C            4.33025000000000       -1.17429000000000       -0.95820000000000
F            4.77358000000000        0.01241000000000       -1.36328000000000
F            4.77358000000000       -1.41684000000000        0.27205000000000
C            4.83691000000000       -2.25334000000000       -1.90126000000000
F            4.39357000000000       -3.44004000000000       -1.49619000000000
F            4.39357000000000       -2.01079000000000       -3.13152000000000
C            6.35691000000000       -2.25334000000000       -1.90126000000000
F            6.80024000000000       -1.06663000000000       -2.30634000000000
F            6.80024000000000       -2.49588000000000       -0.67101000000000
C            6.86357000000000       -3.33238000000000       -2.84432000000000
F            6.42023000000000       -4.51908000000000       -2.43925000000000
F            6.42023000000000       -3.08983000000000       -4.07458000000000
C            8.38357000000000       -3.33238000000000       -2.84432000000000
C            9.06303000000000       -4.53679000000000       -2.92373000000000
C           10.44209000000000       -4.43792000000000       -2.62296000000000
C           11.12913000000000       -3.31010000000000       -2.62050000000000
C           10.39970000000000       -2.15369000000000       -2.61086000000000
C            9.03494000000000       -2.17775000000000       -2.76821000000000
B           12.72907000000000       -3.29759000000000       -2.62837000000000
C           13.27474000000000       -4.05443000000000       -1.32859000000000
C           14.19141000000000       -3.39626000000000       -0.52543000000000
C           14.95179000000000       -4.25713000000000        0.30087000000000
C           14.62278000000000       -5.50357000000000        0.58753000000000
C           13.66205000000000       -6.07531000000000       -0.19959000000000
C           12.96685000000000       -5.32924000000000       -1.12045000000000
C           15.27694000000000       -6.26180000000000        1.73101000000000
F           16.58764000000000       -6.33943000000000        1.51902000000000
F           15.04995000000000       -5.62178000000000        2.87458000000000
C           14.69259000000000       -7.66277000000000        1.80983000000000
F           13.38189000000000       -7.58514000000000        2.02182000000000
F           14.91958000000000       -8.30279000000000        0.66626000000000
C           15.34675000000000       -8.42100000000000        2.95331000000000
F           16.65746000000000       -8.49863000000000        2.74132000000000
F           15.11976000000000       -7.78098000000000        4.09688000000000
C           14.76240000000000       -9.82197000000000        3.03213000000000
F           13.45170000000000       -9.74435000000000        3.24412000000000
F           14.98939000000000      -10.46199000000000        1.88857000000000
C           15.41657000000000      -10.58021000000000        4.17561000000000
F           16.72727000000000      -10.65783000000000        3.96363000000000
F           15.18957000000000       -9.94018000000000        5.31918000000000
C           14.83221000000000      -11.98118000000000        4.25443000000000
F           13.52151000000000      -11.90355000000000        4.46642000000000
F           15.05920000000000      -12.62120000000000        3.11087000000000
F           15.40460000000000      -12.64463000000000        5.25498000000000
C           13.26178000000000       -4.04083000000000       -3.94131000000000
C           13.94100000000000       -5.23008000000000       -3.73418000000000
C           14.51834000000000       -5.77225000000000       -4.90669000000000
C           14.17719000000000       -5.43139000000000       -6.13610000000000
C           13.44827000000000       -4.28221000000000       -6.26844000000000
C           12.96051000000000       -3.62383000000000       -5.16548000000000
C           14.57354000000000       -6.27142000000000       -7.33928000000000
F           15.89945000000000       -6.35021000000000       -7.40757000000000
F           14.06266000000000       -7.49306000000000       -7.21473000000000
C           14.03842000000000       -5.62526000000000       -8.60677000000000
F           12.71252000000000       -5.54647000000000       -8.53848000000000
F           14.54930000000000       -4.40362000000000       -8.73132000000000
C           14.43478000000000       -6.46529000000000       -9.80995000000000
F           15.76069000000000       -6.54407000000000       -9.87824000000000
F           13.92390000000000       -7.68692000000000       -9.68540000000000
C           13.89966000000000       -5.81912000000000      -11.07744000000000
F           12.57376000000000       -5.74034000000000      -11.00915000000000
F           14.41054000000000       -4.59749000000000      -11.20199000000000
C           14.29602000000000       -6.65916000000000      -12.28062000000000
F           15.62192000000000       -6.73794000000000      -12.34891000000000
F           13.78514000000000       -7.88079000000000      -12.15607000000000
C           13.76090000000000       -6.01299000000000      -13.54811000000000
F           12.43499000000000       -5.93421000000000      -13.47982000000000
F           14.27178000000000       -4.79136000000000      -13.67266000000000
F           14.10771000000000       -6.74802000000000      -14.60089000000000
C           13.25061000000000       -1.78499000000000       -2.62308000000000
C           14.03049000000000       -1.35199000000000       -3.68274000000000
C           14.67196000000000       -0.11187000000000       -3.45325000000000
C           14.32043000000000        0.75137000000000       -2.51770000000000
C           13.49351000000000        0.28077000000000       -1.53577000000000
C           12.93190000000000       -0.97010000000000       -1.62427000000000
C           14.80884000000000        2.19070000000000       -2.53175000000000
F           16.13735000000000        2.20866000000000       -2.47162000000000
F           14.40771000000000        2.78405000000000       -3.65244000000000
C           14.23736000000000        2.93137000000000       -1.33375000000000
F           12.90884000000000        2.91341000000000       -1.39388000000000
F           14.63848000000000        2.33802000000000       -0.21307000000000
C           14.72576000000000        4.37070000000000       -1.34780000000000
F           16.05428000000000        4.38867000000000       -1.28767000000000
F           14.32464000000000        4.96405000000000       -2.46848000000000
C           14.15429000000000        5.11137000000000       -0.14980000000000
F           12.82577000000000        5.09341000000000       -0.20993000000000
F           14.55541000000000        4.51802000000000        0.97089000000000
C           14.64269000000000        6.55070000000000       -0.16385000000000
F           15.97121000000000        6.56867000000000       -0.10371000000000
F           14.24157000000000        7.14406000000000       -1.28453000000000
C           14.07121000000000        7.29138000000000        1.03416000000000
F           12.74270000000000        7.27341000000000        0.97402000000000
F           14.47234000000000        6.69802000000000        2.15484000000000
F           14.49857000000000        8.55079000000000        1.02186000000000
H            8.58812000000000       -5.45834000000000       -3.18848000000000
H           10.96464000000000       -5.33966000000000       -2.38067000000000
H           10.89883000000000       -1.21649000000000       -2.47889000000000
H            8.49210000000000       -1.25775000000000       -2.82996000000000
H           14.31346000000000       -2.33325000000000       -0.52948000000000
H           15.85627000000000       -3.87142000000000        0.72281000000000
H           13.44852000000000       -7.11875000000000       -0.09700000000000
H           12.17015000000000       -5.77956000000000       -1.67486000000000
H           14.02177000000000       -5.69646000000000       -2.77456000000000
H           15.28465000000000       -6.50971000000000       -4.78908000000000
H           13.25489000000000       -3.88996000000000       -7.24499000000000
H           12.33222000000000       -2.76733000000000       -5.29416000000000
H           14.13808000000000       -1.90512000000000       -4.59234000000000
H           15.49941000000000        0.14432000000000       -4.08141000000000
H           13.28067000000000        0.89543000000000       -0.68619000000000
H           12.23138000000000       -1.29046000000000       -0.88162000000000
117
 energy: -358.277244968554 gnorm: 0.153778774326 xtb: 6.7.1 (edcfbbe)
F            0.96512568158511       -0.10869327739583       -0.02700974651095
C            2.29380057653669       -0.08725856836204       -0.00813500447450
F            2.72573988957293        1.10483394501149       -0.40517477029999
F            2.72560944133590       -0.32092949039041        1.22643948473220
C            2.80273130971762       -1.18172408893573       -0.96419686188593
F            2.34876828396654       -2.36972674563560       -0.55568478414193
F            2.34929017374637       -0.93579204297010       -2.19650732663643
C            4.33168202093323       -1.16768183881899       -0.95039240422489
F            4.77670267279939        0.02596612756648       -1.35420166168436
F            4.77728406940507       -1.40634419723844        0.28614237182255
C            4.83424167357133       -2.26757502798207       -1.90736472407598
F            4.38021632297810       -3.45537331251634       -1.50037141890766
F            4.38038930057874       -2.01994611015340       -3.14005692938342
C            6.36062531526147       -2.25180889561240       -1.89585075891944
F            6.75034901911235       -1.03374949666483       -2.28516091715923
F            6.81137550479499       -2.48597221007585       -0.65880845991473
C            6.88093945088430       -3.34034638844552       -2.85215400089911
F            6.40765135177605       -4.52947169876531       -2.44509710042129
F            6.39593328581756       -3.09724334928118       -4.08561606822664
C            8.38284271327699       -3.33896233838564       -2.87351256665126
C            9.06041330846441       -4.54338103808728       -2.91145946051418
C           10.42105239333439       -4.46802897392998       -2.64776876352003
C           11.12677736192430       -3.30287614200493       -2.60886280852475
C           10.40562215458379       -2.13019561769925       -2.62952633527436
C            9.04783768134434       -2.15254754693878       -2.77213129702688
B           12.71113698927505       -3.29081138980363       -2.61712442985530
C           13.26632114677572       -4.02303627180529       -1.31690934462336
C           14.21481294084836       -3.40309388199603       -0.52002333868715
C           14.96492526324859       -4.21612237911993        0.32124905504273
C           14.62395517391445       -5.50779074009202        0.57944296766633
C           13.63692761413093       -6.09192446545044       -0.18495934889018
C           12.96702969509474       -5.34240543404579       -1.10912009116318
C           15.28230917198460       -6.24408017065790        1.70808631539118
F           16.61169358265661       -6.33509709906645        1.52761963967794
F           15.06221517551327       -5.61302324505799        2.87567708747790
C           14.69802922498861       -7.65274265683697        1.80638128620435
F           13.37751283239927       -7.59339902912552        2.02618341372655
F           14.92631887021421       -8.32197789842687        0.66842174241187
C           15.35099227177898       -8.41547438956000        2.95521262633557
F           16.66992295330060       -8.49841721146461        2.75141728815576
F           15.12842442027904       -7.77810294791156        4.10920954576070
C           14.76115988270999       -9.82395878485674        3.03212660297421
F           13.44227724637242       -9.75216576817858        3.24048628451555
F           14.98242190208895      -10.47110910584016        1.88297226797754
C           15.42016468316257      -10.58590013129116        4.18293211574499
F           16.73860328881154      -10.66591151314526        3.97694501560046
F           15.19745017660172       -9.94656432478838        5.33560097832632
C           14.83152733424811      -11.99500571586264        4.26120447562252
F           13.52099323804100      -11.92798672584331        4.47333153054957
F           15.05367758887398      -12.64332056132402        3.12218147684220
F           15.39726323620976      -12.66631202933021        5.25832255468195
C           13.22600828361725       -4.07356567718285       -3.91126545176115
C           13.96649082305409       -5.23489513820050       -3.74922994732268
C           14.53151647518685       -5.80299321976461       -4.88184356737321
C           14.18036463494339       -5.41514888145397       -6.13632808073086
C           13.42434307449822       -4.26839805795932       -6.28066745344022
C           12.94899173846749       -3.61632088019885       -5.17174017751673
C           14.58127901639751       -6.25794688717390       -7.31311773591248
F           15.91863794511956       -6.36407983943651       -7.40808595139957
F           14.07262792235524       -7.49908695305055       -7.20679857903756
C           14.04343068835108       -5.62754135425990       -8.59676376025963
F           12.70697241326614       -5.54592972146345       -8.54790347639491
F           14.55574277044243       -4.39915808273529       -8.75051223747557
C           14.43794187612999       -6.47052402228116       -9.80587754509949
F           15.77017743473711       -6.55619283058170       -9.88284568724183
F           13.92908076947603       -7.70122816726986       -9.68829801193963
C           13.89832063151249       -5.81834391291489      -11.07913142889077
F           12.56558297818546       -5.73203912848061      -11.01420737524389
F           14.40533572217010       -4.58753790042262      -11.20753794898932
C           14.29781021914590       -6.66440235738949      -12.28901292470426
F           15.62995134833541       -6.74924087045176      -12.36243485009846
F           13.78900750277571       -7.89471138669317      -12.16912793892241
C           13.75898636146182       -6.01339102306628      -13.56340065765993
F           12.43363311407061       -5.93030079184616      -13.50487551123917
F           14.26450076978018       -4.79121592948530      -13.69705836792358
F           14.10046220945780       -6.74061478454828      -14.62147120738966
C           13.23743713646392       -1.79298555883187       -2.65206572647585
C           14.05601193046918       -1.34283291640359       -3.67587226893985
C           14.68417376674466       -0.11696963108722       -3.49509998514883
C           14.32191702442557        0.74359202648372       -2.50601372602498
C           13.46936039163299        0.29052005466882       -1.51880137542515
C           12.93162983896742       -0.96532620943718       -1.60624260548936
C           14.81613223255597        2.16098994596724       -2.53491859348400
F           16.15890019913288        2.21514183497279       -2.48212228607919
F           14.41901595902418        2.78040896077550       -3.66147953804707
C           14.24339049798706        2.92357402345029       -1.34102621187330
F           12.90430714438444        2.92103121318934       -1.38880092791049
F           14.64569502444728        2.35091451375681       -0.19860118498450
C           14.73027220453633        4.36957952998768       -1.35427685963977
F           16.06584117197276        4.39807273724000       -1.29476649628209
F           14.33208575886920        4.97366199980248       -2.47855644556739
C           14.15398976256803        5.11215246751784       -0.14838412383145
F           12.81802095580664        5.09345230624084       -0.20082272005182
F           14.55046227418199        4.51725845099001        0.98179784035976
C           14.64629521941762        6.56012422176572       -0.16360419120101
F           15.98165260991379        6.58518076835085       -0.10535002802264
F           14.24811108537540        7.16202991705905       -1.28882216603453
C           14.07093207912434        7.30424179048816        1.04198724055289
F           12.74272418533381        7.29219604384715        0.99087841399279
F           14.46678475214506        6.71852523637065        2.16775149825926
F           14.49248351760857        8.56411619684480        1.03869331555712
H            8.57827108323271       -5.46862111821163       -3.15986389941247
H           10.93934216676439       -5.37663115917660       -2.43767259180725
H           10.90081646311580       -1.19147650195723       -2.50365656916048
H            8.51978437949282       -1.23160086617098       -2.83242625785087
H           14.35110597913109       -2.34181651364925       -0.53819017682976
H           15.86546494523865       -3.83249617558726        0.76261947778157
H           13.41495127167975       -7.13299883578234       -0.10026850996376
H           12.19229332974338       -5.80945170290757       -1.67619235341207
H           14.06534886338216       -5.69780551996837       -2.79118823493610
H           15.28342529411702       -6.56251748515368       -4.77379241839203
H           13.22135079966738       -3.86822691126437       -7.24969990601204
H           12.32548739034005       -2.75197119913269       -5.29974883971265
H           14.17952971754969       -1.90162312370316       -4.58007155543043
H           15.50170875107039        0.15894039286048       -4.13510045524316
H           13.24731014930615        0.89384270884981       -0.66689183594856
H           12.24186910931696       -1.29650592014888       -0.85298625265750
117
 energy: -358.321726478911 gnorm: 0.048114297796 xtb: 6.7.1 (edcfbbe)
F            0.94175425371547       -0.05853888949639        0.01705578210687
C            2.26966149159784       -0.07388648733873        0.00413622840334
F            2.70337162333244        1.11828985686189       -0.38516646900986
F            2.70301927325575       -0.29935580672682        1.23795002412553
C            2.78391217975333       -1.16990113062119       -0.95197240093133
F            2.31886896414002       -2.36165638438694       -0.54881500527665
F            2.32081893056314       -0.92916288793314       -2.18778053371337
C            4.32159629128067       -1.17558497801321       -0.95334193815620
F            4.76620822797832        0.02853416880955       -1.34614204942362
F            4.77196611557434       -1.40128583930104        0.29022698911965
C            4.83130512867578       -2.27621820674339       -1.90634178725846
F            4.35861757890610       -3.46374675022818       -1.50273605835618
F            4.36158738774234       -2.02724674358040       -3.13910363272408
C            6.36253119288813       -2.27541065246809       -1.92327758118529
F            6.70633973518524       -1.02278997397573       -2.28150226344825
F            6.82392078253494       -2.49373547491150       -0.67794219912680
C            6.90014136656856       -3.35169229098435       -2.89433771825653
F            6.39091339310723       -4.53702814711273       -2.47802172287813
F            6.36908433741355       -3.10831507788956       -4.12533304674695
C            8.37785669799817       -3.34741598315824       -2.88137104522993
C            9.05965840875803       -4.54725320723629       -2.89562468394038
C           10.40774513973301       -4.49543697300403       -2.67688289129331
C           11.11762573817805       -3.30428096384724       -2.59779485084285
C           10.40361355183208       -2.11992330665005       -2.64587670993847
C            9.04691960886429       -2.13819636758666       -2.77056027000429
B           12.69220629821274       -3.28879429278531       -2.60683576343130
C           13.26027041497110       -3.99811019886152       -1.30544160283661
C           14.23493806389787       -3.41394838638492       -0.51022640027325
C           14.97707336213655       -4.18191564297395        0.34948508234934
C           14.63206875166370       -5.50589707871873        0.57017353235850
C           13.62133937609777       -6.09743624817506       -0.17069205839318
C           12.97026198944538       -5.34398291219614       -1.09908570894039
C           15.28845748833300       -6.22498694300042        1.68261949347877
F           16.63633647699906       -6.32657817285881        1.53860283142445
F           15.08146980636617       -5.60150079269826        2.87510313302958
C           14.70987789175348       -7.64297612870009        1.80684653436798
F           13.38117793534577       -7.60243600099945        2.03474862465767
F           14.93481420702135       -8.34126682406684        0.67452352650741
C           15.35913971971263       -8.41061816727302        2.96086911038097
F           16.68526470267343       -8.50070443972548        2.76857772638155
F           15.14252044362600       -7.77828035258228        4.12534644105191
C           14.76400043901244       -9.82729278861054        3.03715152337518
F           13.43781054279047       -9.76425407185535        3.24000527922687
F           14.97646158994655      -10.48334937421799        1.88436311190488
C           15.42370155301562      -10.59860639575605        4.19370322415984
F           16.74909496582728      -10.68098502218449        3.99650239799657
F           15.20777283583605       -9.96143317654888        5.35537640166632
C           14.83141597102277      -12.01691384255644        4.27250011406409
F           13.52126999774882      -11.96110275141924        4.48473750076114
F           15.04856342803819      -12.67376526953437        3.13841509561412
F           15.39018053020136      -12.69651871005418        5.26599363352861
C           13.19680981959877       -4.10200928419511       -3.88581596940983
C           13.98621454581983       -5.23955704179716       -3.76744509692851
C           14.54151649272229       -5.83446410366182       -4.86587805049815
C           14.18922361926065       -5.39641361067219       -6.13085046651628
C           13.40654290945763       -4.25817679989497       -6.28086489907158
C           12.93776596858573       -3.61496969573121       -5.16548969019124
C           14.58932104203823       -6.23773494624069       -7.28426389467118
F           15.93665823111026       -6.37801950077538       -7.40416450012341
F           14.08853254038028       -7.50062120511282       -7.19279527686586
C           14.05314046647201       -5.63209567674083       -8.58934100430746
F           12.70771868290807       -5.54787309449652       -8.55966956579725
F           14.56222536089650       -4.39608475887834       -8.77184990585068
C           14.44405853307552       -6.47838186108418       -9.80380917643810
F           15.78094099720471       -6.57285603264216       -9.89223089369755
F           13.93904529964736       -7.71766774666828       -9.69510559045552
C           13.90009653965677       -5.82167542035031      -11.08438538379178
F           12.56191142414814       -5.72526830235936      -11.02488793598232
F           14.39984389799628       -4.58199335997882      -11.21903096108795
C           14.29939472389382       -6.66909547405780      -12.30516435114672
F           15.63636872923306       -6.76217007590754      -12.38480215548871
F           13.79528904186216       -7.90800550800984      -12.19139672573398
C           13.75722116198749       -6.01390382082206      -13.58791968775662
F           12.43267126022215       -5.92636052157711      -13.53972869172355
F           14.25706475025175       -4.79136902082145      -13.73106888607475
F           14.09317123383680       -6.73285662053354      -14.65159898848875
C           13.23066726573657       -1.80203285554607       -2.67345099048507
C           14.07851973034067       -1.33161685791356       -3.66512097590478
C           14.69391169907684       -0.11389225279635       -3.53196480298760
C           14.32890954080064        0.73022778534603       -2.49585097952611
C           13.45491559468998        0.29253608192748       -1.50868528734961
C           12.93815218651847       -0.96925664459991       -1.59525812105283
C           14.82188802101678        2.12679280942170       -2.53526713840071
F           16.17796860956635        2.21970156257545       -2.49583974675039
F           14.43467660080784        2.77123635206644       -3.67066885931860
C           14.25315703622607        2.91977411251134       -1.34907263682402
F           12.90508753501004        2.93250311423087       -1.38454086351987
F           14.65229283698730        2.36766906744420       -0.18457674899600
C           14.73623384190590        4.37234236885901       -1.36169743926029
F           16.07736950801765        4.41510225312737       -1.30283025944318
F           14.34264947731471        4.98841612847828       -2.48789604765166
C           14.15506935415130        5.11848130620015       -0.14814997539330
F           12.81284404418619        5.09891159268369       -0.18964918665200
F           14.54360014227812        4.52441241581249        0.99234377573441
C           14.64724902054007        6.57639074385163       -0.15842965524119
F           15.98824239586434        6.61100749820598       -0.10327028590214
F           14.25457834644396        7.18780432351779       -1.28715499747880
C           14.06816811033980        7.32533930446935        1.05500252405419
F           12.74051524961112        7.31930237139721        1.01324440743679
F           14.45849923181375        6.74775792369458        2.18589554557589
F           14.48341403796878        8.58579038121488        1.06131670727892
H            8.56225871610214       -5.47768013769838       -3.11434417610894
H           10.92887169428111       -5.41591094129526       -2.52183981842491
H           10.90004177832644       -1.17510093395197       -2.54275323585274
H            8.53207018404421       -1.20871505840258       -2.83724920877088
H           14.40299049620828       -2.35241092927126       -0.56283598036377
H           15.86472019180115       -3.79653473298087        0.82172194264971
H           13.37945470727936       -7.13706936460345       -0.09804613440688
H           12.21523696020586       -5.82972755094083       -1.67981270721696
H           14.12825074221720       -5.68521927862826       -2.80100673127968
H           15.27025407018484       -6.62252460002069       -4.76916692062212
H           13.18531834175420       -3.84885914529504       -7.24474702484562
H           12.31805762387351       -2.74264036754091       -5.29180072625971
H           14.23703549392697       -1.91204585768402       -4.55681946986919
H           15.49016377869214        0.18953419548725       -4.19211405123356
H           13.21115647855767        0.88910955926520       -0.65527118551573
H           12.26021587179354       -1.31206977734704       -0.83037173614927
117
 energy: -358.343827351660 gnorm: 0.034040066222 xtb: 6.7.1 (edcfbbe)
F            0.91406485422840       -0.03775023521122        0.03657600256276
C            2.24119000963333       -0.05964447405154        0.01902828572446
F            2.66953554092632        1.13649026477180       -0.36583404651357
F            2.66847878508221       -0.27784621082162        1.25688706002522
C            2.75544609826264       -1.16011296184437       -0.93733659786397
F            2.28086512155792       -2.35153583518547       -0.53764941676318
F            2.28628256567908       -0.92246936000846       -2.17369499101295
C            4.29871390373289       -1.17823360129146       -0.94750192783551
F            4.74081292964301        0.03084019515302       -1.33402370610865
F            4.75529798895860       -1.39565425087632        0.29745423638051
C            4.80547731324886       -2.28381193454183       -1.90176091625897
F            4.32740495282052       -3.47166410639073       -1.49975297344299
F            4.32625446399970       -2.03844340391487       -3.13398406788614
C            6.34019361493259       -2.27689731891259       -1.93854245878889
F            6.66633174684318       -1.01234027159743       -2.28472268748992
F            6.82608502313609       -2.49324017264724       -0.69954459233534
C            6.88909135663863       -3.34481298000473       -2.91818145139760
F            6.37309513228736       -4.53479067610929       -2.50896774807292
F            6.34471296221562       -3.10998949481230       -4.14934911070679
C            8.36282227640084       -3.33940649257890       -2.90065713933009
C            9.04304453703179       -4.54396705058369       -2.89428187006117
C           10.39960710405001       -4.50807127032243       -2.71250197264968
C           11.10846186639644       -3.31253308047930       -2.61414370217577
C           10.39829204647065       -2.12390863675328       -2.66731442566341
C            9.03875523510500       -2.12978807394131       -2.79536854920400
B           12.68878474945495       -3.29474067590249       -2.60131775834793
C           13.27045274629867       -3.99056507716415       -1.29720615084811
C           14.25911115658122       -3.41578827211549       -0.50909674767718
C           14.98563118305148       -4.16751470822605        0.37978525427558