15
 energy: -30.340444375460 gnorm: 0.000365348968 xtb: 6.7.1 (edcfbbe)
C            1.05746587992508        0.04418306568265        0.13447063238777
C            0.53791917745569       -1.38786591821951        0.22497003478614
C            1.01271475991907       -2.06471658837208        1.52741866703888
C            0.79486179157110       -1.27341826097658        2.70312604620830
N            0.69857031415747       -0.66708621271958        3.67163173279462
B           -1.11017286795374       -1.49138340231644        0.04319537683112
F           -1.48315812745083       -1.07567306007585       -1.24785914589285
F           -1.51983230679869       -2.83537437417993        0.19281838460717
F           -1.81448082756206       -0.72018694720896        0.97177125769565
H            0.62549403512239        0.64580462242006        0.93233080977572
H            0.75782622030325        0.47737547150231       -0.81752624356515
H            2.14873584238269        0.08975958079108        0.21464807519127
H            0.97809209927087       -1.96659241250542       -0.59840249859914
H            0.46986739081755       -3.00704958037861        1.64527859032464
H            2.09086661884047       -2.27892598344294        1.48563828041565
