8
 energy: -32.048057631883 gnorm: 0.082620885958 xtb: 6.7.1 (edcfbbe)
F            0.99144000000000        0.06949000000000       -0.10587000000000
C            2.36037000000000        0.00134000000000       -0.04732000000000
S            2.97636000000000       -1.37748000000000        1.05500000000000
O            2.44051000000000       -2.61556000000000        0.47291000000000
O            4.44256000000000       -1.30103000000000        0.99840000000000
O            2.43477000000000       -1.08608000000000        2.38941000000000
F            2.78269000000000       -0.12243000000000       -1.34669000000000
F            2.77750000000000        1.24220000000000        0.36292000000000
8
 energy: -32.052807979043 gnorm: 0.043761328106 xtb: 6.7.1 (edcfbbe)
F            1.01108236779829        0.05249053465867       -0.09223977337563
C            2.36322620852992       -0.00505262259826       -0.04221163518916
S            2.97939513108576       -1.38427400594468        1.06042769530161
O            2.42892693180186       -2.59225093535491        0.45258454127295
O            4.43312871919568       -1.27630807963253        0.97863971959242
O            2.42317323223065       -1.06110687722614        2.37112463475226
F            2.78620256044498       -0.13769312895887       -1.32189849379212
F            2.78106484891286        1.21464511505672        0.37233331143767
8
 energy: -32.054391784716 gnorm: 0.008815504285 xtb: 6.7.1 (edcfbbe)
F            1.02881446136745        0.03915668137387       -0.08154247846951
C            2.36598913552063       -0.01123635267794       -0.03727312811612
S            2.98330010671356       -1.39301856445756        1.06741885685571
O            2.42022209308514       -2.57000041069741        0.43657866347848
O            4.42215289373061       -1.25554774461320        0.96203772326324
O            2.41446874921196       -1.04057328819716        2.35292693656585
F            2.78816816883843       -0.14932453627563       -1.30029648765473
F            2.78308439153222        1.19099421554503        0.37890991407709
8
 energy: -32.054441131673 gnorm: 0.004621033410 xtb: 6.7.1 (edcfbbe)
F            1.02726354152592        0.03930859752453       -0.08166773905834
C            2.36617909577274       -0.01166022598436       -0.03693806370734
S            2.98400980339686       -1.39460762193795        1.06868942391765
O            2.42067219828963       -2.56911259937344        0.43709123987175
O            4.42104631272647       -1.25568204540852        0.96214191702727
O            2.41491960107297       -1.04086606279262        2.35194350627139
F            2.78859715166731       -0.14937469679314       -1.30180467118713
F            2.78351229554809        1.19244465476549        0.37930438686475
8
 energy: -32.054461113921 gnorm: 0.000266035740 xtb: 6.7.1 (edcfbbe)
F            1.02552738110388        0.04025779786801       -0.08242939694393
C            2.36640010814507       -0.01215248437885       -0.03655006755408
S            2.98501887946375       -1.39686666607852        1.07049498339586
O            2.42138372880098       -2.56869406110484        0.43805297444814
O            4.42010608733399       -1.25634806628357        0.96267048422371
O            2.41562859269356       -1.04169311668127        2.35131414131601
F            2.78860871435977       -0.14859600340775       -1.30379569306226
F            2.78352650809898        1.19454260006680        0.37900257417656
8
 energy: -32.054461260496 gnorm: 0.000116315143 xtb: 6.7.1 (edcfbbe)
F            1.02545514134696        0.04052033019433       -0.08263870863564
C            2.36637244447768       -0.01208932025876       -0.03660242701288
S            2.98515084223021       -1.39716188920269        1.07073051724162
O            2.42142781244026       -2.56892464997670        0.43815139872876
O            4.42025874344217       -1.25650759497159        0.96279762663813
O            2.41566866993219       -1.04183308552472        2.35151265314340
F            2.78847261644134       -0.14831954343127       -1.30396846626698
F            2.78339372968920        1.19476575317141        0.37877740616359
