      -----------------------------------------------------------      
     |                   =====================                   |     
     |                           x T B                           |     
     |                   =====================                   |     
     |                         S. Grimme                         |     
     |          Mulliken Center for Theoretical Chemistry        |     
     |                    University of Bonn                     |     
      -----------------------------------------------------------      

   * xtb version 6.7.1 (edcfbbe) compiled by 'conda@3ef47c1a292c' on 2024-11-25

   xtb is free software: you can redistribute it and/or modify it under
   the terms of the GNU Lesser General Public License as published by
   the Free Software Foundation, either version 3 of the License, or
   (at your option) any later version.
   
   xtb is distributed in the hope that it will be useful,
   but WITHOUT ANY WARRANTY; without even the implied warranty of
   MERCHANTABILITY or FITNESS FOR A PARTICULAR PURPOSE.  See the
   GNU Lesser General Public License for more details.
   
   Cite this work as:
   * C. Bannwarth, E. Caldeweyher, S. Ehlert, A. Hansen, P. Pracht,
     J. Seibert, S. Spicher, S. Grimme, WIREs Comput. Mol. Sci., 2020, 11,
     e01493. DOI: 10.1002/wcms.1493
   
   for GFN2-xTB:
   * C. Bannwarth, S. Ehlert and S. Grimme., J. Chem. Theory Comput., 2019,
     15, 1652-1671. DOI: 10.1021/acs.jctc.8b01176
   for GFN1-xTB:
   * S. Grimme, C. Bannwarth, P. Shushkov, J. Chem. Theory Comput., 2017,
     13, 1989-2009. DOI: 10.1021/acs.jctc.7b00118
   for GFN0-xTB:
   * P. Pracht, E. Caldeweyher, S. Ehlert, S. Grimme, ChemRxiv, 2019, preprint.
     DOI: 10.26434/chemrxiv.8326202.v1
   for GFN-FF:
   * S. Spicher and S. Grimme, Angew. Chem. Int. Ed., 2020, 59, 15665-15673.
     DOI: 10.1002/anie.202004239
   
   for ALPB and GBSA implicit solvation:
   * S. Ehlert, M. Stahn, S. Spicher, S. Grimme, J. Chem. Theory Comput.,
     2021, 17, 4250-4261. DOI: 10.1021/acs.jctc.1c00471
   
   for ddCOSMO and CPCM-X implicit solvation:
   * M. Stahn, S. Ehlert, S. Grimme, J. Phys. Chem. A,
     2023, XX, XXXX-XXXX. DOI: 10.1021/acs.jpca.3c04382
   
   for DFT-D4:
   * E. Caldeweyher, C. Bannwarth and S. Grimme, J. Chem. Phys., 2017,
     147, 034112. DOI: 10.1063/1.4993215
   * E. Caldeweyher, S. Ehlert, A. Hansen, H. Neugebauer, S. Spicher,
     C. Bannwarth and S. Grimme, J. Chem. Phys., 2019, 150, 154122.
     DOI: 10.1063/1.5090222
   * E. Caldeweyher, J.-M. Mewes, S. Ehlert and S. Grimme, Phys. Chem. Chem. Phys.
     2020, 22, 8499-8512. DOI: 10.1039/D0CP00502A
   
   for sTDA-xTB:
   * S. Grimme and C. Bannwarth, J. Chem. Phys., 2016, 145, 054103.
     DOI: 10.1063/1.4959605
   
   in the mass-spec context:
   * V. Asgeirsson, C. Bauer and S. Grimme, Chem. Sci., 2017, 8, 4879.
     DOI: 10.1039/c7sc00601b
   * J. Koopman and S. Grimme, ACS Omega 2019, 4, 12, 15120-15133.
     DOI: 10.1021/acsomega.9b02011
   
   for metadynamics refer to:
   * S. Grimme, J. Chem. Theory Comput., 2019, 155, 2847-2862
     DOI: 10.1021/acs.jctc.9b00143
   
   for SPH calculations refer to:
   * S. Spicher and S. Grimme, J. Chem. Theory Comput., 2021, 17, 1701-1714
     DOI: 10.1021/acs.jctc.0c01306
   
   for ONIOM refer to:
   * C. Plett, A. Katbashev, S. Ehlert, S. Grimme, M. Bursch,
     Phys. Chem. Chem. Phys., 2023, 25, 17860-17868. DOI: 10.1039/D3CP02178E
   
   for DIPRO refer to:
   * J. Kohn, N. Gildemeister, S. Grimme, D. Fazzi, A. Hansen,
     J. Chem. Phys., 2023, just accepted.
   
   for PTB refer to:
   * S. Grimme, M. Mueller, A. Hansen, J. Chem. Phys., 2023, 158, 124111.
     DOI: 10.1063/5.0137838
   
   with help from (in alphabetical order)
   P. Atkinson, C. Bannwarth, F. Bohle, G. Brandenburg, E. Caldeweyher
   M. Checinski, S. Dohm, S. Ehlert, S. Ehrlich, I. Gerasimov, C. Hölzer
   A. Katbashev, J. Kohn, J. Koopman, C. Lavigne, S. Lehtola, F. März, M. Müller,
   F. Musil, H. Neugebauer, J. Pisarek, C. Plett, P. Pracht, F. Pultar,
   J. Seibert, P. Shushkov, S. Spicher, M. Stahn, M. Steiner, T. Strunk,
   J. Stückrath, T. Rose, and J. Unsleber
   
 * started run on 2024/12/20 at 01:54:42.679     
   ID    Z sym.   atoms
    1    9 F      1, 9, 10
    2    6 C      2, 3
    3    8 O      4, 6-8
    4   16 S      5
    5    1 H      11, 12

           -------------------------------------------------
          |                Calculation Setup                |
           -------------------------------------------------

          program call               : xtb A117.xyz --opt --namespace A117 --charge -1
          calculation namespace      : A117
          coordinate file            : A117.xyz
          omp threads                :                     8


           -------------------------------------------------
          |                 G F N 2 - x T B                 |
           -------------------------------------------------

        Reference                      10.1021/acs.jctc.8b01176
      * Hamiltonian:
        H0-scaling (s, p, d)           1.850000    2.230000    2.230000
        zeta-weighting                 0.500000
      * Dispersion:
        s8                             2.700000
        a1                             0.520000
        a2                             5.000000
        s9                             5.000000
      * Repulsion:
        kExp                           1.500000    1.000000
        rExp                           1.000000
      * Coulomb:
        alpha                          2.000000
        third order                    shell-resolved
        anisotropic                    true
        a3                             3.000000
        a5                             4.000000
        cn-shift                       1.200000
        cn-exp                         4.000000
        max-rad                        5.000000


          ...................................................
          :                      SETUP                      :
          :.................................................:
          :  # basis functions                  48          :
          :  # atomic orbitals                  47          :
          :  # shells                           23          :
          :  # electrons                        62          :
          :  max. iterations                   250          :
          :  Hamiltonian                  GFN2-xTB          :
          :  restarted?                      false          :
          :  GBSA solvation                  false          :
          :  PC potential                    false          :
          :  electronic temp.          300.0000000     K    :
          :  accuracy                    1.0000000          :
          :  -> integral cutoff          0.2500000E+02      :
          :  -> integral neglect         0.1000000E-07      :
          :  -> SCF convergence          0.1000000E-05 Eh   :
          :  -> wf. convergence          0.1000000E-03 e    :
          :  Broyden damping             0.4000000          :
          :  net charge                         -1          :
          :  unpaired electrons                  0          :
          ...................................................

 iter      E             dE          RMSdq      gap      omega  full diag
   1    -39.3497112 -0.393497E+02  0.820E+00    9.03       0.0  T
   2    -39.4403740 -0.906628E-01  0.470E+00    8.87       1.0  T
   3    -39.4456912 -0.531728E-02  0.172E+00    8.35       1.0  T
   4    -39.4507518 -0.506050E-02  0.529E-01    8.06       1.0  T
   5    -39.4511725 -0.420703E-03  0.294E-01    8.11       1.0  T
   6    -39.4513649 -0.192422E-03  0.131E-01    8.15       1.0  T
   7    -39.4514058 -0.409169E-04  0.454E-02    8.15       1.0  T
   8    -39.4514114 -0.565449E-05  0.121E-02    8.15       2.4  T
   9    -39.4514116 -0.153098E-06  0.272E-03    8.14      10.6  T
  10    -39.4514116 -0.100542E-07  0.936E-04    8.14      30.8  T
  11    -39.4514116 -0.130117E-08  0.212E-04    8.14     136.1  T

   *** convergence criteria satisfied after 11 iterations ***

         #    Occupation            Energy/Eh            Energy/eV
      -------------------------------------------------------------
         1        2.0000           -0.7698420             -20.9485
       ...           ...                  ...                  ...
        25        2.0000           -0.3109761              -8.4621
        26        2.0000           -0.2731997              -7.4341
        27        2.0000           -0.2682942              -7.3007
        28        2.0000           -0.2635758              -7.1723
        29        2.0000           -0.2536251              -6.9015
        30        2.0000           -0.2519689              -6.8564
        31        2.0000           -0.2401996              -6.5362 (HOMO)
        32                          0.0590803               1.6077 (LUMO)
        33                          0.0807729               2.1979
        34                          0.1345903               3.6624
        35                          0.1406499               3.8273
        36                          0.1559369               4.2433
       ...                                ...                  ...
        47                          1.3595016              36.9939
      -------------------------------------------------------------
                  HL-Gap            0.2992798 Eh            8.1438 eV
             Fermi-level           -0.0905596 Eh           -2.4643 eV

 SCC (total)                   0 d,  0 h,  0 min,  0.009 sec
 SCC setup                      ...        0 min,  0.000 sec (  1.023%)
 Dispersion                     ...        0 min,  0.000 sec (  0.635%)
 classical contributions        ...        0 min,  0.000 sec (  0.494%)
 integral evaluation            ...        0 min,  0.002 sec ( 18.814%)
 iterations                     ...        0 min,  0.006 sec ( 65.710%)
 molecular gradient             ...        0 min,  0.001 sec ( 12.050%)
 printout                       ...        0 min,  0.000 sec (  1.110%)

         :::::::::::::::::::::::::::::::::::::::::::::::::::::
         ::                     SUMMARY                     ::
         :::::::::::::::::::::::::::::::::::::::::::::::::::::
         :: total energy             -39.308599873275 Eh    ::
         :: gradient norm              0.071528144515 Eh/a0 ::
         :: HOMO-LUMO gap              8.143819070256 eV    ::
         ::.................................................::
         :: SCC energy               -39.451399825793 Eh    ::
         :: -> isotropic ES            0.245318751411 Eh    ::
         :: -> anisotropic ES         -0.021197674513 Eh    ::
         :: -> anisotropic XC         -0.024416546937 Eh    ::
         :: -> dispersion             -0.011309625466 Eh    ::
         :: repulsion energy           0.142799952518 Eh    ::
         :: add. restraining           0.000000000000 Eh    ::
         :: total charge              -1.000000000000 e     ::
         :::::::::::::::::::::::::::::::::::::::::::::::::::::

      ----------------------------------------------------------- 
     |                   =====================                   |
     |                        A N C O P T                        |
     |                   =====================                   |
     |               Approximate Normal Coordinate               |
     |                Rational Function Optimizer                |
      ----------------------------------------------------------- 
      ----------------------------------------------------------- 
     |                   =====================                   |
     |                        A N C O P T                        |
     |                   =====================                   |
     |               Approximate Normal Coordinate               |
     |                Rational Function Optimizer                |
      ----------------------------------------------------------- 

          ...................................................
          :                      SETUP                      :
          :.................................................:
          :   optimization level            normal          :
          :   max. optcycles                   200          :
          :   ANC micro-cycles                  20          :
          :   degrees of freedom                30          :
          :.................................................:
          :   RF solver                   davidson          :
          :   write xtbopt.log                true          :
          :   linear?                        false          :
          :   energy convergence         0.5000000E-05 Eh   :
          :   grad. convergence          0.1000000E-02 Eh/α :
          :   maxmium RF displ.          1.0000000          :
          :   Hlow (freq-cutoff)         0.1000000E-01      :
          :   Hmax (freq-cutoff)         5.0000000          :
          :   S6 in model hess.         20.0000000          :
          ...................................................

generating ANC from exact Hessian ...
Using Lindh-Hessian (1995)
 Shifting diagonal of input Hessian by    5.1041730330043675E-003
 Lowest  eigenvalues of input Hessian
    0.000000    0.000000    0.000000    0.000000    0.000000    0.000000
    0.010000    0.015280    0.015610    0.036204    0.055303    0.059046
    0.076879    0.088354    0.095683    0.111408    0.142030    0.206101
 Highest eigenvalues
    1.518883    1.616222    1.719556    2.188529    3.524009    3.539445


........................................................................
.............................. CYCLE    1 ..............................
........................................................................

 iter      E             dE          RMSdq      gap      omega  full diag
   1    -39.4514116 -0.394514E+02  0.658E-05    8.14       0.0  T
   2    -39.4514116 -0.289191E-11  0.395E-05    8.14     731.7  T
   3    -39.4514116 -0.383693E-12  0.130E-05    8.14    2214.0  T
     SCC iter.                  ...        0 min,  0.002 sec
     gradient                   ...        0 min,  0.001 sec
 * total energy  :   -39.3085999 Eh     change       -0.5783818E-10 Eh
   gradient norm :     0.0715242 Eh/α   predicted     0.0000000E+00 (-100.00%)
   displ. norm   :     0.2630155 α      lambda       -0.7208935E-02
   maximum displ.:     0.1694610 α      in ANC's #2, #4, #10, ...

........................................................................
.............................. CYCLE    2 ..............................
........................................................................

 iter      E             dE          RMSdq      gap      omega  full diag
   1    -39.4607051 -0.394607E+02  0.233E-01    8.40       0.0  T
   2    -39.4607365 -0.313956E-04  0.133E-01    8.41       1.0  T
   3    -39.4607408 -0.434349E-05  0.351E-02    8.42       1.0  T
   4    -39.4607415 -0.615824E-06  0.104E-02    8.42       2.8  T
   5    -39.4607416 -0.125484E-06  0.427E-03    8.42       6.8  T
   6    -39.4607416 -0.171658E-07  0.207E-03    8.42      13.9  T
   7    -39.4607416 -0.572636E-08  0.678E-04    8.42      42.6  T
   8    -39.4607416 -0.774776E-09  0.259E-04    8.42     111.3  T
     SCC iter.                  ...        0 min,  0.003 sec
     gradient                   ...        0 min,  0.001 sec
 * total energy  :   -39.3140672 Eh     change       -0.5467316E-02 Eh
   gradient norm :     0.0443983 Eh/α   predicted    -0.3853811E-02 ( -29.51%)
   displ. norm   :     0.3206105 α      lambda       -0.4784183E-02
   maximum displ.:     0.2279399 α      in ANC's #4, #2, #3, ...

........................................................................
.............................. CYCLE    3 ..............................
........................................................................

 iter      E             dE          RMSdq      gap      omega  full diag
   1    -39.4678640 -0.394679E+02  0.226E-01    8.40       0.0  T
   2    -39.4679119 -0.478059E-04  0.125E-01    8.41       1.0  T
   3    -39.4679184 -0.654765E-05  0.466E-02    8.42       1.0  T
   4    -39.4679190 -0.574462E-06  0.115E-02    8.42       2.5  T
   5    -39.4679191 -0.140021E-06  0.470E-03    8.42       6.1  T
   6    -39.4679191 -0.252713E-07  0.227E-03    8.42      12.7  T
   7    -39.4679192 -0.871690E-08  0.106E-03    8.42      27.3  T
   8    -39.4679192 -0.242956E-08  0.357E-04    8.42      80.9  T
   9    -39.4679192 -0.187015E-09  0.123E-04    8.42     235.4  T
     SCC iter.                  ...        0 min,  0.004 sec
     gradient                   ...        0 min,  0.001 sec
 * total energy  :   -39.3168539 Eh     change       -0.2786670E-02 Eh
   gradient norm :     0.0200359 Eh/α   predicted    -0.2637982E-02 (  -5.34%)
   displ. norm   :     0.1208404 α      lambda       -0.7069358E-03
   maximum displ.:     0.0969112 α      in ANC's #4, #1, #2, ...

........................................................................
.............................. CYCLE    4 ..............................
........................................................................

 iter      E             dE          RMSdq      gap      omega  full diag
   1    -39.4689291 -0.394689E+02  0.812E-02    8.34       0.0  T
   2    -39.4689423 -0.132150E-04  0.521E-02    8.35       1.0  T
   3    -39.4689430 -0.669346E-06  0.277E-02    8.35       1.0  T
   4    -39.4689431 -0.123333E-06  0.510E-03    8.36       5.7  T
   5    -39.4689431 -0.138669E-07  0.219E-03    8.36      13.2  T
   6    -39.4689431 -0.340678E-08  0.449E-04    8.35      64.3  T
   7    -39.4689431 -0.295593E-09  0.270E-04    8.35     107.1  T
     SCC iter.                  ...        0 min,  0.003 sec
     gradient                   ...        0 min,  0.001 sec
 * total energy  :   -39.3173839 Eh     change       -0.5300064E-03 Eh
   gradient norm :     0.0136786 Eh/α   predicted    -0.3586288E-03 ( -32.34%)
   displ. norm   :     0.1545328 α      lambda       -0.6380158E-03
   maximum displ.:     0.1006801 α      in ANC's #4, #1, #3, ...

........................................................................
.............................. CYCLE    5 ..............................
........................................................................

 iter      E             dE          RMSdq      gap      omega  full diag
   1    -39.4695088 -0.394695E+02  0.108E-01    8.23       0.0  T
   2    -39.4695341 -0.253835E-04  0.771E-02    8.25       1.0  T
   3    -39.4695352 -0.102777E-05  0.415E-02    8.25       1.0  T
   4    -39.4695354 -0.208559E-06  0.751E-03    8.25       3.8  T
   5    -39.4695354 -0.202125E-07  0.324E-03    8.25       8.9  T
   6    -39.4695354 -0.767075E-08  0.383E-04    8.25      75.4  T
   7    -39.4695354 -0.283073E-09  0.196E-04    8.25     147.4  T
     SCC iter.                  ...        0 min,  0.003 sec
     gradient                   ...        0 min,  0.001 sec
 * total energy  :   -39.3177778 Eh     change       -0.3939233E-03 Eh
   gradient norm :     0.0059108 Eh/α   predicted    -0.3266260E-03 ( -17.08%)
   displ. norm   :     0.1095520 α      lambda       -0.1768998E-03
   maximum displ.:     0.0805768 α      in ANC's #3, #1, #4, ...

........................................................................
.............................. CYCLE    6 ..............................
........................................................................

 iter      E             dE          RMSdq      gap      omega  full diag
   1    -39.4695351 -0.394695E+02  0.596E-02    8.19       0.0  T
   2    -39.4695402 -0.508908E-05  0.415E-02    8.19       1.0  T
   3    -39.4695406 -0.342767E-06  0.173E-02    8.20       1.7  T
   4    -39.4695406 -0.592707E-07  0.406E-03    8.20       7.1  T
   5    -39.4695406 -0.536917E-08  0.151E-03    8.20      19.1  T
   6    -39.4695406 -0.307263E-08  0.301E-04    8.20      95.9  T
   7    -39.4695406 -0.102894E-09  0.167E-04    8.20     172.7  T
     SCC iter.                  ...        0 min,  0.003 sec
     gradient                   ...        0 min,  0.001 sec
 * total energy  :   -39.3179133 Eh     change       -0.1355336E-03 Eh
   gradient norm :     0.0040335 Eh/α   predicted    -0.8951146E-04 ( -33.96%)
   displ. norm   :     0.1840696 α      lambda       -0.1946835E-03
   maximum displ.:     0.1447304 α      in ANC's #3, #1, #4, ...

........................................................................
.............................. CYCLE    7 ..............................
........................................................................

 iter      E             dE          RMSdq      gap      omega  full diag
   1    -39.4689463 -0.394689E+02  0.895E-02    8.11       0.0  T
   2    -39.4689523 -0.606161E-05  0.570E-02    8.12       1.0  T
   3    -39.4689531 -0.790832E-06  0.161E-02    8.12       1.8  T
   4    -39.4689532 -0.883237E-07  0.504E-03    8.12       5.7  T
   5    -39.4689532 -0.117920E-07  0.146E-03    8.12      19.7  T
   6    -39.4689532 -0.392387E-08  0.411E-04    8.12      70.2  T
   7    -39.4689532 -0.156625E-09  0.200E-04    8.12     144.5  T
     SCC iter.                  ...        0 min,  0.003 sec
     gradient                   ...        0 min,  0.001 sec
 * total energy  :   -39.3180410 Eh     change       -0.1276694E-03 Eh
   gradient norm :     0.0053192 Eh/α   predicted    -0.1006361E-03 ( -21.17%)
   displ. norm   :     0.1215600 α      lambda       -0.7969428E-04
   maximum displ.:     0.0958609 α      in ANC's #3, #1, #4, ...

........................................................................
.............................. CYCLE    8 ..............................
........................................................................

 iter      E             dE          RMSdq      gap      omega  full diag
   1    -39.4687090 -0.394687E+02  0.553E-02    8.10       0.0  T
   2    -39.4687103 -0.125166E-05  0.322E-02    8.10       1.0  T
   3    -39.4687106 -0.318753E-06  0.694E-03    8.10       4.2  T
   4    -39.4687106 -0.272932E-07  0.263E-03    8.10      11.0  T
   5    -39.4687106 -0.502583E-08  0.465E-04    8.10      62.1  T
   6    -39.4687106 -0.555502E-09  0.226E-04    8.10     127.8  T
     SCC iter.                  ...        0 min,  0.003 sec
     gradient                   ...        0 min,  0.001 sec
 * total energy  :   -39.3181021 Eh     change       -0.6107266E-04 Eh
   gradient norm :     0.0058929 Eh/α   predicted    -0.4043657E-04 ( -33.79%)
   displ. norm   :     0.1577084 α      lambda       -0.1041560E-03
   maximum displ.:     0.1217822 α      in ANC's #3, #1, #4, ...

........................................................................
.............................. CYCLE    9 ..............................
........................................................................

 iter      E             dE          RMSdq      gap      omega  full diag
   1    -39.4686615 -0.394687E+02  0.730E-02    8.11       0.0  T
   2    -39.4686646 -0.307269E-05  0.417E-02    8.11       1.0  T
   3    -39.4686651 -0.576285E-06  0.112E-02    8.11       2.6  T
   4    -39.4686652 -0.457190E-07  0.408E-03    8.11       7.1  T
   5    -39.4686652 -0.827655E-08  0.786E-04    8.11      36.7  T
   6    -39.4686652 -0.147853E-08  0.295E-04    8.11      97.8  T
     SCC iter.                  ...        0 min,  0.003 sec
     gradient                   ...        0 min,  0.001 sec
 * total energy  :   -39.3181810 Eh     change       -0.7889397E-04 Eh
   gradient norm :     0.0057620 Eh/α   predicted    -0.5337189E-04 ( -32.35%)
   displ. norm   :     0.2050962 α      lambda       -0.1162562E-03
   maximum displ.:     0.1558247 α      in ANC's #3, #1, #4, ...

........................................................................
.............................. CYCLE   10 ..............................
........................................................................

 iter      E             dE          RMSdq      gap      omega  full diag
   1    -39.4684179 -0.394684E+02  0.968E-02    8.15       0.0  T
   2    -39.4684243 -0.638965E-05  0.554E-02    8.15       1.0  T
   3    -39.4684253 -0.994572E-06  0.167E-02    8.14       1.7  T
   4    -39.4684253 -0.892865E-07  0.563E-03    8.14       5.1  T
   5    -39.4684254 -0.144939E-07  0.115E-03    8.14      25.1  T
   6    -39.4684254 -0.134562E-08  0.394E-04    8.14      73.3  T
   7    -39.4684254 -0.107740E-09  0.167E-04    8.14     172.8  T
     SCC iter.                  ...        0 min,  0.003 sec
     gradient                   ...        0 min,  0.001 sec
 * total energy  :   -39.3182682 Eh     change       -0.8727934E-04 Eh
   gradient norm :     0.0061353 Eh/α   predicted    -0.6057314E-04 ( -30.60%)
   displ. norm   :     0.2232328 α      lambda       -0.1228459E-03
   maximum displ.:     0.1693259 α      in ANC's #3, #1, #4, ...

........................................................................
.............................. CYCLE   11 ..............................
........................................................................

 iter      E             dE          RMSdq      gap      omega  full diag
   1    -39.4684488 -0.394684E+02  0.108E-01    8.22       0.0  T
   2    -39.4684573 -0.844787E-05  0.616E-02    8.21       1.0  T
   3    -39.4684584 -0.116407E-05  0.199E-02    8.21       1.4  T
   4    -39.4684586 -0.129991E-06  0.603E-03    8.21       4.8  T
   5    -39.4684586 -0.166496E-07  0.148E-03    8.21      19.5  T
   6    -39.4684586 -0.188739E-08  0.440E-04    8.21      65.7  T
   7    -39.4684586 -0.128452E-09  0.168E-04    8.21     171.5  T
     SCC iter.                  ...        0 min,  0.003 sec
     gradient                   ...        0 min,  0.001 sec
 * total energy  :   -39.3183598 Eh     change       -0.9159072E-04 Eh
   gradient norm :     0.0063650 Eh/α   predicted    -0.6448296E-04 ( -29.60%)
   displ. norm   :     0.2411900 α      lambda       -0.1155656E-03
   maximum displ.:     0.1754079 α      in ANC's #3, #1, #4, ...

........................................................................
.............................. CYCLE   12 ..............................
........................................................................

 iter      E             dE          RMSdq      gap      omega  full diag
   1    -39.4680044 -0.394680E+02  0.116E-01    8.25       0.0  T
   2    -39.4680116 -0.720166E-05  0.664E-02    8.25       1.0  T
   3    -39.4680128 -0.118447E-05  0.183E-02    8.25       1.6  T
   4    -39.4680129 -0.152331E-06  0.600E-03    8.25       4.8  T
   5    -39.4680130 -0.195844E-07  0.166E-03    8.25      17.4  T
   6    -39.4680130 -0.293864E-08  0.527E-04    8.25      54.8  T
   7    -39.4680130 -0.276742E-09  0.260E-04    8.25     111.0  T
     SCC iter.                  ...        0 min,  0.003 sec
     gradient                   ...        0 min,  0.001 sec
 * total energy  :   -39.3184469 Eh     change       -0.8709420E-04 Eh
   gradient norm :     0.0073775 Eh/α   predicted    -0.6114645E-04 ( -29.79%)
   displ. norm   :     0.2240630 α      lambda       -0.1492852E-03
   maximum displ.:     0.1561532 α      in ANC's #3, #1, #4, ...

........................................................................
.............................. CYCLE   13 ..............................
........................................................................

 iter      E             dE          RMSdq      gap      omega  full diag
   1    -39.4696753 -0.394697E+02  0.112E-01    8.34       0.0  T
   2    -39.4696818 -0.652664E-05  0.634E-02    8.34       1.0  T
   3    -39.4696827 -0.881720E-06  0.187E-02    8.34       1.5  T
   4    -39.4696829 -0.248844E-06  0.561E-03    8.34       5.1  T
   5    -39.4696829 -0.368007E-07  0.184E-03    8.34      15.7  T
   6    -39.4696829 -0.346529E-08  0.501E-04    8.34      57.7  T
   7    -39.4696829 -0.259057E-09  0.256E-04    8.34     112.6  T
     SCC iter.                  ...        0 min,  0.003 sec
     gradient                   ...        0 min,  0.001 sec
 * total energy  :   -39.3185390 Eh     change       -0.9212366E-04 Eh
   gradient norm :     0.0069302 Eh/α   predicted    -0.7838922E-04 ( -14.91%)
   displ. norm   :     0.5659249 α      lambda       -0.2261009E-03
   maximum displ.:     0.4037403 α      in ANC's #3, #1, #4, ...

........................................................................
.............................. CYCLE   14 ..............................
........................................................................

 iter      E             dE          RMSdq      gap      omega  full diag
   1    -39.4617420 -0.394617E+02  0.268E-01    8.13       0.0  T
   2    -39.4617673 -0.253563E-04  0.157E-01    8.13       1.0  T
   3    -39.4617734 -0.606892E-05  0.342E-02    8.13       1.0  T
   4    -39.4617741 -0.703042E-06  0.129E-02    8.13       2.2  T
   5    -39.4617742 -0.101329E-06  0.288E-03    8.12      10.0  T
   6    -39.4617742 -0.138919E-07  0.154E-03    8.12      18.7  T
   7    -39.4617742 -0.352106E-08  0.685E-04    8.12      42.1  T
   8    -39.4617742 -0.104891E-08  0.285E-04    8.12     101.3  T
     SCC iter.                  ...        0 min,  0.003 sec
     gradient                   ...        0 min,  0.001 sec
 * total energy  :   -39.3183776 Eh     change        0.1614510E-03 Eh
   gradient norm :     0.0228418 Eh/α   predicted    -0.1492432E-03 (-192.44%)
   displ. norm   :     0.2806257 α      lambda       -0.7348196E-03
   maximum displ.:     0.2120249 α      in ANC's #3, #1, #4, ...

........................................................................
.............................. CYCLE   15 ..............................
........................................................................

 iter      E             dE          RMSdq      gap      omega  full diag
   1    -39.4690341 -0.394690E+02  0.144E-01    8.27       0.0  T
   2    -39.4690516 -0.174236E-04  0.874E-02    8.28       1.0  T
   3    -39.4690535 -0.190945E-05  0.264E-02    8.28       1.1  T
   4    -39.4690541 -0.684695E-06  0.933E-03    8.28       3.1  T
   5    -39.4690542 -0.593959E-07  0.383E-03    8.28       7.5  T
   6    -39.4690542 -0.219226E-07  0.107E-03    8.28      26.9  T
   7    -39.4690542 -0.132722E-08  0.591E-04    8.28      48.8  T
   8    -39.4690542 -0.645045E-09  0.171E-04    8.28     168.8  T
     SCC iter.                  ...        0 min,  0.004 sec
     gradient                   ...        0 min,  0.001 sec
 * total energy  :   -39.3186921 Eh     change       -0.3145406E-03 Eh
   gradient norm :     0.0060152 Eh/α   predicted    -0.3963474E-03 (  26.01%)
   displ. norm   :     0.1001490 α      lambda       -0.8128209E-04
   maximum displ.:     0.0729977 α      in ANC's #3, #1, #6, ...

........................................................................
.............................. CYCLE   16 ..............................
........................................................................

 iter      E             dE          RMSdq      gap      omega  full diag
   1    -39.4695970 -0.394696E+02  0.455E-02    8.28       0.0  T
   2    -39.4695977 -0.706291E-06  0.265E-02    8.28       1.1  T
   3    -39.4695979 -0.158933E-06  0.673E-03    8.28       4.3  T
   4    -39.4695979 -0.150698E-07  0.161E-03    8.28      17.9  T
   5    -39.4695979 -0.115815E-08  0.324E-04    8.28      89.2  T
   6    -39.4695979 -0.134058E-09  0.127E-04    8.28     226.8  T
     SCC iter.                  ...        0 min,  0.003 sec
     gradient                   ...        0 min,  0.001 sec
 * total energy  :   -39.3187624 Eh     change       -0.7029653E-04 Eh
   gradient norm :     0.0054749 Eh/α   predicted    -0.4104950E-04 ( -41.61%)
   displ. norm   :     0.5510802 α      lambda       -0.3469613E-03
   maximum displ.:     0.3611710 α      in ANC's #3, #1, #4, ...

........................................................................
.............................. CYCLE   17 ..............................
........................................................................

 iter      E             dE          RMSdq      gap      omega  full diag
   1    -39.4661826 -0.394662E+02  0.253E-01    8.06       0.0  T
   2    -39.4662042 -0.215468E-04  0.147E-01    8.07       1.0  T
   3    -39.4662089 -0.467886E-05  0.397E-02    8.07       1.0  T
   4    -39.4662093 -0.416933E-06  0.948E-03    8.07       3.0  T
   5    -39.4662093 -0.447798E-07  0.200E-03    8.07      14.4  T
   6    -39.4662093 -0.315278E-08  0.100E-03    8.07      28.8  T
   7    -39.4662093 -0.131291E-08  0.376E-04    8.07      76.9  T
   8    -39.4662093 -0.309939E-09  0.179E-04    8.07     161.2  T
     SCC iter.                  ...        0 min,  0.003 sec
     gradient                   ...        0 min,  0.001 sec
 * total energy  :   -39.3189051 Eh     change       -0.1426219E-03 Eh
   gradient norm :     0.0137379 Eh/α   predicted    -0.2261780E-03 (  58.59%)
   displ. norm   :     0.0930247 α      lambda       -0.2360043E-03
   maximum displ.:     0.0715610 α      in ANC's #1, #3, #2, ...

........................................................................
.............................. CYCLE   18 ..............................
........................................................................

 iter      E             dE          RMSdq      gap      omega  full diag
   1    -39.4694500 -0.394695E+02  0.612E-02    8.22       0.0  T
   2    -39.4694513 -0.130782E-05  0.349E-02    8.22       1.0  T
   3    -39.4694516 -0.286739E-06  0.783E-03    8.22       3.7  T
   4    -39.4694517 -0.446098E-07  0.321E-03    8.22       9.0  T
   5    -39.4694517 -0.112503E-07  0.102E-03    8.22      28.4  T
   6    -39.4694517 -0.179692E-08  0.483E-04    8.22      59.8  T
   7    -39.4694517 -0.410857E-09  0.180E-04    8.22     160.7  T
     SCC iter.                  ...        0 min,  0.003 sec
     gradient                   ...        0 min,  0.001 sec
 * total energy  :   -39.3190084 Eh     change       -0.1033523E-03 Eh
   gradient norm :     0.0051786 Eh/α   predicted    -0.1190244E-03 (  15.16%)
   displ. norm   :     0.1502656 α      lambda       -0.1118404E-03
   maximum displ.:     0.1029284 α      in ANC's #1, #3, #6, ...

........................................................................
.............................. CYCLE   19 ..............................
........................................................................

 iter      E             dE          RMSdq      gap      omega  full diag
   1    -39.4697944 -0.394698E+02  0.700E-02    8.23       0.0  T
   2    -39.4697967 -0.230937E-05  0.406E-02    8.23       1.0  T
   3    -39.4697970 -0.326051E-06  0.115E-02    8.23       2.5  T
   4    -39.4697971 -0.608248E-07  0.327E-03    8.23       8.8  T
   5    -39.4697971 -0.626878E-08  0.884E-04    8.23      32.7  T
   6    -39.4697971 -0.263966E-08  0.312E-04    8.23      92.7  T
     SCC iter.                  ...        0 min,  0.003 sec
     gradient                   ...        0 min,  0.001 sec
 * total energy  :   -39.3191016 Eh     change       -0.9323091E-04 Eh
   gradient norm :     0.0039260 Eh/α   predicted    -0.5718429E-04 ( -38.66%)
   displ. norm   :     0.6064572 α      lambda       -0.2900311E-03
   maximum displ.:     0.3985212 α      in ANC's #3, #1, #4, ...

........................................................................
.............................. CYCLE   20 ..............................
........................................................................

 iter      E             dE          RMSdq      gap      omega  full diag
   1    -39.4634739 -0.394635E+02  0.276E-01    8.07       0.0  T
   2    -39.4635112 -0.372884E-04  0.158E-01    8.06       1.0  T
   3    -39.4635170 -0.579447E-05  0.502E-02    8.06       1.0  T
   4    -39.4635182 -0.129697E-05  0.136E-02    8.06       2.1  T
   5    -39.4635184 -0.132866E-06  0.424E-03    8.06       6.8  T
   6    -39.4635184 -0.489575E-07  0.158E-03    8.06      18.3  T
   7    -39.4635184 -0.373707E-08  0.628E-04    8.06      45.9  T
   8    -39.4635184 -0.927244E-09  0.256E-04    8.06     112.9  T
     SCC iter.                  ...        0 min,  0.003 sec
     gradient                   ...        0 min,  0.001 sec
 * total energy  :   -39.3190182 Eh     change        0.8340000E-04 Eh
   gradient norm :     0.0176501 Eh/α   predicted    -0.1983642E-03 (-337.85%)
   displ. norm   :     0.2783856 α      lambda       -0.6345651E-03
   maximum displ.:     0.1935365 α      in ANC's #3, #1, #4, ...
 * RMSD in coord.:     0.8866201 α      energy gain  -0.1041836E-01 Eh

generating ANC from exact Hessian ...
Using Lindh-Hessian (1995)
 Shifting diagonal of input Hessian by    3.9138694544038708E-003
 Lowest  eigenvalues of input Hessian
    0.000000    0.000000    0.000000    0.000000    0.000000    0.000000
    0.010000    0.014663    0.015510    0.032802    0.053295    0.056383
    0.076054    0.087403    0.096855    0.112971    0.140198    0.202913
 Highest eigenvalues
    1.598071    1.632739    1.792184    1.948864    3.584392    3.710400


........................................................................
.............................. CYCLE   21 ..............................
........................................................................

 iter      E             dE          RMSdq      gap      omega  full diag
   1    -39.4704098 -0.394704E+02  0.140E-01    8.28       0.0  T
   2    -39.4704222 -0.124180E-04  0.795E-02    8.28       1.0  T
   3    -39.4704236 -0.145543E-05  0.275E-02    8.28       1.0  T
   4    -39.4704243 -0.691849E-06  0.831E-03    8.28       3.5  T
   5    -39.4704244 -0.682471E-07  0.263E-03    8.28      11.0  T
   6    -39.4704244 -0.106506E-07  0.103E-03    8.28      28.0  T
   7    -39.4704244 -0.159346E-08  0.258E-04    8.28     112.0  T
   8    -39.4704244 -0.139359E-09  0.136E-04    8.28     212.7  T
     SCC iter.                  ...        0 min,  0.003 sec
     gradient                   ...        0 min,  0.001 sec
 * total energy  :   -39.3192525 Eh     change       -0.2343074E-03 Eh
   gradient norm :     0.0038397 Eh/α   predicted     0.0000000E+00 (-100.00%)
   displ. norm   :     0.0389091 α      lambda       -0.3509574E-04
   maximum displ.:     0.0260303 α      in ANC's #1, #2, #3, ...

........................................................................
.............................. CYCLE   22 ..............................
........................................................................

 iter      E             dE          RMSdq      gap      omega  full diag
   1    -39.4703412 -0.394703E+02  0.238E-02    8.28       0.0  T
   2    -39.4703414 -0.140740E-06  0.140E-02    8.28       2.1  T
   3    -39.4703414 -0.282773E-07  0.278E-03    8.28      10.4  T
   4    -39.4703414 -0.215594E-08  0.109E-03    8.28      26.4  T
   5    -39.4703414 -0.312994E-09  0.172E-04    8.28     168.3  T
   6    -39.4703414 -0.941043E-10  0.917E-05    8.28     314.7  T
     SCC iter.                  ...        0 min,  0.003 sec
     gradient                   ...        0 min,  0.001 sec
 * total energy  :   -39.3192801 Eh     change       -0.2759553E-04 Eh
   gradient norm :     0.0021592 Eh/α   predicted    -0.1757401E-04 ( -36.32%)
   displ. norm   :     0.0683553 α      lambda       -0.3367785E-04
   maximum displ.:     0.0483113 α      in ANC's #1, #2, #3, ...

........................................................................
.............................. CYCLE   23 ..............................
........................................................................

 iter      E             dE          RMSdq      gap      omega  full diag
   1    -39.4702110 -0.394702E+02  0.373E-02    8.28       0.0  T
   2    -39.4702113 -0.331600E-06  0.217E-02    8.28       1.3  T
   3    -39.4702114 -0.772229E-07  0.474E-03    8.28       6.1  T
   4    -39.4702114 -0.446430E-08  0.165E-03    8.28      17.5  T
   5    -39.4702114 -0.768154E-09  0.213E-04    8.28     135.8  T
   6    -39.4702114 -0.355413E-10  0.973E-05    8.28     296.8  T
     SCC iter.                  ...        0 min,  0.003 sec
     gradient                   ...        0 min,  0.001 sec
 * total energy  :   -39.3193021 Eh     change       -0.2193763E-04 Eh
   gradient norm :     0.0009794 Eh/α   predicted    -0.1691855E-04 ( -22.88%)
   displ. norm   :     0.0676302 α      lambda       -0.1140126E-04
   maximum displ.:     0.0499617 α      in ANC's #1, #3, #2, ...

........................................................................
.............................. CYCLE   24 ..............................
........................................................................

 iter      E             dE          RMSdq      gap      omega  full diag
   1    -39.4701610 -0.394702E+02  0.335E-02    8.28       0.0  T
   2    -39.4701612 -0.221931E-06  0.192E-02    8.28       1.5  T
   3    -39.4701613 -0.651707E-07  0.427E-03    8.28       6.8  T
   4    -39.4701613 -0.555131E-08  0.134E-03    8.28      21.6  T
   5    -39.4701613 -0.119154E-08  0.284E-04    8.28     101.5  T
   6    -39.4701613 -0.235318E-09  0.141E-04    8.28     204.3  T
     SCC iter.                  ...        0 min,  0.003 sec
     gradient                   ...        0 min,  0.001 sec
 * total energy  :   -39.3193151 Eh     change       -0.1304487E-04 Eh
   gradient norm :     0.0017911 Eh/α   predicted    -0.5713455E-05 ( -56.20%)
   displ. norm   :     0.0979821 α      lambda       -0.1696908E-04
   maximum displ.:     0.0671523 α      in ANC's #1, #3, #4, ...

........................................................................
.............................. CYCLE   25 ..............................
........................................................................

 iter      E             dE          RMSdq      gap      omega  full diag
   1    -39.4701721 -0.394702E+02  0.449E-02    8.28       0.0  T
   2    -39.4701727 -0.534238E-06  0.254E-02    8.28       1.1  T
   3    -39.4701728 -0.134033E-06  0.635E-03    8.28       4.5  T
   4    -39.4701728 -0.144650E-07  0.183E-03    8.28      15.8  T
   5    -39.4701728 -0.197549E-08  0.434E-04    8.28      66.5  T
   6    -39.4701728 -0.526711E-09  0.217E-04    8.28     133.3  T
     SCC iter.                  ...        0 min,  0.003 sec
     gradient                   ...        0 min,  0.001 sec
 * total energy  :   -39.3193353 Eh     change       -0.2021747E-04 Eh
   gradient norm :     0.0022489 Eh/α   predicted    -0.8519246E-05 ( -57.86%)
   displ. norm   :     0.1064616 α      lambda       -0.2168349E-04
   maximum displ.:     0.0691499 α      in ANC's #3, #1, #4, ...

........................................................................
.............................. CYCLE   26 ..............................
........................................................................

 iter      E             dE          RMSdq      gap      omega  full diag
   1    -39.4700984 -0.394701E+02  0.476E-02    8.28       0.0  T
   2    -39.4700992 -0.826468E-06  0.268E-02    8.28       1.1  T
   3    -39.4700994 -0.167861E-06  0.784E-03    8.28       3.7  T
   4    -39.4700994 -0.186792E-07  0.196E-03    8.28      14.7  T
   5    -39.4700994 -0.173386E-08  0.353E-04    8.28      81.9  T
   6    -39.4700994 -0.162728E-09  0.214E-04    8.28     135.2  T
     SCC iter.                  ...        0 min,  0.003 sec
     gradient                   ...        0 min,  0.001 sec
 * total energy  :   -39.3193514 Eh     change       -0.1608019E-04 Eh
   gradient norm :     0.0023429 Eh/α   predicted    -0.1096602E-04 ( -31.80%)
   displ. norm   :     0.0997841 α      lambda       -0.1533779E-04
   maximum displ.:     0.0722606 α      in ANC's #3, #1, #4, ...

........................................................................
.............................. CYCLE   27 ..............................
........................................................................

 iter      E             dE          RMSdq      gap      omega  full diag
   1    -39.4701089 -0.394701E+02  0.440E-02    8.28       0.0  T
   2    -39.4701098 -0.930371E-06  0.246E-02    8.28       1.2  T
   3    -39.4701100 -0.165986E-06  0.811E-03    8.28       3.6  T
   4    -39.4701100 -0.221310E-07  0.193E-03    8.28      15.0  T
   5    -39.4701100 -0.184761E-08  0.367E-04    8.28      78.6  T
   6    -39.4701100 -0.391218E-09  0.194E-04    8.28     148.6  T
     SCC iter.                  ...        0 min,  0.003 sec
     gradient                   ...        0 min,  0.001 sec
 * total energy  :   -39.3193615 Eh     change       -0.1009818E-04 Eh
   gradient norm :     0.0019305 Eh/α   predicted    -0.7744283E-05 ( -23.31%)
   displ. norm   :     0.0705918 α      lambda       -0.8449018E-05
   maximum displ.:     0.0599466 α      in ANC's #3, #4, #1, ...

........................................................................
.............................. CYCLE   28 ..............................
........................................................................

 iter      E             dE          RMSdq      gap      omega  full diag
   1    -39.4705332 -0.394705E+02  0.313E-02    8.29       0.0  T
   2    -39.4705338 -0.681183E-06  0.177E-02    8.29       1.6  T
   3    -39.4705340 -0.124829E-06  0.622E-03    8.29       4.6  T
   4    -39.4705340 -0.161830E-07  0.170E-03    8.29      17.0  T
   5    -39.4705340 -0.159213E-08  0.296E-04    8.29      97.6  T
   6    -39.4705340 -0.317300E-09  0.113E-04    8.29     255.4  T
     SCC iter.                  ...        0 min,  0.003 sec
     gradient                   ...        0 min,  0.001 sec
 * total energy  :   -39.3193692 Eh     change       -0.7696179E-05 Eh
   gradient norm :     0.0007969 Eh/α   predicted    -0.4234195E-05 ( -44.98%)
   displ. norm   :     0.0235386 α      lambda       -0.3374564E-05
   maximum displ.:     0.0190009 α      in ANC's #3, #1, #4, ...

........................................................................
.............................. CYCLE   29 ..............................
........................................................................

 iter      E             dE          RMSdq      gap      omega  full diag
   1    -39.4706443 -0.394706E+02  0.126E-02    8.29       0.0  T
   2    -39.4706444 -0.896553E-07  0.703E-03    8.29       4.1  T
   3    -39.4706444 -0.217746E-07  0.180E-03    8.29      16.1  T
   4    -39.4706444 -0.164050E-08  0.805E-04    8.29      35.9  T
   5    -39.4706444 -0.339163E-09  0.168E-04    8.29     172.3  T
     SCC iter.                  ...        0 min,  0.002 sec
     gradient                   ...        0 min,  0.001 sec
 * total energy  :   -39.3193728 Eh     change       -0.3610785E-05 Eh
   gradient norm :     0.0007233 Eh/α   predicted    -0.1687390E-05 ( -53.27%)
   displ. norm   :     0.0195392 α      lambda       -0.1673169E-05
   maximum displ.:     0.0162755 α      in ANC's #3, #1, #4, ...

   *** GEOMETRY OPTIMIZATION CONVERGED AFTER 29 ITERATIONS ***

------------------------------------------------------------------------
 total energy gain   :        -0.0107730 Eh       -6.7601 kcal/mol
 total RMSD          :         1.0324610 a0        0.5464 Å
 total power (kW/mol):        -0.9753236 (step) -201.5710 (real)
------------------------------------------------------------------------

 ANCopt (total)                0 d,  0 h,  0 min,  0.140 sec
 optimizer setup                ...        0 min,  0.000 sec (  0.043%)
 model hessian                  ...        0 min,  0.004 sec (  2.552%)
 ANC generation                 ...        0 min,  0.000 sec (  0.227%)
 coordinate transformation      ...        0 min,  0.000 sec (  0.095%)
 single point calculation       ...        0 min,  0.132 sec ( 94.152%)
 optimization log               ...        0 min,  0.001 sec (  0.892%)
 hessian update                 ...        0 min,  0.000 sec (  0.250%)
 rational function              ...        0 min,  0.002 sec (  1.083%)

================
 final structure:
================
12
 xtb: 6.7.1 (edcfbbe)
F            1.51312860266797       -0.81100572475876       -0.52988133934799
C            2.50218782598948       -0.11871057195319        0.04352197411808
C            2.60592620282009        1.34450035137064       -0.41055664114589
O            2.43261577367400        2.22233006329881        0.62574306880975
S            0.75414574916143        2.54513642077793        0.66144704772011
O            0.52151915842501        3.15086337179644       -0.63588080296191
O            0.16893835421389        1.23225554930546        0.80083086822829
O            0.60011352435529        3.42782940899598        1.78672142013499
F            2.42337228687579       -0.29023149336431        1.35505227270243
F            3.63112602159108       -0.80762378032297       -0.32912911543723
H            3.60487540215944        1.48190771724337       -0.84786069255462
H            1.82898109806652        1.52586868761075       -1.16628806026589

 Bond Distances (Angstroems)
 ---------------------------
F1-C2=1.3365         C2-F1=1.3365         C2-C3=1.5356         C2-F9=1.3250         C2-F10=1.3740        C3-C2=1.5356         
C3-O4=1.3691         C3-H11=1.0991        C3-H12=1.0989        O4-C3=1.3691         O4-S5=1.7096         S5-O4=1.7096         
S5-O6=1.4505         S5-O7=1.4441         S5-O8=1.4384         O6-S5=1.4505         O7-S5=1.4441         O8-S5=1.4384         
F9-C2=1.3250         F10-C2=1.3740        H11-C3=1.0991        H12-C3=1.0989        
 C  H  Rav=1.0990 sigma=0.0001  Rmin=1.0989  Rmax=1.0991     2
 C  C  Rav=1.5356 sigma=0.0000  Rmin=1.5356  Rmax=1.5356     1
 O  C  Rav=1.3691 sigma=0.0000  Rmin=1.3691  Rmax=1.3691     1
 F  C  Rav=1.3452 sigma=0.0209  Rmin=1.3250  Rmax=1.3740     3
 S  O  Rav=1.5107 sigma=0.1149  Rmin=1.4384  Rmax=1.7096     4

 selected bond angles (degree)
 --------------------
C3-C2-F1=114.63                F9-C2-F1=108.28                F9-C2-C3=114.84                F10-C2-F1=103.41               
F10-C2-C3=110.00               F10-C2-F9=104.62               O4-C3-C2=112.25                H11-C3-C2=107.35               
H11-C3-O4=109.64               H12-C3-C2=108.23               H12-C3-O4=108.98               H12-C3-H11=110.38              
S5-O4-C3=105.14                O6-S5-O4=102.57                O7-S5-O4=103.19                O7-S5-O6=113.64                
O8-S5-O4=103.73                O8-S5-O6=115.23                O8-S5-O7=116.04                

 selected dihedral angles (degree)
 ---------------------------------
O4-C3-C2-F1=118.81            O4-C3-C2-F9=352.48            O4-C3-C2-F10=234.81           H11-C3-C2-F1=239.35           
H11-C3-C2-F9=113.03           H11-C3-C2-F10=355.35          H12-C3-C2-F1=358.50           H12-C3-C2-F9=232.18           
H12-C3-C2-F10=114.50          S5-O4-C3-C2=269.45            S5-O4-C3-H11=150.24           S5-O4-C3-H12= 29.33           
O6-S5-O4-C3=298.24            O7-S5-O4-C3= 56.54            O8-S5-O4-C3=177.97            
           -------------------------------------------------
          |                Final Singlepoint                |
           -------------------------------------------------

          ...................................................
          :                      SETUP                      :
          :.................................................:
          :  # basis functions                  48          :
          :  # atomic orbitals                  47          :
          :  # shells                           23          :
          :  # electrons                        62          :
          :  max. iterations                   250          :
          :  Hamiltonian                  GFN2-xTB          :
          :  restarted?                      false          :
          :  GBSA solvation                  false          :
          :  PC potential                    false          :
          :  electronic temp.          300.0000000     K    :
          :  accuracy                    1.0000000          :
          :  -> integral cutoff          0.2500000E+02      :
          :  -> integral neglect         0.1000000E-07      :
          :  -> SCF convergence          0.1000000E-05 Eh   :
          :  -> wf. convergence          0.1000000E-03 e    :
          :  Broyden damping             0.4000000          :
          :  net charge                         -1          :
          :  unpaired electrons                  0          :
          ...................................................

 iter      E             dE          RMSdq      gap      omega  full diag
   1    -39.4706444 -0.394706E+02  0.469E-05    8.29       0.0  T
   2    -39.4706444 -0.117240E-11  0.284E-05    8.29    1015.6  T
   3    -39.4706444 -0.184741E-12  0.650E-06    8.29    4442.7  T

   *** convergence criteria satisfied after 3 iterations ***

         #    Occupation            Energy/Eh            Energy/eV
      -------------------------------------------------------------
         1        2.0000           -0.7611582             -20.7122
       ...           ...                  ...                  ...
        25        2.0000           -0.3115077              -8.4766
        26        2.0000           -0.2876914              -7.8285
        27        2.0000           -0.2829733              -7.7001
        28        2.0000           -0.2799258              -7.6172
        29        2.0000           -0.2676970              -7.2844
        30        2.0000           -0.2664598              -7.2507
        31        2.0000           -0.2552002              -6.9444 (HOMO)
        32                          0.0493897               1.3440 (LUMO)
        33                          0.1074770               2.9246
        34                          0.1125319               3.0621
        35                          0.1553746               4.2280
        36                          0.1699141               4.6236
       ...                                ...                  ...
        47                          1.4266181              38.8203
      -------------------------------------------------------------
                  HL-Gap            0.3045899 Eh            8.2883 eV
             Fermi-level           -0.1029053 Eh           -2.8002 eV

 SCC (total)                   0 d,  0 h,  0 min,  0.003 sec
 SCC setup                      ...        0 min,  0.000 sec (  1.535%)
 Dispersion                     ...        0 min,  0.000 sec (  0.966%)
 classical contributions        ...        0 min,  0.000 sec (  0.213%)
 integral evaluation            ...        0 min,  0.001 sec ( 16.989%)
 iterations                     ...        0 min,  0.001 sec ( 44.091%)
 molecular gradient             ...        0 min,  0.001 sec ( 33.273%)
 printout                       ...        0 min,  0.000 sec (  2.458%)

         :::::::::::::::::::::::::::::::::::::::::::::::::::::
         ::                     SUMMARY                     ::
         :::::::::::::::::::::::::::::::::::::::::::::::::::::
         :: total energy             -39.319372826098 Eh    ::
         :: gradient norm              0.000723088977 Eh/a0 ::
         :: HOMO-LUMO gap              8.288312586311 eV    ::
         ::.................................................::
         :: SCC energy               -39.470633537884 Eh    ::
         :: -> isotropic ES            0.234652145621 Eh    ::
         :: -> anisotropic ES         -0.026135935676 Eh    ::
         :: -> anisotropic XC         -0.026138728047 Eh    ::
         :: -> dispersion             -0.011329011524 Eh    ::
         :: repulsion energy           0.151260711786 Eh    ::
         :: add. restraining           0.000000000000 Eh    ::
         :: total charge              -1.000000000000 e     ::
         :::::::::::::::::::::::::::::::::::::::::::::::::::::

           -------------------------------------------------
          |                Property Printout                |
           -------------------------------------------------

    * Orbital Energies and Occupations

         #    Occupation            Energy/Eh            Energy/eV
      -------------------------------------------------------------
         1        2.0000           -0.7611582             -20.7122
       ...           ...                  ...                  ...
        19        2.0000           -0.4113948             -11.1946
        20        2.0000           -0.4099605             -11.1556
        21        2.0000           -0.3963802             -10.7861
        22        2.0000           -0.3516769              -9.5696
        23        2.0000           -0.3490137              -9.4971
        24        2.0000           -0.3421526              -9.3104
        25        2.0000           -0.3115077              -8.4766
        26        2.0000           -0.2876914              -7.8285
        27        2.0000           -0.2829733              -7.7001
        28        2.0000           -0.2799258              -7.6172
        29        2.0000           -0.2676970              -7.2844
        30        2.0000           -0.2664598              -7.2507
        31        2.0000           -0.2552002              -6.9444 (HOMO)
        32                          0.0493897               1.3440 (LUMO)
        33                          0.1074770               2.9246
        34                          0.1125319               3.0621
        35                          0.1553746               4.2280
        36                          0.1699141               4.6236
        37                          0.1946885               5.2977
        38                          0.2221134               6.0440
        39                          0.2715817               7.3901
        40                          0.2892401               7.8706
        41                          0.3203105               8.7161
        42                          0.3422745               9.3138
       ...                                ...                  ...
        47                          1.4266181              38.8203
      -------------------------------------------------------------
                  HL-Gap            0.3045899 Eh            8.2883 eV
             Fermi-level           -0.1029053 Eh           -2.8002 eV

     #   Z          covCN         q      C6AA      α(0)
     1   9 F        0.791    -0.196    11.190     3.951
     2   6 C        3.326     0.473    17.610     6.669
     3   6 C        4.005     0.086    19.079     6.205
     4   8 O        1.705    -0.479    22.418     6.393
     5  16 S        3.760     1.473    94.120    16.328
     6   8 O        0.860    -0.703    28.800     7.195
     7   8 O        0.860    -0.699    28.686     7.181
     8   8 O        0.860    -0.658    27.586     7.042
     9   9 F        0.791    -0.177    10.996     3.917
    10   9 F        0.792    -0.242    11.681     4.037
    11   1 H        0.923     0.052     2.299     2.371
    12   1 H        0.924     0.070     2.081     2.256

 Mol. C6AA /au·bohr⁶  :       2667.334530
 Mol. C8AA /au·bohr⁸  :      66061.110742
 Mol. α(0) /au        :         73.545447


Wiberg/Mayer (AO) data.
largest (>0.10) Wiberg bond orders for each atom

 ---------------------------------------------------------------------------
     #   Z sym  total        # sym  WBO       # sym  WBO       # sym  WBO
 ---------------------------------------------------------------------------
     1   9 F    1.084 --     2 C    0.961
     2   6 C    3.824 --     9 F    0.983     1 F    0.961     3 C    0.930
                            10 F    0.906
     3   6 C    3.960 --     4 O    1.042    11 H    0.960    12 H    0.949
                             2 C    0.930
     4   8 O    2.011 --     3 C    1.042     5 S    0.714
     5  16 S    5.024 --     8 O    1.468     7 O    1.422     6 O    1.404
                             4 O    0.714
     6   8 O    1.735 --     5 S    1.404     8 O    0.122     7 O    0.122
     7   8 O    1.742 --     5 S    1.422     8 O    0.124     6 O    0.122
     8   8 O    1.782 --     5 S    1.468     7 O    0.124     6 O    0.122
     9   9 F    1.107 --     2 C    0.983
    10   9 F    1.025 --     2 C    0.906
    11   1 H    0.997 --     3 C    0.960
    12   1 H    0.995 --     3 C    0.949
 ---------------------------------------------------------------------------

Topologies differ in total number of bonds
Writing topology from bond orders to xtbtopo.mol

molecular dipole:
                 x           y           z       tot (Debye)
 q only:       -1.540      -3.778      -1.531
   full:       -1.335      -3.810      -1.638      11.075
molecular quadrupole (traceless):
                xx          xy          yy          xz          yz          zz
 q only:       10.274      -3.781     -20.746      -5.589      -9.729      10.472
  q+dip:       12.483      -1.633     -22.181      -5.409     -11.909       9.698
   full:       12.735      -2.046     -22.460      -5.747     -11.264       9.725

           -------------------------------------------------
          |                Geometry Summary                 |
           -------------------------------------------------

      molecular mass/u    :      179.0949699
   center of mass at/Å    :        1.6435546       1.2486378       0.3653468
  moments of inertia/u·Å² :        0.1908328E+03   0.6635464E+03   0.6669560E+03
rotational constants/cm⁻¹ :        0.8833719E-01   0.2540536E-01   0.2527548E-01

 * 10 selected distances

     #   Z          #   Z                                           value/Å
     1   9 F        2   6 C                                       1.3365263
     2   6 C        3   6 C                                       1.5355571 (max)
     3   6 C        4   8 O                                       1.3691380
     5  16 S        6   8 O                                       1.4505448
     5  16 S        7   8 O                                       1.4441441
     5  16 S        8   8 O                                       1.4384421
     2   6 C        9   9 F                                       1.3250447
     2   6 C       10   9 F                                       1.3740349
     3   6 C       11   1 H                                       1.0990975
     3   6 C       12   1 H                                       1.0989397 (min)

 * 5 distinct bonds (by element types)

   Z      Z             #   av. dist./Å        max./Å        min./Å
   1 H    6 C           2     1.0990186     1.0990975     1.0989397
   6 C    6 C           1     1.5355571     1.5355571     1.5355571
   6 C    8 O           1     1.3691380     1.3691380     1.3691380
   6 C    9 F           3     1.3452020     1.3740349     1.3250447
   8 O   16 S           3     1.4443770     1.4505448     1.4384421


optimized geometry written to: xtbopt.xyz


           -------------------------------------------------
          | TOTAL ENERGY              -39.319372826098 Eh   |
          | GRADIENT NORM               0.000723088977 Eh/α |
          | HOMO-LUMO GAP               8.288312586311 eV   |
           -------------------------------------------------

------------------------------------------------------------------------
 * finished run on 2024/12/20 at 01:54:42.847     
------------------------------------------------------------------------
 total:
 * wall-time:     0 d,  0 h,  0 min,  0.168 sec
 *  cpu-time:     0 d,  0 h,  0 min,  1.326 sec
 * ratio c/w:     7.908 speedup
 SCF:
 * wall-time:     0 d,  0 h,  0 min,  0.009 sec
 *  cpu-time:     0 d,  0 h,  0 min,  0.070 sec
 * ratio c/w:     7.895 speedup
 ANC optimizer:
 * wall-time:     0 d,  0 h,  0 min,  0.144 sec
 *  cpu-time:     0 d,  0 h,  0 min,  1.149 sec
 * ratio c/w:     7.989 speedup

