      -----------------------------------------------------------      
     |                   =====================                   |     
     |                           x T B                           |     
     |                   =====================                   |     
     |                         S. Grimme                         |     
     |          Mulliken Center for Theoretical Chemistry        |     
     |                    University of Bonn                     |     
      -----------------------------------------------------------      

   * xtb version 6.7.1 (edcfbbe) compiled by 'conda@3ef47c1a292c' on 2024-11-25

   xtb is free software: you can redistribute it and/or modify it under
   the terms of the GNU Lesser General Public License as published by
   the Free Software Foundation, either version 3 of the License, or
   (at your option) any later version.
   
   xtb is distributed in the hope that it will be useful,
   but WITHOUT ANY WARRANTY; without even the implied warranty of
   MERCHANTABILITY or FITNESS FOR A PARTICULAR PURPOSE.  See the
   GNU Lesser General Public License for more details.
   
   Cite this work as:
   * C. Bannwarth, E. Caldeweyher, S. Ehlert, A. Hansen, P. Pracht,
     J. Seibert, S. Spicher, S. Grimme, WIREs Comput. Mol. Sci., 2020, 11,
     e01493. DOI: 10.1002/wcms.1493
   
   for GFN2-xTB:
   * C. Bannwarth, S. Ehlert and S. Grimme., J. Chem. Theory Comput., 2019,
     15, 1652-1671. DOI: 10.1021/acs.jctc.8b01176
   for GFN1-xTB:
   * S. Grimme, C. Bannwarth, P. Shushkov, J. Chem. Theory Comput., 2017,
     13, 1989-2009. DOI: 10.1021/acs.jctc.7b00118
   for GFN0-xTB:
   * P. Pracht, E. Caldeweyher, S. Ehlert, S. Grimme, ChemRxiv, 2019, preprint.
     DOI: 10.26434/chemrxiv.8326202.v1
   for GFN-FF:
   * S. Spicher and S. Grimme, Angew. Chem. Int. Ed., 2020, 59, 15665-15673.
     DOI: 10.1002/anie.202004239
   
   for ALPB and GBSA implicit solvation:
   * S. Ehlert, M. Stahn, S. Spicher, S. Grimme, J. Chem. Theory Comput.,
     2021, 17, 4250-4261. DOI: 10.1021/acs.jctc.1c00471
   
   for ddCOSMO and CPCM-X implicit solvation:
   * M. Stahn, S. Ehlert, S. Grimme, J. Phys. Chem. A,
     2023, XX, XXXX-XXXX. DOI: 10.1021/acs.jpca.3c04382
   
   for DFT-D4:
   * E. Caldeweyher, C. Bannwarth and S. Grimme, J. Chem. Phys., 2017,
     147, 034112. DOI: 10.1063/1.4993215
   * E. Caldeweyher, S. Ehlert, A. Hansen, H. Neugebauer, S. Spicher,
     C. Bannwarth and S. Grimme, J. Chem. Phys., 2019, 150, 154122.
     DOI: 10.1063/1.5090222
   * E. Caldeweyher, J.-M. Mewes, S. Ehlert and S. Grimme, Phys. Chem. Chem. Phys.
     2020, 22, 8499-8512. DOI: 10.1039/D0CP00502A
   
   for sTDA-xTB:
   * S. Grimme and C. Bannwarth, J. Chem. Phys., 2016, 145, 054103.
     DOI: 10.1063/1.4959605
   
   in the mass-spec context:
   * V. Asgeirsson, C. Bauer and S. Grimme, Chem. Sci., 2017, 8, 4879.
     DOI: 10.1039/c7sc00601b
   * J. Koopman and S. Grimme, ACS Omega 2019, 4, 12, 15120-15133.
     DOI: 10.1021/acsomega.9b02011
   
   for metadynamics refer to:
   * S. Grimme, J. Chem. Theory Comput., 2019, 155, 2847-2862
     DOI: 10.1021/acs.jctc.9b00143
   
   for SPH calculations refer to:
   * S. Spicher and S. Grimme, J. Chem. Theory Comput., 2021, 17, 1701-1714
     DOI: 10.1021/acs.jctc.0c01306
   
   for ONIOM refer to:
   * C. Plett, A. Katbashev, S. Ehlert, S. Grimme, M. Bursch,
     Phys. Chem. Chem. Phys., 2023, 25, 17860-17868. DOI: 10.1039/D3CP02178E
   
   for DIPRO refer to:
   * J. Kohn, N. Gildemeister, S. Grimme, D. Fazzi, A. Hansen,
     J. Chem. Phys., 2023, just accepted.
   
   for PTB refer to:
   * S. Grimme, M. Mueller, A. Hansen, J. Chem. Phys., 2023, 158, 124111.
     DOI: 10.1063/5.0137838
   
   with help from (in alphabetical order)
   P. Atkinson, C. Bannwarth, F. Bohle, G. Brandenburg, E. Caldeweyher
   M. Checinski, S. Dohm, S. Ehlert, S. Ehrlich, I. Gerasimov, C. Hölzer
   A. Katbashev, J. Kohn, J. Koopman, C. Lavigne, S. Lehtola, F. März, M. Müller,
   F. Musil, H. Neugebauer, J. Pisarek, C. Plett, P. Pracht, F. Pultar,
   J. Seibert, P. Shushkov, S. Spicher, M. Stahn, M. Steiner, T. Strunk,
   J. Stückrath, T. Rose, and J. Unsleber
   
 * started run on 2024/12/20 at 01:54:42.882     
   ID    Z sym.   atoms
    1    7 N      1, 4, 6, 9
    2    6 C      2, 3, 5, 7, 8, 10
    3    9 F      11-13

           -------------------------------------------------
          |                Calculation Setup                |
           -------------------------------------------------

          program call               : xtb A118.xyz --opt --namespace A118 --charge -1
          calculation namespace      : A118
          coordinate file            : A118.xyz
          omp threads                :                     8


           -------------------------------------------------
          |                 G F N 2 - x T B                 |
           -------------------------------------------------

        Reference                      10.1021/acs.jctc.8b01176
      * Hamiltonian:
        H0-scaling (s, p, d)           1.850000    2.230000    2.230000
        zeta-weighting                 0.500000
      * Dispersion:
        s8                             2.700000
        a1                             0.520000
        a2                             5.000000
        s9                             5.000000
      * Repulsion:
        kExp                           1.500000    1.000000
        rExp                           1.000000
      * Coulomb:
        alpha                          2.000000
        third order                    shell-resolved
        anisotropic                    true
        a3                             3.000000
        a5                             4.000000
        cn-shift                       1.200000
        cn-exp                         4.000000
        max-rad                        5.000000


          ...................................................
          :                      SETUP                      :
          :.................................................:
          :  # basis functions                  52          :
          :  # atomic orbitals                  52          :
          :  # shells                           26          :
          :  # electrons                        66          :
          :  max. iterations                   250          :
          :  Hamiltonian                  GFN2-xTB          :
          :  restarted?                      false          :
          :  GBSA solvation                  false          :
          :  PC potential                    false          :
          :  electronic temp.          300.0000000     K    :
          :  accuracy                    1.0000000          :
          :  -> integral cutoff          0.2500000E+02      :
          :  -> integral neglect         0.1000000E-07      :
          :  -> SCF convergence          0.1000000E-05 Eh   :
          :  -> wf. convergence          0.1000000E-03 e    :
          :  Broyden damping             0.4000000          :
          :  net charge                         -1          :
          :  unpaired electrons                  0          :
          ...................................................

 iter      E             dE          RMSdq      gap      omega  full diag
   1    -39.0524391 -0.390524E+02  0.779E+00    3.93       0.0  T
   2    -39.1411778 -0.887387E-01  0.582E+00    3.26       1.0  T
   3    -39.2372373 -0.960594E-01  0.327E+00    3.07       1.0  T
   4    -39.2588398 -0.216026E-01  0.136E+00    2.92       1.0  T
   5    -39.2764611 -0.176212E-01  0.197E-01    2.86       1.0  T
   6    -39.2765452 -0.840881E-04  0.122E-01    2.88       1.0  T
   7    -39.2765776 -0.324746E-04  0.427E-02    2.87       1.0  T
   8    -39.2765904 -0.128088E-04  0.112E-02    2.87       2.5  T
   9    -39.2765916 -0.114103E-05  0.373E-03    2.87       7.4  T
  10    -39.2765916 -0.886778E-08  0.987E-04    2.87      28.1  T
  11    -39.2765916 -0.803952E-08  0.416E-04    2.87      66.6  T

   *** convergence criteria satisfied after 11 iterations ***

         #    Occupation            Energy/Eh            Energy/eV
      -------------------------------------------------------------
         1        2.0000           -0.7523085             -20.4714
       ...           ...                  ...                  ...
        27        2.0000           -0.3519042              -9.5758
        28        2.0000           -0.3149258              -8.5696
        29        2.0000           -0.3100679              -8.4374
        30        2.0000           -0.2842906              -7.7359
        31        2.0000           -0.2675773              -7.2811
        32        2.0000           -0.2647498              -7.2042
        33        2.0000           -0.2391402              -6.5073 (HOMO)
        34                         -0.1335435              -3.6339 (LUMO)
        35                         -0.1027240              -2.7953
        36                         -0.0986499              -2.6844
        37                         -0.0967934              -2.6339
        38                         -0.0565979              -1.5401
       ...                                ...                  ...
        52                          1.1374304              30.9511
      -------------------------------------------------------------
                  HL-Gap            0.1055967 Eh            2.8734 eV
             Fermi-level           -0.1863419 Eh           -5.0706 eV

 SCC (total)                   0 d,  0 h,  0 min,  0.009 sec
 SCC setup                      ...        0 min,  0.000 sec (  1.329%)
 Dispersion                     ...        0 min,  0.000 sec (  0.902%)
 classical contributions        ...        0 min,  0.000 sec (  0.303%)
 integral evaluation            ...        0 min,  0.001 sec (  7.724%)
 iterations                     ...        0 min,  0.007 sec ( 73.781%)
 molecular gradient             ...        0 min,  0.001 sec ( 14.744%)
 printout                       ...        0 min,  0.000 sec (  1.058%)

         :::::::::::::::::::::::::::::::::::::::::::::::::::::
         ::                     SUMMARY                     ::
         :::::::::::::::::::::::::::::::::::::::::::::::::::::
         :: total energy             -38.911554104273 Eh    ::
         :: gradient norm              0.128396429504 Eh/a0 ::
         :: HOMO-LUMO gap              2.873431477444 eV    ::
         ::.................................................::
         :: SCC energy               -39.276602872935 Eh    ::
         :: -> isotropic ES            0.148312824702 Eh    ::
         :: -> anisotropic ES          0.004776434011 Eh    ::
         :: -> anisotropic XC          0.026987018926 Eh    ::
         :: -> dispersion             -0.012718023053 Eh    ::
         :: repulsion energy           0.365048768663 Eh    ::
         :: add. restraining           0.000000000000 Eh    ::
         :: total charge              -1.000000000000 e     ::
         :::::::::::::::::::::::::::::::::::::::::::::::::::::

      ----------------------------------------------------------- 
     |                   =====================                   |
     |                        A N C O P T                        |
     |                   =====================                   |
     |               Approximate Normal Coordinate               |
     |                Rational Function Optimizer                |
      ----------------------------------------------------------- 
      ----------------------------------------------------------- 
     |                   =====================                   |
     |                        A N C O P T                        |
     |                   =====================                   |
     |               Approximate Normal Coordinate               |
     |                Rational Function Optimizer                |
      ----------------------------------------------------------- 

          ...................................................
          :                      SETUP                      :
          :.................................................:
          :   optimization level            normal          :
          :   max. optcycles                   200          :
          :   ANC micro-cycles                  20          :
          :   degrees of freedom                33          :
          :.................................................:
          :   RF solver                   davidson          :
          :   write xtbopt.log                true          :
          :   linear?                        false          :
          :   energy convergence         0.5000000E-05 Eh   :
          :   grad. convergence          0.1000000E-02 Eh/α :
          :   maxmium RF displ.          1.0000000          :
          :   Hlow (freq-cutoff)         0.1000000E-01      :
          :   Hmax (freq-cutoff)         5.0000000          :
          :   S6 in model hess.         20.0000000          :
          ...................................................

generating ANC from exact Hessian ...
Using Lindh-Hessian (1995)
 Shifting diagonal of input Hessian by    9.8555054566450938E-003
 Lowest  eigenvalues of input Hessian
    0.000000    0.000000    0.000000    0.000000    0.000000    0.000000
    0.010000    0.010509    0.016871    0.017680    0.022065    0.022641
    0.043564    0.045569    0.067948    0.070892    0.085886    0.126618
 Highest eigenvalues
    1.627012    1.631387    1.814996    1.845299    2.391341    2.397080


........................................................................
.............................. CYCLE    1 ..............................
........................................................................

 iter      E             dE          RMSdq      gap      omega  full diag
   1    -39.2765916 -0.392766E+02  0.118E-04    2.87       0.0  T
   2    -39.2765916  0.324647E-10  0.126E-04    2.87     220.2  T
   3    -39.2765916 -0.195200E-09  0.229E-05    2.87    1211.2  T
     SCC iter.                  ...        0 min,  0.002 sec
     gradient                   ...        0 min,  0.001 sec
 * total energy  :   -38.9115541 Eh     change       -0.1478796E-08 Eh
   gradient norm :     0.1283963 Eh/α   predicted     0.0000000E+00 (-100.00%)
   displ. norm   :     0.4513054 α      lambda       -0.3954199E-01
   maximum displ.:     0.3625746 α      in ANC's #10, #17, #19, ...

........................................................................
.............................. CYCLE    2 ..............................
........................................................................

 iter      E             dE          RMSdq      gap      omega  full diag
   1    -39.3502620 -0.393503E+02  0.606E-01    3.06       0.0  T
   2    -39.3505158 -0.253796E-03  0.446E-01    3.18       1.0  T
   3    -39.3507488 -0.232966E-03  0.251E-01    3.15       1.0  T
   4    -39.3510392 -0.290372E-03  0.744E-02    3.14       1.0  T
   5    -39.3510978 -0.586467E-04  0.203E-02    3.15       1.4  T
   6    -39.3511002 -0.236454E-05  0.103E-02    3.15       2.7  T
   7    -39.3511004 -0.173865E-06  0.107E-03    3.15      25.9  T
   8    -39.3511004 -0.548982E-08  0.453E-04    3.15      61.3  T
   9    -39.3511004 -0.164192E-09  0.204E-04    3.15     135.8  T
     SCC iter.                  ...        0 min,  0.004 sec
     gradient                   ...        0 min,  0.001 sec
 * total energy  :   -38.9401046 Eh     change       -0.2855051E-01 Eh
   gradient norm :     0.0781471 Eh/α   predicted    -0.2379787E-01 ( -16.65%)
   displ. norm   :     0.3737176 α      lambda       -0.1513421E-01
   maximum displ.:     0.3257520 α      in ANC's #10, #17, #5, ...

........................................................................
.............................. CYCLE    3 ..............................
........................................................................

 iter      E             dE          RMSdq      gap      omega  full diag
   1    -39.3855648 -0.393856E+02  0.425E-01    3.02       0.0  T
   2    -39.3861405 -0.575673E-03  0.386E-01    3.18       1.0  T
   3    -39.3868087 -0.668185E-03  0.184E-01    3.15       1.0  T
   4    -39.3867393  0.694229E-04  0.973E-02    3.14       1.0  T
   5    -39.3868326 -0.933222E-04  0.175E-02    3.14       1.6  T
   6    -39.3868344 -0.185548E-05  0.801E-03    3.14       3.5  T
   7    -39.3868346 -0.121159E-06  0.136E-03    3.14      20.4  T
   8    -39.3868346 -0.183507E-07  0.426E-04    3.14      65.1  T
   9    -39.3868346 -0.149633E-09  0.148E-04    3.14     186.9  T
     SCC iter.                  ...        0 min,  0.004 sec
     gradient                   ...        0 min,  0.001 sec
 * total energy  :   -38.9471045 Eh     change       -0.6999888E-02 Eh
   gradient norm :     0.0222870 Eh/α   predicted    -0.8623970E-02 (  23.20%)
   displ. norm   :     0.0895662 α      lambda       -0.9963966E-03
   maximum displ.:     0.0698890 α      in ANC's #5, #17, #10, ...

........................................................................
.............................. CYCLE    4 ..............................
........................................................................

 iter      E             dE          RMSdq      gap      omega  full diag
   1    -39.3840346 -0.393840E+02  0.109E-01    3.16       0.0  T
   2    -39.3840468 -0.121940E-04  0.950E-02    3.14       1.0  T
   3    -39.3840813 -0.344738E-04  0.464E-02    3.14       1.0  T
   4    -39.3840837 -0.242668E-05  0.148E-02    3.14       1.9  T
   5    -39.3840853 -0.160292E-05  0.435E-03    3.14       6.4  T
   6    -39.3840854 -0.119681E-06  0.153E-03    3.14      18.1  T
   7    -39.3840854 -0.312470E-08  0.457E-04    3.14      60.7  T
   8    -39.3840854 -0.115615E-08  0.149E-04    3.14     186.4  T
     SCC iter.                  ...        0 min,  0.003 sec
     gradient                   ...        0 min,  0.001 sec
 * total energy  :   -38.9476415 Eh     change       -0.5370489E-03 Eh
   gradient norm :     0.0037455 Eh/α   predicted    -0.5021939E-03 (  -6.49%)
   displ. norm   :     0.0561377 α      lambda       -0.7425153E-04
   maximum displ.:     0.0547840 α      in ANC's #5, #10, #22, ...

........................................................................
.............................. CYCLE    5 ..............................
........................................................................

 iter      E             dE          RMSdq      gap      omega  full diag
   1    -39.3851614 -0.393852E+02  0.749E-02    3.13       0.0  T
   2    -39.3851638 -0.247973E-05  0.436E-02    3.13       1.0  T
   3    -39.3851612  0.266805E-05  0.166E-02    3.13       1.7  T
   4    -39.3851649 -0.370873E-05  0.433E-03    3.13       6.4  T
   5    -39.3851651 -0.173230E-06  0.172E-03    3.13      16.1  T
   6    -39.3851651 -0.782328E-08  0.415E-04    3.13      66.9  T
   7    -39.3851651 -0.122992E-08  0.100E-04    3.13     277.1  T
     SCC iter.                  ...        0 min,  0.003 sec
     gradient                   ...        0 min,  0.001 sec
 * total energy  :   -38.9476949 Eh     change       -0.5336269E-04 Eh
   gradient norm :     0.0019701 Eh/α   predicted    -0.3724203E-04 ( -30.21%)
   displ. norm   :     0.1132546 α      lambda       -0.5512957E-04
   maximum displ.:     0.1128317 α      in ANC's #5, #19, #3, ...

........................................................................
.............................. CYCLE    6 ..............................
........................................................................

 iter      E             dE          RMSdq      gap      omega  full diag
   1    -39.3849374 -0.393849E+02  0.171E-01    3.11       0.0  T
   2    -39.3849435 -0.611431E-05  0.969E-02    3.12       1.0  T
   3    -39.3849386  0.492674E-05  0.218E-02    3.11       1.3  T
   4    -39.3849458 -0.718980E-05  0.714E-03    3.11       3.9  T
   5    -39.3849462 -0.378226E-06  0.322E-03    3.12       8.6  T
   6    -39.3849462 -0.302165E-07  0.731E-04    3.12      38.0  T
   7    -39.3849462 -0.389928E-08  0.199E-04    3.12     139.1  T
     SCC iter.                  ...        0 min,  0.015 sec
     gradient                   ...        0 min,  0.003 sec
 * total energy  :   -38.9477377 Eh     change       -0.4277218E-04 Eh
   gradient norm :     0.0029940 Eh/α   predicted    -0.2772091E-04 ( -35.19%)
   displ. norm   :     0.0292805 α      lambda       -0.1931306E-04
   maximum displ.:     0.0218317 α      in ANC's #5, #2, #4, ...

........................................................................
.............................. CYCLE    7 ..............................
........................................................................

 iter      E             dE          RMSdq      gap      omega  full diag
   1    -39.3850155 -0.393850E+02  0.553E-02    3.12       0.0  T
   2    -39.3850161 -0.608147E-06  0.311E-02    3.12       1.0  T
   3    -39.3850160  0.513392E-07  0.499E-03    3.12       5.6  T
   4    -39.3850163 -0.285746E-06  0.118E-03    3.12      23.5  T
   5    -39.3850163  0.648896E-09  0.642E-04    3.12      43.2  T
   6    -39.3850163 -0.338736E-08  0.241E-04    3.12     114.9  T
     SCC iter.                  ...        0 min,  0.025 sec
     gradient                   ...        0 min,  0.004 sec
 * total energy  :   -38.9477435 Eh     change       -0.5768348E-05 Eh
   gradient norm :     0.0021942 Eh/α   predicted    -0.9665759E-05 (  67.57%)
   displ. norm   :     0.0244849 α      lambda       -0.2522233E-04
   maximum displ.:     0.0161128 α      in ANC's #5, #2, #4, ...

........................................................................
.............................. CYCLE    8 ..............................
........................................................................

 iter      E             dE          RMSdq      gap      omega  full diag
   1    -39.3852553 -0.393853E+02  0.509E-02    3.12       0.0  T
   2    -39.3852562 -0.807080E-06  0.288E-02    3.12       1.0  T
   3    -39.3852556  0.542955E-06  0.826E-03    3.12       3.4  T
   4    -39.3852565 -0.873140E-06  0.153E-03    3.12      18.1  T
   5    -39.3852565 -0.103588E-07  0.929E-04    3.12      29.9  T
   6    -39.3852565 -0.505211E-08  0.235E-04    3.12     118.0  T
     SCC iter.                  ...        0 min,  0.003 sec
     gradient                   ...        0 min,  0.001 sec
 * total energy  :   -38.9477545 Eh     change       -0.1106928E-04 Eh
   gradient norm :     0.0013228 Eh/α   predicted    -0.1261765E-04 (  13.99%)
   displ. norm   :     0.0066817 α      lambda       -0.3053965E-05
   maximum displ.:     0.0038590 α      in ANC's #10, #5, #1, ...

........................................................................
.............................. CYCLE    9 ..............................
........................................................................

 iter      E             dE          RMSdq      gap      omega  full diag
   1    -39.3849261 -0.393849E+02  0.109E-02    3.12       0.0  T
   2    -39.3849262 -0.896716E-07  0.701E-03    3.12       4.0  T
   3    -39.3849261  0.785931E-07  0.431E-03    3.12       6.4  T
   4    -39.3849263 -0.157541E-06  0.131E-03    3.12      21.1  T
   5    -39.3849263 -0.194413E-07  0.302E-04    3.12      91.9  T
   6    -39.3849263 -0.216815E-09  0.118E-04    3.12     235.2  T
     SCC iter.                  ...        0 min,  0.003 sec
     gradient                   ...        0 min,  0.001 sec
 * total energy  :   -38.9477565 Eh     change       -0.1939068E-05 Eh
   gradient norm :     0.0008375 Eh/α   predicted    -0.1527507E-05 ( -21.22%)
   displ. norm   :     0.0125472 α      lambda       -0.1877372E-05
   maximum displ.:     0.0078520 α      in ANC's #3, #1, #2, ...

   *** GEOMETRY OPTIMIZATION CONVERGED AFTER 9 ITERATIONS ***

------------------------------------------------------------------------
 total energy gain   :        -0.0362024 Eh      -22.7173 kcal/mol
 total RMSD          :         0.2514125 a0        0.1330 Å
 total power (kW/mol):       -10.5610303 (step) -901.5052 (real)
------------------------------------------------------------------------

 ANCopt (total)                0 d,  0 h,  0 min,  0.105 sec
 optimizer setup                ...        0 min,  0.000 sec (  0.065%)
 model hessian                  ...        0 min,  0.001 sec (  0.726%)
 ANC generation                 ...        0 min,  0.000 sec (  0.192%)
 coordinate transformation      ...        0 min,  0.000 sec (  0.053%)
 single point calculation       ...        0 min,  0.098 sec ( 92.574%)
 optimization log               ...        0 min,  0.000 sec (  0.448%)
 hessian update                 ...        0 min,  0.005 sec (  4.459%)
 rational function              ...        0 min,  0.001 sec (  1.121%)

================
 final structure:
================
13
 xtb: 6.7.1 (edcfbbe)
N            1.15491847185024       -0.06320451186340       -0.09055037716061
C            2.30626190587860       -0.09487013183025       -0.08540399136433
C            3.69945010020062       -0.08938505617496       -0.08213575103256
N            4.46832690191791       -1.20002622803295       -0.07566716483061
C            5.71179993779821       -0.71661433038356       -0.07328726946293
N            5.83266678546604        0.61097813129287       -0.07760881141398
C            4.55251100440983        1.04326284131534       -0.08340262185027
C            4.17365478760713        2.38377848925878       -0.08877887028190
N            3.82575019613392        3.48179403658146       -0.09409489355373
C            6.88740610121096       -1.61473065257015       -0.06634127065341
F            6.92845501861030       -2.44074837017798        1.00736719271623
F            6.94042180140328       -2.44170656828023       -1.13893007549848
F            8.06206698751295       -0.96236764913499       -0.06014609561342

 Bond Distances (Angstroems)
 ---------------------------
N1-C2=1.1518         C2-N1=1.1518         C2-C3=1.3932         C3-C2=1.3932         C3-N4=1.3508         C3-C7=1.4180         
N4-C3=1.3508         N4-C5=1.3341         C5-N4=1.3341         C5-N6=1.3331         C5-C10=1.4794        N6-C5=1.3331         
N6-C7=1.3512         C7-C3=1.4180         C7-N6=1.3512         C7-C8=1.3930         C8-C7=1.3930         C8-N9=1.1518         
N9-C8=1.1518         C10-C5=1.4794        C10-F11=1.3553       C10-F12=1.3554       C10-F13=1.3437       F11-C10=1.3553       
F12-C10=1.3554       F13-C10=1.3437       
 C  C  Rav=1.4209 sigma=0.0353  Rmin=1.3930  Rmax=1.4794     4
 N  C  Rav=1.2788 sigma=0.0901  Rmin=1.1518  Rmax=1.3512     6
 F  C  Rav=1.3515 sigma=0.0055  Rmin=1.3437  Rmax=1.3554     3

 selected bond angles (degree)
 --------------------
C3-C2-N1=178.19                N4-C3-C2=124.47                C7-C3-C2=127.21                C7-C3-N4=108.32                
C5-N4-C3=103.45                N6-C5-N4=116.45                C10-C5-N4=121.38               C10-C5-N6=122.18               
C7-N6-C5=103.46                N6-C7-C3=108.33                C8-C7-C3=127.23                C8-C7-N6=124.44                
N9-C8-C7=178.20                F11-C10-C5=113.44              F12-C10-C5=113.44              F12-C10-F11=104.71             
F13-C10-C5=113.58              F13-C10-F11=105.41             F13-C10-F12=105.41             

 selected dihedral angles (degree)
 ---------------------------------
N4-C3-C2-N1=183.62            C7-C3-C2-N1=  3.70            C5-N4-C3-C2=180.06            C5-N4-C3-C7=  0.00            
N6-C5-N4-C3=  0.00            C10-C5-N4-C3=180.00           C7-N6-C5-N4=  0.00            C7-N6-C5-C10=179.99           
N6-C7-C3-C2=179.93            N6-C7-C3-N4=  0.00            C8-C7-C3-C2=359.97            C8-C7-C3-N4=180.03            
C3-C7-N6-C5=  0.00            C8-C7-N6-C5=179.97            N9-C8-C7-C3=358.72            N9-C8-C7-N6=178.76            
F11-C10-C5-N4=300.56          F11-C10-C5-N6=120.57          F12-C10-C5-N4= 59.88          F12-C10-C5-N6=239.88          
F13-C10-C5-N4=180.22          F13-C10-C5-N6=  0.22          
           -------------------------------------------------
          |                Final Singlepoint                |
           -------------------------------------------------

          ...................................................
          :                      SETUP                      :
          :.................................................:
          :  # basis functions                  52          :
          :  # atomic orbitals                  52          :
          :  # shells                           26          :
          :  # electrons                        66          :
          :  max. iterations                   250          :
          :  Hamiltonian                  GFN2-xTB          :
          :  restarted?                      false          :
          :  GBSA solvation                  false          :
          :  PC potential                    false          :
          :  electronic temp.          300.0000000     K    :
          :  accuracy                    1.0000000          :
          :  -> integral cutoff          0.2500000E+02      :
          :  -> integral neglect         0.1000000E-07      :
          :  -> SCF convergence          0.1000000E-05 Eh   :
          :  -> wf. convergence          0.1000000E-03 e    :
          :  Broyden damping             0.4000000          :
          :  net charge                         -1          :
          :  unpaired electrons                  0          :
          ...................................................

 iter      E             dE          RMSdq      gap      omega  full diag
   1    -39.3849263 -0.393849E+02  0.343E-05    3.12       0.0  T
   2    -39.3849263 -0.888178E-12  0.199E-05    3.12    1395.2  T
   3    -39.3849263 -0.304112E-11  0.154E-05    3.12    1795.7  T

   *** convergence criteria satisfied after 3 iterations ***

         #    Occupation            Energy/Eh            Energy/eV
      -------------------------------------------------------------
         1        2.0000           -0.7556742             -20.5629
       ...           ...                  ...                  ...
        27        2.0000           -0.3471138              -9.4454
        28        2.0000           -0.3068215              -8.3490
        29        2.0000           -0.3041749              -8.2770
        30        2.0000           -0.2949456              -8.0259
        31        2.0000           -0.2749780              -7.4825
        32        2.0000           -0.2637670              -7.1775
        33        2.0000           -0.2561402              -6.9699 (HOMO)
        34                         -0.1415676              -3.8523 (LUMO)
        35                         -0.0947845              -2.5792
        36                         -0.0924226              -2.5149
        37                         -0.0806107              -2.1935
        38                         -0.0322803              -0.8784
       ...                                ...                  ...
        52                          1.3190776              35.8939
      -------------------------------------------------------------
                  HL-Gap            0.1145726 Eh            3.1177 eV
             Fermi-level           -0.1988539 Eh           -5.4111 eV

 SCC (total)                   0 d,  0 h,  0 min,  0.003 sec
 SCC setup                      ...        0 min,  0.000 sec (  1.404%)
 Dispersion                     ...        0 min,  0.000 sec (  1.125%)
 classical contributions        ...        0 min,  0.000 sec (  0.226%)
 integral evaluation            ...        0 min,  0.001 sec ( 16.197%)
 iterations                     ...        0 min,  0.001 sec ( 38.553%)
 molecular gradient             ...        0 min,  0.001 sec ( 39.901%)
 printout                       ...        0 min,  0.000 sec (  2.185%)

         :::::::::::::::::::::::::::::::::::::::::::::::::::::
         ::                     SUMMARY                     ::
         :::::::::::::::::::::::::::::::::::::::::::::::::::::
         :: total energy             -38.947756460170 Eh    ::
         :: gradient norm              0.000842602436 Eh/a0 ::
         :: HOMO-LUMO gap              3.117678122057 eV    ::
         ::.................................................::
         :: SCC energy               -39.384926152355 Eh    ::
         :: -> isotropic ES            0.151047376735 Eh    ::
         :: -> anisotropic ES          0.002928473715 Eh    ::
         :: -> anisotropic XC          0.019904691672 Eh    ::
         :: -> dispersion             -0.013007441120 Eh    ::
         :: repulsion energy           0.437169692184 Eh    ::
         :: add. restraining           0.000000000000 Eh    ::
         :: total charge              -1.000000000000 e     ::
         :::::::::::::::::::::::::::::::::::::::::::::::::::::

           -------------------------------------------------
          |                Property Printout                |
           -------------------------------------------------

    * Orbital Energies and Occupations

         #    Occupation            Energy/Eh            Energy/eV
      -------------------------------------------------------------
         1        2.0000           -0.7556742             -20.5629
       ...           ...                  ...                  ...
        21        2.0000           -0.4027112             -10.9583
        22        2.0000           -0.3911197             -10.6429
        23        2.0000           -0.3638532              -9.9009
        24        2.0000           -0.3613429              -9.8326
        25        2.0000           -0.3560547              -9.6887
        26        2.0000           -0.3512705              -9.5586
        27        2.0000           -0.3471138              -9.4454
        28        2.0000           -0.3068215              -8.3490
        29        2.0000           -0.3041749              -8.2770
        30        2.0000           -0.2949456              -8.0259
        31        2.0000           -0.2749780              -7.4825
        32        2.0000           -0.2637670              -7.1775
        33        2.0000           -0.2561402              -6.9699 (HOMO)
        34                         -0.1415676              -3.8523 (LUMO)
        35                         -0.0947845              -2.5792
        36                         -0.0924226              -2.5149
        37                         -0.0806107              -2.1935
        38                         -0.0322803              -0.8784
        39                          0.0416726               1.1340
        40                          0.1440911               3.9209
        41                          0.1793188               4.8795
        42                          0.1954514               5.3185
        43                          0.2464847               6.7072
        44                          0.2801928               7.6244
       ...                                ...                  ...
        52                          1.3190776              35.8939
      -------------------------------------------------------------
                  HL-Gap            0.1145726 Eh            3.1177 eV
             Fermi-level           -0.1988539 Eh           -5.4111 eV

     #   Z          covCN         q      C6AA      α(0)
     1   7 N        0.911    -0.298    27.662     7.607
     2   6 C        1.898     0.106    28.479     8.619
     3   6 C        3.199     0.056    26.205     8.343
     4   7 N        1.892    -0.329    29.383     8.036
     5   6 C        3.359     0.120    22.668     7.477
     6   7 N        1.891    -0.328    29.363     8.033
     7   6 C        3.200     0.056    26.213     8.343
     8   6 C        1.898     0.106    28.482     8.619
     9   7 N        0.911    -0.298    27.672     7.608
    10   6 C        3.334     0.477    17.441     6.619
    11   9 F        0.791    -0.227    11.516     4.009
    12   9 F        0.791    -0.227    11.517     4.009
    13   9 F        0.791    -0.215    11.391     3.987

 Mol. C6AA /au·bohr⁶  :       3731.903186
 Mol. C8AA /au·bohr⁸  :      90976.748463
 Mol. α(0) /au        :         91.308441


Wiberg/Mayer (AO) data.
largest (>0.10) Wiberg bond orders for each atom

 ---------------------------------------------------------------------------
     #   Z sym  total        # sym  WBO       # sym  WBO       # sym  WBO
 ---------------------------------------------------------------------------
     1   7 N    2.978 --     2 C    2.742
     2   6 C    3.943 --     1 N    2.742     3 C    1.136
     3   6 C    3.969 --     4 N    1.317     7 C    1.258     2 C    1.136
     4   7 N    3.003 --     5 C    1.391     3 C    1.317     6 N    0.103
     5   6 C    3.953 --     6 N    1.393     4 N    1.391    10 C    0.950
     6   7 N    3.003 --     5 C    1.393     7 C    1.315     4 N    0.103
     7   6 C    3.969 --     6 N    1.315     3 C    1.258     8 C    1.136
     8   6 C    3.943 --     9 N    2.742     7 C    1.136
     9   7 N    2.978 --     8 C    2.742
    10   6 C    3.798 --     5 C    0.950    13 F    0.948    11 F    0.928
                            12 F    0.928
    11   9 F    1.049 --    10 C    0.928
    12   9 F    1.049 --    10 C    0.928
    13   9 F    1.063 --    10 C    0.948
 ---------------------------------------------------------------------------

Topologies differ in total number of bonds
Writing topology from bond orders to xtbtopo.mol

molecular dipole:
                 x           y           z       tot (Debye)
 q only:       -8.745      -0.131       0.151
   full:       -8.318      -0.456       0.154      21.178
molecular quadrupole (traceless):
                xx          xy          yy          xz          yz          zz
 q only:      -87.762       7.941      31.524       1.856       0.145      56.238
  q+dip:      -82.263       3.307      25.409       1.776       0.241      56.854
   full:      -83.893       3.897      24.102       1.759       0.258      59.792

           -------------------------------------------------
          |                Geometry Summary                 |
           -------------------------------------------------

      molecular mass/u    :      185.0864377
   center of mass at/Å    :        5.1811745      -0.3266726      -0.0763571
  moments of inertia/u·Å² :        0.3314520E+03   0.1015906E+04   0.1259837E+04
rotational constants/cm⁻¹ :        0.5085996E-01   0.1659370E-01   0.1338080E-01

 * 13 selected distances

     #   Z          #   Z                                           value/Å
     1   7 N        2   6 C                                       1.1517904 (min)
     2   6 C        3   6 C                                       1.3932030
     3   6 C        4   7 N                                       1.3508285
     4   7 N        5   6 C                                       1.3341358
     5   6 C        6   7 N                                       1.3330902
     3   6 C        7   6 C                                       1.4179584
     6   7 N        7   6 C                                       1.3511857
     7   6 C        8   6 C                                       1.3930339
     8   6 C        9   7 N                                       1.1518265
     5   6 C       10   6 C                                       1.4794294 (max)
    10   6 C       11   9 F                                       1.3553009
    10   6 C       12   9 F                                       1.3554139
    10   6 C       13   9 F                                       1.3436683

 * 3 distinct bonds (by element types)

   Z      Z             #   av. dist./Å        max./Å        min./Å
   6 C    6 C           4     1.4209062     1.4794294     1.3930339
   6 C    7 N           6     1.2788095     1.3511857     1.1517904
   6 C    9 F           3     1.3514610     1.3554139     1.3436683


optimized geometry written to: xtbopt.xyz


           -------------------------------------------------
          | TOTAL ENERGY              -38.947756460170 Eh   |
          | GRADIENT NORM               0.000842602436 Eh/α |
          | HOMO-LUMO GAP               3.117678122057 eV   |
           -------------------------------------------------

------------------------------------------------------------------------
 * finished run on 2024/12/20 at 01:54:43.016     
------------------------------------------------------------------------
 total:
 * wall-time:     0 d,  0 h,  0 min,  0.134 sec
 *  cpu-time:     0 d,  0 h,  0 min,  0.935 sec
 * ratio c/w:     6.989 speedup
 SCF:
 * wall-time:     0 d,  0 h,  0 min,  0.009 sec
 *  cpu-time:     0 d,  0 h,  0 min,  0.074 sec
 * ratio c/w:     7.901 speedup
 ANC optimizer:
 * wall-time:     0 d,  0 h,  0 min,  0.109 sec
 *  cpu-time:     0 d,  0 h,  0 min,  0.754 sec
 * ratio c/w:     6.888 speedup

