      -----------------------------------------------------------      
     |                   =====================                   |     
     |                           x T B                           |     
     |                   =====================                   |     
     |                         S. Grimme                         |     
     |          Mulliken Center for Theoretical Chemistry        |     
     |                    University of Bonn                     |     
      -----------------------------------------------------------      

   * xtb version 6.7.1 (edcfbbe) compiled by 'conda@3ef47c1a292c' on 2024-11-25

   xtb is free software: you can redistribute it and/or modify it under
   the terms of the GNU Lesser General Public License as published by
   the Free Software Foundation, either version 3 of the License, or
   (at your option) any later version.
   
   xtb is distributed in the hope that it will be useful,
   but WITHOUT ANY WARRANTY; without even the implied warranty of
   MERCHANTABILITY or FITNESS FOR A PARTICULAR PURPOSE.  See the
   GNU Lesser General Public License for more details.
   
   Cite this work as:
   * C. Bannwarth, E. Caldeweyher, S. Ehlert, A. Hansen, P. Pracht,
     J. Seibert, S. Spicher, S. Grimme, WIREs Comput. Mol. Sci., 2020, 11,
     e01493. DOI: 10.1002/wcms.1493
   
   for GFN2-xTB:
   * C. Bannwarth, S. Ehlert and S. Grimme., J. Chem. Theory Comput., 2019,
     15, 1652-1671. DOI: 10.1021/acs.jctc.8b01176
   for GFN1-xTB:
   * S. Grimme, C. Bannwarth, P. Shushkov, J. Chem. Theory Comput., 2017,
     13, 1989-2009. DOI: 10.1021/acs.jctc.7b00118
   for GFN0-xTB:
   * P. Pracht, E. Caldeweyher, S. Ehlert, S. Grimme, ChemRxiv, 2019, preprint.
     DOI: 10.26434/chemrxiv.8326202.v1
   for GFN-FF:
   * S. Spicher and S. Grimme, Angew. Chem. Int. Ed., 2020, 59, 15665-15673.
     DOI: 10.1002/anie.202004239
   
   for ALPB and GBSA implicit solvation:
   * S. Ehlert, M. Stahn, S. Spicher, S. Grimme, J. Chem. Theory Comput.,
     2021, 17, 4250-4261. DOI: 10.1021/acs.jctc.1c00471
   
   for ddCOSMO and CPCM-X implicit solvation:
   * M. Stahn, S. Ehlert, S. Grimme, J. Phys. Chem. A,
     2023, XX, XXXX-XXXX. DOI: 10.1021/acs.jpca.3c04382
   
   for DFT-D4:
   * E. Caldeweyher, C. Bannwarth and S. Grimme, J. Chem. Phys., 2017,
     147, 034112. DOI: 10.1063/1.4993215
   * E. Caldeweyher, S. Ehlert, A. Hansen, H. Neugebauer, S. Spicher,
     C. Bannwarth and S. Grimme, J. Chem. Phys., 2019, 150, 154122.
     DOI: 10.1063/1.5090222
   * E. Caldeweyher, J.-M. Mewes, S. Ehlert and S. Grimme, Phys. Chem. Chem. Phys.
     2020, 22, 8499-8512. DOI: 10.1039/D0CP00502A
   
   for sTDA-xTB:
   * S. Grimme and C. Bannwarth, J. Chem. Phys., 2016, 145, 054103.
     DOI: 10.1063/1.4959605
   
   in the mass-spec context:
   * V. Asgeirsson, C. Bauer and S. Grimme, Chem. Sci., 2017, 8, 4879.
     DOI: 10.1039/c7sc00601b
   * J. Koopman and S. Grimme, ACS Omega 2019, 4, 12, 15120-15133.
     DOI: 10.1021/acsomega.9b02011
   
   for metadynamics refer to:
   * S. Grimme, J. Chem. Theory Comput., 2019, 155, 2847-2862
     DOI: 10.1021/acs.jctc.9b00143
   
   for SPH calculations refer to:
   * S. Spicher and S. Grimme, J. Chem. Theory Comput., 2021, 17, 1701-1714
     DOI: 10.1021/acs.jctc.0c01306
   
   for ONIOM refer to:
   * C. Plett, A. Katbashev, S. Ehlert, S. Grimme, M. Bursch,
     Phys. Chem. Chem. Phys., 2023, 25, 17860-17868. DOI: 10.1039/D3CP02178E
   
   for DIPRO refer to:
   * J. Kohn, N. Gildemeister, S. Grimme, D. Fazzi, A. Hansen,
     J. Chem. Phys., 2023, just accepted.
   
   for PTB refer to:
   * S. Grimme, M. Mueller, A. Hansen, J. Chem. Phys., 2023, 158, 124111.
     DOI: 10.1063/5.0137838
   
   with help from (in alphabetical order)
   P. Atkinson, C. Bannwarth, F. Bohle, G. Brandenburg, E. Caldeweyher
   M. Checinski, S. Dohm, S. Ehlert, S. Ehrlich, I. Gerasimov, C. Hölzer
   A. Katbashev, J. Kohn, J. Koopman, C. Lavigne, S. Lehtola, F. März, M. Müller,
   F. Musil, H. Neugebauer, J. Pisarek, C. Plett, P. Pracht, F. Pultar,
   J. Seibert, P. Shushkov, S. Spicher, M. Stahn, M. Steiner, T. Strunk,
   J. Stückrath, T. Rose, and J. Unsleber
   
 * started run on 2024/12/20 at 01:54:43.366     
   ID    Z sym.   atoms
    1    6 C      1-6, 8, 9, 11, 12
    2    8 O      7, 10, 13, 14
    3    1 H      15-23

           -------------------------------------------------
          |                Calculation Setup                |
           -------------------------------------------------

          program call               : xtb A119.xyz --opt --namespace A119 --charge -1
          calculation namespace      : A119
          coordinate file            : A119.xyz
          omp threads                :                     8


           -------------------------------------------------
          |                 G F N 2 - x T B                 |
           -------------------------------------------------

        Reference                      10.1021/acs.jctc.8b01176
      * Hamiltonian:
        H0-scaling (s, p, d)           1.850000    2.230000    2.230000
        zeta-weighting                 0.500000
      * Dispersion:
        s8                             2.700000
        a1                             0.520000
        a2                             5.000000
        s9                             5.000000
      * Repulsion:
        kExp                           1.500000    1.000000
        rExp                           1.000000
      * Coulomb:
        alpha                          2.000000
        third order                    shell-resolved
        anisotropic                    true
        a3                             3.000000
        a5                             4.000000
        cn-shift                       1.200000
        cn-exp                         4.000000
        max-rad                        5.000000


          ...................................................
          :                      SETUP                      :
          :.................................................:
          :  # basis functions                  65          :
          :  # atomic orbitals                  65          :
          :  # shells                           37          :
          :  # electrons                        74          :
          :  max. iterations                   250          :
          :  Hamiltonian                  GFN2-xTB          :
          :  restarted?                      false          :
          :  GBSA solvation                  false          :
          :  PC potential                    false          :
          :  electronic temp.          300.0000000     K    :
          :  accuracy                    1.0000000          :
          :  -> integral cutoff          0.2500000E+02      :
          :  -> integral neglect         0.1000000E-07      :
          :  -> SCF convergence          0.1000000E-05 Eh   :
          :  -> wf. convergence          0.1000000E-03 e    :
          :  Broyden damping             0.4000000          :
          :  net charge                         -1          :
          :  unpaired electrons                  0          :
          ...................................................

 iter      E             dE          RMSdq      gap      omega  full diag
   1    -42.8652074 -0.428652E+02  0.497E+00    2.81       0.0  T
   2    -42.9490146 -0.838072E-01  0.273E+00    2.06       1.0  T
   3    -42.9414856  0.752899E-02  0.153E+00    1.58       1.0  T
   4    -42.9570411 -0.155555E-01  0.719E-01    1.07       1.0  T
   5    -42.9633510 -0.630990E-02  0.188E-01    1.24       1.0  T
   6    -42.9637644 -0.413357E-03  0.912E-02    1.31       1.0  T
   7    -42.9638518 -0.874107E-04  0.392E-02    1.35       1.0  T
   8    -42.9638631 -0.113187E-04  0.163E-02    1.36       1.3  T
   9    -42.9638649 -0.183963E-05  0.497E-03    1.36       4.2  T
  10    -42.9638650 -0.117639E-06  0.236E-03    1.35       8.8  T
  11    -42.9638651 -0.314352E-07  0.967E-04    1.35      21.6  T
  12    -42.9638651 -0.475097E-08  0.353E-04    1.35      59.0  T

   *** convergence criteria satisfied after 12 iterations ***

         #    Occupation            Energy/Eh            Energy/eV
      -------------------------------------------------------------
         1        2.0000           -0.6395841             -17.4040
       ...           ...                  ...                  ...
        31        2.0000           -0.2987483              -8.1294
        32        2.0000           -0.2888501              -7.8600
        33        2.0000           -0.2815763              -7.6621
        34        2.0000           -0.2476047              -6.7377
        35        2.0000           -0.2032571              -5.5309
        36        2.0000           -0.1908713              -5.1939
        37        2.0000           -0.1779737              -4.8429 (HOMO)
        38                         -0.1282371              -3.4895 (LUMO)
        39                         -0.1218158              -3.3148
        40                         -0.0640273              -1.7423
        41                          0.0130615               0.3554
        42                          0.0465839               1.2676
       ...                                ...                  ...
        65                          0.8593094              23.3830
      -------------------------------------------------------------
                  HL-Gap            0.0497366 Eh            1.3534 eV
             Fermi-level           -0.1531062 Eh           -4.1662 eV

 SCC (total)                   0 d,  0 h,  0 min,  0.014 sec
 SCC setup                      ...        0 min,  0.000 sec (  0.941%)
 Dispersion                     ...        0 min,  0.000 sec (  1.383%)
 classical contributions        ...        0 min,  0.000 sec (  0.283%)
 integral evaluation            ...        0 min,  0.001 sec (  6.965%)
 iterations                     ...        0 min,  0.010 sec ( 74.863%)
 molecular gradient             ...        0 min,  0.002 sec ( 14.784%)
 printout                       ...        0 min,  0.000 sec (  0.674%)

         :::::::::::::::::::::::::::::::::::::::::::::::::::::
         ::                     SUMMARY                     ::
         :::::::::::::::::::::::::::::::::::::::::::::::::::::
         :: total energy             -42.469129982948 Eh    ::
         :: gradient norm              0.064645403526 Eh/a0 ::
         :: HOMO-LUMO gap              1.353400697571 eV    ::
         ::.................................................::
         :: SCC energy               -42.963871398240 Eh    ::
         :: -> isotropic ES            0.227008672065 Eh    ::
         :: -> anisotropic ES          0.007995522758 Eh    ::
         :: -> anisotropic XC          0.006441704200 Eh    ::
         :: -> dispersion             -0.020870887249 Eh    ::
         :: repulsion energy           0.494741415292 Eh    ::
         :: add. restraining           0.000000000000 Eh    ::
         :: total charge              -1.000000000000 e     ::
         :::::::::::::::::::::::::::::::::::::::::::::::::::::

      ----------------------------------------------------------- 
     |                   =====================                   |
     |                        A N C O P T                        |
     |                   =====================                   |
     |               Approximate Normal Coordinate               |
     |                Rational Function Optimizer                |
      ----------------------------------------------------------- 
      ----------------------------------------------------------- 
     |                   =====================                   |
     |                        A N C O P T                        |
     |                   =====================                   |
     |               Approximate Normal Coordinate               |
     |                Rational Function Optimizer                |
      ----------------------------------------------------------- 

          ...................................................
          :                      SETUP                      :
          :.................................................:
          :   optimization level            normal          :
          :   max. optcycles                   200          :
          :   ANC micro-cycles                  20          :
          :   degrees of freedom                63          :
          :.................................................:
          :   RF solver                   davidson          :
          :   write xtbopt.log                true          :
          :   linear?                        false          :
          :   energy convergence         0.5000000E-05 Eh   :
          :   grad. convergence          0.1000000E-02 Eh/α :
          :   maxmium RF displ.          1.0000000          :
          :   Hlow (freq-cutoff)         0.1000000E-01      :
          :   Hmax (freq-cutoff)         5.0000000          :
          :   S6 in model hess.         20.0000000          :
          ...................................................

generating ANC from exact Hessian ...
Using Lindh-Hessian (1995)
 Shifting diagonal of input Hessian by    8.6702051528196825E-003
 Lowest  eigenvalues of input Hessian
    0.000000    0.000000    0.000000    0.000000    0.000000    0.000000
    0.010000    0.010547    0.010706    0.012446    0.013842    0.015513
    0.018134    0.022550    0.023483    0.025582    0.031077    0.033217
 Highest eigenvalues
    1.728202    1.864350    1.918517    2.035261    2.103717    2.307451


........................................................................
.............................. CYCLE    1 ..............................
........................................................................

 iter      E             dE          RMSdq      gap      omega  full diag
   1    -42.9638651 -0.429639E+02  0.154E-04    1.35       0.0  T
   2    -42.9638651 -0.154813E-09  0.102E-04    1.35     204.8  T
   3    -42.9638651 -0.118838E-09  0.542E-05    1.35     384.7  T
     SCC iter.                  ...        0 min,  0.002 sec
     gradient                   ...        0 min,  0.002 sec
 * total energy  :   -42.4691300 Eh     change       -0.3754081E-09 Eh
   gradient norm :     0.0646480 Eh/α   predicted     0.0000000E+00 (-100.00%)
   displ. norm   :     0.1583152 α      lambda       -0.5424161E-02
   maximum displ.:     0.0650964 α      in ANC's #19, #37, #9, ...

........................................................................
.............................. CYCLE    2 ..............................
........................................................................

 iter      E             dE          RMSdq      gap      omega  full diag
   1    -42.9891236 -0.429891E+02  0.180E-01    1.34       0.0  T
   2    -42.9892087 -0.850328E-04  0.111E-01    1.36       1.0  T
   3    -42.9892031  0.551197E-05  0.525E-02    1.38       1.0  T
   4    -42.9892232 -0.201030E-04  0.166E-02    1.38       1.3  T
   5    -42.9892292 -0.597113E-05  0.469E-03    1.38       4.5  T
   6    -42.9892294 -0.144563E-06  0.250E-03    1.38       8.3  T
   7    -42.9892294 -0.666827E-07  0.124E-03    1.38      16.8  T
   8    -42.9892294 -0.783273E-08  0.418E-04    1.38      49.9  T
   9    -42.9892294 -0.825636E-09  0.161E-04    1.38     129.6  T
     SCC iter.                  ...        0 min,  0.006 sec
     gradient                   ...        0 min,  0.002 sec
 * total energy  :   -42.4726496 Eh     change       -0.3519640E-02 Eh
   gradient norm :     0.0241398 Eh/α   predicted    -0.2780270E-02 ( -21.01%)
   displ. norm   :     0.1403357 α      lambda       -0.1180341E-02
   maximum displ.:     0.0619008 α      in ANC's #4, #3, #2, ...

........................................................................
.............................. CYCLE    3 ..............................
........................................................................

 iter      E             dE          RMSdq      gap      omega  full diag
   1    -42.9982666 -0.429983E+02  0.122E-01    1.36       0.0  T
   2    -42.9982877 -0.211658E-04  0.750E-02    1.37       1.0  T
   3    -42.9982730  0.147086E-04  0.393E-02    1.39       1.0  T
   4    -42.9982926 -0.196112E-04  0.117E-02    1.38       1.8  T
   5    -42.9982953 -0.266750E-05  0.258E-03    1.38       8.1  T
   6    -42.9982953 -0.292615E-07  0.143E-03    1.38      14.6  T
   7    -42.9982953 -0.146666E-07  0.652E-04    1.38      32.0  T
   8    -42.9982953 -0.173695E-08  0.233E-04    1.38      89.3  T
     SCC iter.                  ...        0 min,  0.005 sec
     gradient                   ...        0 min,  0.002 sec
 * total energy  :   -42.4731106 Eh     change       -0.4609403E-03 Eh
   gradient norm :     0.0118387 Eh/α   predicted    -0.6019874E-03 (  30.60%)
   displ. norm   :     0.1569124 α      lambda       -0.8409700E-03
   maximum displ.:     0.0819157 α      in ANC's #4, #16, #2, ...

........................................................................
.............................. CYCLE    4 ..............................
........................................................................

 iter      E             dE          RMSdq      gap      omega  full diag
   1    -43.0006116 -0.430006E+02  0.170E-01    1.38       0.0  T
   2    -43.0006185 -0.694271E-05  0.100E-01    1.39       1.0  T
   3    -43.0006101  0.844886E-05  0.230E-02    1.41       1.0  T
   4    -43.0006199 -0.980791E-05  0.593E-03    1.41       3.5  T
   5    -43.0006204 -0.491241E-06  0.251E-03    1.40       8.3  T
   6    -43.0006204 -0.585263E-07  0.112E-03    1.40      18.6  T
   7    -43.0006204 -0.812764E-08  0.502E-04    1.40      41.5  T
   8    -43.0006204 -0.111766E-08  0.167E-04    1.40     124.8  T
     SCC iter.                  ...        0 min,  0.005 sec
     gradient                   ...        0 min,  0.002 sec
 * total energy  :   -42.4731297 Eh     change       -0.1917140E-04 Eh
   gradient norm :     0.0154076 Eh/α   predicted    -0.4308386E-03 (2147.30%)
   displ. norm   :     0.0564971 α      lambda       -0.5585336E-03
   maximum displ.:     0.0325977 α      in ANC's #16, #19, #2, ...

........................................................................
.............................. CYCLE    5 ..............................
........................................................................

 iter      E             dE          RMSdq      gap      omega  full diag
   1    -42.9965278 -0.429965E+02  0.750E-02    1.40       0.0  T
   2    -42.9965322 -0.437404E-05  0.447E-02    1.39       1.0  T
   3    -42.9965285  0.372080E-05  0.157E-02    1.38       1.3  T
   4    -42.9965330 -0.450484E-05  0.423E-03    1.39       4.9  T
   5    -42.9965333 -0.380042E-06  0.136E-03    1.39      15.3  T
   6    -42.9965334 -0.134059E-07  0.739E-04    1.39      28.2  T
   7    -42.9965334 -0.602913E-08  0.324E-04    1.39      64.4  T
     SCC iter.                  ...        0 min,  0.005 sec
     gradient                   ...        0 min,  0.002 sec
 * total energy  :   -42.4734567 Eh     change       -0.3269182E-03 Eh
   gradient norm :     0.0035589 Eh/α   predicted    -0.2801603E-03 ( -14.30%)
   displ. norm   :     0.0962596 α      lambda       -0.1026043E-03
   maximum displ.:     0.0664246 α      in ANC's #4, #2, #3, ...

........................................................................
.............................. CYCLE    6 ..............................
........................................................................

 iter      E             dE          RMSdq      gap      omega  full diag
   1    -42.9951490 -0.429951E+02  0.692E-02    1.38       0.0  T
   2    -42.9951498 -0.751852E-06  0.407E-02    1.38       1.0  T
   3    -42.9951484  0.131402E-05  0.818E-03    1.38       2.5  T
   4    -42.9951501 -0.161468E-05  0.137E-03    1.38      15.3  T
   5    -42.9951501 -0.200801E-07  0.789E-04    1.38      26.4  T
   6    -42.9951501 -0.219974E-08  0.457E-04    1.38      45.7  T
     SCC iter.                  ...        0 min,  0.004 sec
     gradient                   ...        0 min,  0.002 sec
 * total energy  :   -42.4735402 Eh     change       -0.8358169E-04 Eh
   gradient norm :     0.0027343 Eh/α   predicted    -0.5177871E-04 ( -38.05%)
   displ. norm   :     0.1932353 α      lambda       -0.1468459E-03
   maximum displ.:     0.1307172 α      in ANC's #4, #2, #8, ...

........................................................................
.............................. CYCLE    7 ..............................
........................................................................

 iter      E             dE          RMSdq      gap      omega  full diag
   1    -42.9936506 -0.429937E+02  0.141E-01    1.36       0.0  T
   2    -42.9936522 -0.158283E-05  0.828E-02    1.36       1.0  T
   3    -42.9936487  0.355663E-05  0.130E-02    1.36       1.6  T
   4    -42.9936530 -0.431007E-05  0.271E-03    1.36       7.7  T
   5    -42.9936531 -0.758566E-07  0.163E-03    1.36      12.8  T
   6    -42.9936531 -0.192365E-07  0.730E-04    1.36      28.6  T
   7    -42.9936531 -0.250112E-08  0.239E-04    1.36      87.1  T
     SCC iter.                  ...        0 min,  0.005 sec
     gradient                   ...        0 min,  0.002 sec
 * total energy  :   -42.4736488 Eh     change       -0.1085881E-03 Eh
   gradient norm :     0.0050604 Eh/α   predicted    -0.7616708E-04 ( -29.86%)
   displ. norm   :     0.1854561 α      lambda       -0.1104633E-03
   maximum displ.:     0.1252240 α      in ANC's #4, #2, #8, ...

........................................................................
.............................. CYCLE    8 ..............................
........................................................................

 iter      E             dE          RMSdq      gap      omega  full diag
   1    -42.9933280 -0.429933E+02  0.138E-01    1.34       0.0  T
   2    -42.9933288 -0.769340E-06  0.812E-02    1.35       1.0  T
   3    -42.9933260  0.283223E-05  0.116E-02    1.35       1.8  T
   4    -42.9933293 -0.338846E-05  0.215E-03    1.35       9.7  T
   5    -42.9933294 -0.263457E-07  0.132E-03    1.35      15.8  T
   6    -42.9933294 -0.864626E-08  0.445E-04    1.35      46.8  T
   7    -42.9933294 -0.118749E-08  0.140E-04    1.35     149.3  T
     SCC iter.                  ...        0 min,  0.005 sec
     gradient                   ...        0 min,  0.002 sec
 * total energy  :   -42.4737335 Eh     change       -0.8463633E-04 Eh
   gradient norm :     0.0059506 Eh/α   predicted    -0.5713186E-04 ( -32.50%)
   displ. norm   :     0.2335622 α      lambda       -0.1405596E-03
   maximum displ.:     0.1573871 α      in ANC's #4, #2, #8, ...

........................................................................
.............................. CYCLE    9 ..............................
........................................................................

 iter      E             dE          RMSdq      gap      omega  full diag
   1    -42.9939730 -0.429940E+02  0.175E-01    1.33       0.0  T
   2    -42.9939741 -0.109741E-05  0.103E-01    1.33       1.0  T
   3    -42.9939666  0.748389E-05  0.191E-02    1.33       1.1  T
   4    -42.9939752 -0.853568E-05  0.255E-03    1.33       8.2  T
   5    -42.9939752 -0.377705E-07  0.145E-03    1.33      14.4  T
   6    -42.9939752 -0.226355E-08  0.328E-04    1.33      63.6  T
   7    -42.9939752 -0.127653E-08  0.134E-04    1.33     155.1  T
     SCC iter.                  ...        0 min,  0.005 sec
     gradient                   ...        0 min,  0.002 sec
 * total energy  :   -42.4738375 Eh     change       -0.1040101E-03 Eh
   gradient norm :     0.0051197 Eh/α   predicted    -0.7411440E-04 ( -28.74%)
   displ. norm   :     0.2183206 α      lambda       -0.1316213E-03
   maximum displ.:     0.1418885 α      in ANC's #4, #2, #8, ...

........................................................................
.............................. CYCLE   10 ..............................
........................................................................

 iter      E             dE          RMSdq      gap      omega  full diag
   1    -42.9954801 -0.429955E+02  0.161E-01    1.32       0.0  T
   2    -42.9954812 -0.110056E-05  0.951E-02    1.32       1.0  T
   3    -42.9954704  0.108455E-04  0.235E-02    1.32       1.0  T
   4    -42.9954825 -0.121230E-04  0.254E-03    1.32       8.2  T
   5    -42.9954826 -0.502777E-07  0.149E-03    1.32      13.9  T
   6    -42.9954826 -0.676238E-08  0.616E-04    1.32      33.8  T
   7    -42.9954826 -0.263389E-08  0.164E-04    1.32     126.9  T
     SCC iter.                  ...        0 min,  0.005 sec
     gradient                   ...        0 min,  0.002 sec
 * total energy  :   -42.4739348 Eh     change       -0.9736266E-04 Eh
   gradient norm :     0.0029181 Eh/α   predicted    -0.6895028E-04 ( -29.18%)
   displ. norm   :     0.2939967 α      lambda       -0.1077119E-03
   maximum displ.:     0.1890179 α      in ANC's #2, #4, #8, ...

........................................................................
.............................. CYCLE   11 ..............................
........................................................................

 iter      E             dE          RMSdq      gap      omega  full diag
   1    -42.9944354 -0.429944E+02  0.217E-01    1.31       0.0  T
   2    -42.9944388 -0.334307E-05  0.128E-01    1.31       1.0  T
   3    -42.9944199  0.189166E-04  0.314E-02    1.30       1.0  T
   4    -42.9944410 -0.211354E-04  0.433E-03    1.30       4.8  T
   5    -42.9944413 -0.243397E-06  0.209E-03    1.30      10.0  T
   6    -42.9944413 -0.731666E-08  0.104E-03    1.30      20.0  T
   7    -42.9944413 -0.846828E-08  0.290E-04    1.30      71.9  T
   8    -42.9944413 -0.104311E-08  0.102E-04    1.30     203.4  T
     SCC iter.                  ...        0 min,  0.005 sec
     gradient                   ...        0 min,  0.002 sec
 * total energy  :   -42.4739926 Eh     change       -0.5777910E-04 Eh
   gradient norm :     0.0052334 Eh/α   predicted    -0.5851217E-04 (   1.27%)
   displ. norm   :     0.1612569 α      lambda       -0.1254074E-03
   maximum displ.:     0.0930015 α      in ANC's #2, #3, #4, ...

........................................................................
.............................. CYCLE   12 ..............................
........................................................................

 iter      E             dE          RMSdq      gap      omega  full diag
   1    -42.9978341 -0.429978E+02  0.101E-01    1.30       0.0  T
   2    -42.9978362 -0.207153E-05  0.596E-02    1.30       1.0  T
   3    -42.9978303  0.590036E-05  0.177E-02    1.29       1.2  T
   4    -42.9978368 -0.652755E-05  0.409E-03    1.30       5.1  T
   5    -42.9978371 -0.307241E-06  0.112E-03    1.30      18.7  T
   6    -42.9978371 -0.125603E-08  0.634E-04    1.30      32.9  T
   7    -42.9978371 -0.264382E-08  0.202E-04    1.30     103.0  T
     SCC iter.                  ...        0 min,  0.005 sec
     gradient                   ...        0 min,  0.002 sec
 * total energy  :   -42.4740387 Eh     change       -0.4610589E-04 Eh
   gradient norm :     0.0042969 Eh/α   predicted    -0.6434424E-04 (  39.56%)
   displ. norm   :     0.2351779 α      lambda       -0.7737076E-04
   maximum displ.:     0.1624263 α      in ANC's #2, #4, #1, ...

........................................................................
.............................. CYCLE   13 ..............................
........................................................................

 iter      E             dE          RMSdq      gap      omega  full diag
   1    -42.9946794 -0.429947E+02  0.172E-01    1.29       0.0  T
   2    -42.9946832 -0.379052E-05  0.101E-01    1.29       1.0  T
   3    -42.9946732  0.100173E-04  0.240E-02    1.28       1.0  T
   4    -42.9946844 -0.112099E-04  0.494E-03    1.29       4.2  T
   5    -42.9946849 -0.489971E-06  0.193E-03    1.29      10.8  T
   6    -42.9946849 -0.121934E-07  0.646E-04    1.29      32.3  T
   7    -42.9946849 -0.136742E-08  0.215E-04    1.29      96.8  T
     SCC iter.                  ...        0 min,  0.005 sec
     gradient                   ...        0 min,  0.002 sec
 * total energy  :   -42.4740549 Eh     change       -0.1620113E-04 Eh
   gradient norm :     0.0075392 Eh/α   predicted    -0.4083425E-04 ( 152.05%)
   displ. norm   :     0.0480096 α      lambda       -0.6035800E-04
   maximum displ.:     0.0356574 α      in ANC's #4, #2, #1, ...

........................................................................
.............................. CYCLE   14 ..............................
........................................................................

 iter      E             dE          RMSdq      gap      omega  full diag
   1    -42.9957072 -0.429957E+02  0.355E-02    1.29       0.0  T
   2    -42.9957084 -0.118447E-05  0.211E-02    1.29       1.0  T
   3    -42.9957067  0.166026E-05  0.130E-02    1.29       1.6  T
   4    -42.9957090 -0.221704E-05  0.247E-03    1.29       8.4  T
   5    -42.9957091 -0.138164E-06  0.798E-04    1.29      26.1  T
   6    -42.9957091 -0.566396E-08  0.379E-04    1.29      55.1  T
     SCC iter.                  ...        0 min,  0.004 sec
     gradient                   ...        0 min,  0.002 sec
 * total energy  :   -42.4740896 Eh     change       -0.3470584E-04 Eh
   gradient norm :     0.0029638 Eh/α   predicted    -0.3025056E-04 ( -12.84%)
   displ. norm   :     0.0732808 α      lambda       -0.2491883E-04
   maximum displ.:     0.0572963 α      in ANC's #2, #3, #1, ...

........................................................................
.............................. CYCLE   15 ..............................
........................................................................

 iter      E             dE          RMSdq      gap      omega  full diag
   1    -42.9960018 -0.429960E+02  0.481E-02    1.29       0.0  T
   2    -42.9960021 -0.359380E-06  0.283E-02    1.29       1.0  T
   3    -42.9960004  0.171945E-05  0.100E-02    1.29       2.1  T
   4    -42.9960024 -0.195505E-05  0.139E-03    1.29      15.0  T
   5    -42.9960024 -0.307070E-07  0.651E-04    1.29      32.0  T
   6    -42.9960024 -0.343572E-08  0.305E-04    1.29      68.4  T
     SCC iter.                  ...        0 min,  0.004 sec
     gradient                   ...        0 min,  0.002 sec
 * total energy  :   -42.4741097 Eh     change       -0.2008751E-04 Eh
   gradient norm :     0.0019387 Eh/α   predicted    -0.1252717E-04 ( -37.64%)
   displ. norm   :     0.3785193 α      lambda       -0.4668714E-04
   maximum displ.:     0.2888135 α      in ANC's #2, #3, #4, ...

........................................................................
.............................. CYCLE   16 ..............................
........................................................................

 iter      E             dE          RMSdq      gap      omega  full diag
   1    -42.9938606 -0.429939E+02  0.260E-01    1.28       0.0  T
   2    -42.9938639 -0.321650E-05  0.153E-01    1.28       1.0  T
   3    -42.9938596  0.428340E-05  0.172E-02    1.29       1.2  T
   4    -42.9938656 -0.600380E-05  0.392E-03    1.28       5.3  T
   5    -42.9938656 -0.197586E-07  0.255E-03    1.28       8.2  T
   6    -42.9938657 -0.536015E-07  0.102E-03    1.28      20.5  T
   7    -42.9938657 -0.975072E-08  0.329E-04    1.28      63.5  T
   8    -42.9938657 -0.119551E-08  0.119E-04    1.28     175.3  T
     SCC iter.                  ...        0 min,  0.005 sec
     gradient                   ...        0 min,  0.002 sec
 * total energy  :   -42.4741211 Eh     change       -0.1140618E-04 Eh
   gradient norm :     0.0053804 Eh/α   predicted    -0.2483545E-04 ( 117.74%)
   displ. norm   :     0.0691374 α      lambda       -0.6784783E-04
   maximum displ.:     0.0563557 α      in ANC's #4, #8, #3, ...

........................................................................
.............................. CYCLE   17 ..............................
........................................................................

 iter      E             dE          RMSdq      gap      omega  full diag
   1    -42.9964889 -0.429965E+02  0.505E-02    1.29       0.0  T
   2    -42.9964900 -0.103550E-05  0.300E-02    1.29       1.0  T
   3    -42.9964871  0.291192E-05  0.131E-02    1.29       1.6  T
   4    -42.9964903 -0.322772E-05  0.264E-03    1.29       7.9  T
   5    -42.9964904 -0.135898E-06  0.674E-04    1.29      30.9  T
   6    -42.9964904 -0.136917E-08  0.390E-04    1.29      53.5  T
     SCC iter.                  ...        0 min,  0.004 sec
     gradient                   ...        0 min,  0.002 sec
 * total energy  :   -42.4741415 Eh     change       -0.2041780E-04 Eh
   gradient norm :     0.0038610 Eh/α   predicted    -0.3408792E-04 (  66.95%)
   displ. norm   :     0.0309620 α      lambda       -0.3168778E-04
   maximum displ.:     0.0185026 α      in ANC's #4, #3, #11, ...

........................................................................
.............................. CYCLE   18 ..............................
........................................................................

 iter      E             dE          RMSdq      gap      omega  full diag
   1    -42.9960829 -0.429961E+02  0.236E-02    1.29       0.0  T
   2    -42.9960845 -0.164106E-05  0.149E-02    1.29       1.4  T
   3    -42.9960845 -0.285279E-08  0.830E-03    1.28       2.5  T
   4    -42.9960849 -0.397474E-06  0.307E-03    1.29       6.8  T
   5    -42.9960851 -0.159746E-06  0.647E-04    1.28      32.3  T
   6    -42.9960851 -0.581708E-08  0.359E-04    1.29      58.0  T
     SCC iter.                  ...        0 min,  0.004 sec
     gradient                   ...        0 min,  0.002 sec
 * total energy  :   -42.4741552 Eh     change       -0.1369534E-04 Eh
   gradient norm :     0.0027056 Eh/α   predicted    -0.1586472E-04 (  15.84%)
   displ. norm   :     0.0299772 α      lambda       -0.1794184E-04
   maximum displ.:     0.0167289 α      in ANC's #2, #8, #3, ...

........................................................................
.............................. CYCLE   19 ..............................
........................................................................

 iter      E             dE          RMSdq      gap      omega  full diag
   1    -42.9962862 -0.429963E+02  0.255E-02    1.28       0.0  T
   2    -42.9962867 -0.585682E-06  0.152E-02    1.28       1.4  T
   3    -42.9962863  0.488260E-06  0.682E-03    1.28       3.1  T
   4    -42.9962868 -0.579873E-06  0.197E-03    1.29      10.6  T
   5    -42.9962869 -0.791146E-07  0.369E-04    1.28      56.5  T
   6    -42.9962869 -0.100108E-08  0.208E-04    1.28     100.0  T
     SCC iter.                  ...        0 min,  0.004 sec
     gradient                   ...        0 min,  0.002 sec
 * total energy  :   -42.4741636 Eh     change       -0.8327660E-05 Eh
   gradient norm :     0.0016162 Eh/α   predicted    -0.8981506E-05 (   7.85%)
   displ. norm   :     0.1195181 α      lambda       -0.1338596E-04
   maximum displ.:     0.1017054 α      in ANC's #2, #1, #37, ...

........................................................................
.............................. CYCLE   20 ..............................
........................................................................

 iter      E             dE          RMSdq      gap      omega  full diag
   1    -42.9958115 -0.429958E+02  0.854E-02    1.28       0.0  T
   2    -42.9958118 -0.287469E-06  0.504E-02    1.28       1.0  T
   3    -42.9958118 -0.347982E-07  0.282E-03    1.28       7.4  T
   4    -42.9958120 -0.115436E-06  0.137E-03    1.28      15.2  T
   5    -42.9958120  0.147413E-08  0.860E-04    1.28      24.3  T
   6    -42.9958120 -0.979921E-08  0.197E-04    1.28     106.0  T
     SCC iter.                  ...        0 min,  0.008 sec
     gradient                   ...        0 min,  0.003 sec
 * total energy  :   -42.4741785 Eh     change       -0.1490954E-04 Eh
   gradient norm :     0.0015029 Eh/α   predicted    -0.6735284E-05 ( -54.83%)
   displ. norm   :     0.2124609 α      lambda       -0.2258693E-04
   maximum displ.:     0.1813418 α      in ANC's #2, #1, #37, ...
 * RMSD in coord.:     0.5045800 α      energy gain  -0.5048485E-02 Eh

generating ANC from exact Hessian ...
Using Lindh-Hessian (1995)
 Shifting diagonal of input Hessian by    8.5794852523332858E-003
 Lowest  eigenvalues of input Hessian
    0.000000    0.000000    0.000000    0.000000    0.000000    0.000000
    0.010000    0.010421    0.011018    0.012411    0.013667    0.015731
    0.017151    0.022701    0.024209    0.026471    0.030556    0.035238
 Highest eigenvalues
    1.750763    1.915999    1.963628    2.061309    2.152979    2.417799


........................................................................
.............................. CYCLE   21 ..............................
........................................................................

 iter      E             dE          RMSdq      gap      omega  full diag
   1    -42.9956587 -0.429957E+02  0.147E-01    1.28       0.0  T
   2    -42.9956599 -0.117738E-05  0.870E-02    1.28       1.0  T
   3    -42.9956601 -0.227593E-06  0.498E-03    1.28       4.2  T
   4    -42.9956604 -0.249792E-06  0.251E-03    1.28       8.3  T
   5    -42.9956604  0.405754E-08  0.154E-03    1.28      13.5  T
   6    -42.9956604 -0.244307E-07  0.459E-04    1.28      45.4  T
   7    -42.9956604 -0.324474E-08  0.156E-04    1.28     133.7  T
     SCC iter.                  ...        0 min,  0.005 sec
     gradient                   ...        0 min,  0.002 sec
 * total energy  :   -42.4741976 Eh     change       -0.1917687E-04 Eh
   gradient norm :     0.0023859 Eh/α   predicted     0.0000000E+00 (-100.00%)
   displ. norm   :     0.0192107 α      lambda       -0.1221508E-04
   maximum displ.:     0.0106398 α      in ANC's #2, #3, #1, ...

........................................................................
.............................. CYCLE   22 ..............................
........................................................................

 iter      E             dE          RMSdq      gap      omega  full diag
   1    -42.9962901 -0.429963E+02  0.131E-02    1.28       0.0  T
   2    -42.9962903 -0.197885E-06  0.772E-03    1.28       2.7  T
   3    -42.9962903  0.264563E-07  0.244E-03    1.28       8.5  T
   4    -42.9962903 -0.450387E-07  0.658E-04    1.28      31.7  T
   5    -42.9962903 -0.913519E-08  0.225E-04    1.28      92.9  T
     SCC iter.                  ...        0 min,  0.003 sec
     gradient                   ...        0 min,  0.002 sec
 * total energy  :   -42.4742062 Eh     change       -0.8528903E-05 Eh
   gradient norm :     0.0010810 Eh/α   predicted    -0.6360142E-05 ( -25.43%)
   displ. norm   :     0.0633212 α      lambda       -0.1477762E-04
   maximum displ.:     0.0366152 α      in ANC's #2, #3, #1, ...

........................................................................
.............................. CYCLE   23 ..............................
........................................................................

 iter      E             dE          RMSdq      gap      omega  full diag
   1    -42.9973381 -0.429973E+02  0.333E-02    1.28       0.0  T
   2    -42.9973388 -0.631536E-06  0.198E-02    1.28       1.1  T
   3    -42.9973384  0.387069E-06  0.532E-03    1.28       3.9  T
   4    -42.9973388 -0.446812E-06  0.204E-03    1.28      10.2  T
   5    -42.9973389 -0.848236E-07  0.663E-04    1.28      31.5  T
   6    -42.9973389 -0.683919E-09  0.362E-04    1.28      57.6  T
     SCC iter.                  ...        0 min,  0.004 sec
     gradient                   ...        0 min,  0.002 sec
 * total energy  :   -42.4742000 Eh     change        0.6213283E-05 Eh
   gradient norm :     0.0035201 Eh/α   predicted    -0.7402654E-05 (-219.14%)
   displ. norm   :     0.0158011 α      lambda       -0.2190470E-04
   maximum displ.:     0.0082983 α      in ANC's #2, #3, #16, ...

........................................................................
.............................. CYCLE   24 ..............................
........................................................................

 iter      E             dE          RMSdq      gap      omega  full diag
   1    -42.9969831 -0.429970E+02  0.148E-02    1.28       0.0  T
   2    -42.9969831 -0.271913E-07  0.877E-03    1.28       2.4  T
   3    -42.9969830  0.709760E-07  0.207E-03    1.28      10.1  T
   4    -42.9969831 -0.807598E-07  0.477E-04    1.28      43.7  T
   5    -42.9969831 -0.350132E-08  0.235E-04    1.28      88.9  T
     SCC iter.                  ...        0 min,  0.003 sec
     gradient                   ...        0 min,  0.002 sec
 * total energy  :   -42.4742149 Eh     change       -0.1493170E-04 Eh
   gradient norm :     0.0018949 Eh/α   predicted    -0.1096481E-04 ( -26.57%)
   displ. norm   :     0.0268764 α      lambda       -0.8889143E-05
   maximum displ.:     0.0168454 α      in ANC's #2, #3, #4, ...

........................................................................
.............................. CYCLE   25 ..............................
........................................................................

 iter      E             dE          RMSdq      gap      omega  full diag
   1    -42.9961359 -0.429961E+02  0.187E-02    1.28       0.0  T
   2    -42.9961361 -0.203657E-06  0.111E-02    1.28       1.9  T
   3    -42.9961360  0.126491E-06  0.340E-03    1.28       6.1  T
   4    -42.9961361 -0.152059E-06  0.108E-03    1.28      19.2  T
   5    -42.9961362 -0.231726E-07  0.405E-04    1.28      51.5  T
   6    -42.9961362 -0.450385E-09  0.168E-04    1.28     124.4  T
     SCC iter.                  ...        0 min,  0.004 sec
     gradient                   ...        0 min,  0.002 sec
 * total energy  :   -42.4742206 Eh     change       -0.5664243E-05 Eh
   gradient norm :     0.0009748 Eh/α   predicted    -0.4459226E-05 ( -21.27%)
   displ. norm   :     0.0234192 α      lambda       -0.2358641E-05
   maximum displ.:     0.0157458 α      in ANC's #2, #3, #4, ...

........................................................................
.............................. CYCLE   26 ..............................
........................................................................

 iter      E             dE          RMSdq      gap      omega  full diag
   1    -42.9962438 -0.429962E+02  0.136E-02    1.28       0.0  T
   2    -42.9962438 -0.180310E-07  0.796E-03    1.28       2.6  T
   3    -42.9962438  0.183795E-07  0.116E-03    1.28      18.0  T
   4    -42.9962439 -0.289062E-07  0.381E-04    1.28      54.7  T
   5    -42.9962439 -0.913232E-09  0.220E-04    1.28      94.9  T
     SCC iter.                  ...        0 min,  0.003 sec
     gradient                   ...        0 min,  0.002 sec
 * total energy  :   -42.4742236 Eh     change       -0.3003750E-05 Eh
   gradient norm :     0.0006387 Eh/α   predicted    -0.1183638E-05 ( -60.59%)
   displ. norm   :     0.0529910 α      lambda       -0.3861116E-05
   maximum displ.:     0.0353618 α      in ANC's #2, #4, #3, ...

   *** GEOMETRY OPTIMIZATION CONVERGED AFTER 26 ITERATIONS ***

------------------------------------------------------------------------
 total energy gain   :        -0.0050936 Eh       -3.1963 kcal/mol
 total RMSD          :         0.5181768 a0        0.2742 Å
 total power (kW/mol):        -0.5143533 (step)  -64.7677 (real)
------------------------------------------------------------------------

 ANCopt (total)                0 d,  0 h,  0 min,  0.206 sec
 optimizer setup                ...        0 min,  0.000 sec (  0.036%)
 model hessian                  ...        0 min,  0.007 sec (  3.310%)
 ANC generation                 ...        0 min,  0.001 sec (  0.383%)
 coordinate transformation      ...        0 min,  0.000 sec (  0.089%)
 single point calculation       ...        0 min,  0.193 sec ( 93.623%)
 optimization log               ...        0 min,  0.002 sec (  0.833%)
 hessian update                 ...        0 min,  0.000 sec (  0.196%)
 rational function              ...        0 min,  0.002 sec (  1.085%)

================
 final structure:
================
23
 xtb: 6.7.1 (edcfbbe)
C            1.06018005988436        0.04302014591298        0.12404591714115
C            0.26042514442457       -0.76290190452303       -0.93499826572678
C           -0.94326905502607       -0.38053392047943       -1.36093917508419
C           -1.78792575328369       -1.02339314498967       -2.35269124139970
C           -1.43876941729486       -2.24140198912969       -2.94905392259769
C           -2.25603163749452       -2.83279635051695       -3.88811028015959
O           -1.99935340770273       -4.03944429970228       -4.53324681176870
C           -0.81989634054203       -4.71612421926403       -4.19186156263214
C           -3.45801749320119       -2.21795947539980       -4.26451002245621
O           -4.27222601757183       -2.80708873918696       -5.20133029034699
C           -3.81375553238904       -1.01492345669148       -3.68074993200250
C           -2.99030965602376       -0.42915591730422       -2.73753590340385
O            0.47310003943467        1.00686994311197        0.63595562012242
O            2.20809103816614       -0.38269888092165        0.33145074092908
H            0.77070584073427       -1.64263927780523       -1.31044269923539
H           -1.34202553233414        0.52497388668854       -0.91646861522697
H           -0.51409434426043       -2.70955988205908       -2.65447842065145
H            0.06819600984871       -4.12069803711229       -4.42812989589774
H           -0.80233051317136       -4.98196006566761       -3.12974593453650
H           -0.81456740694451       -5.62637450864394       -4.79226018289642
H           -3.83389275861556       -3.62585915585932       -5.46685313913246
H           -4.74268333793938       -0.55285234442022       -3.97914128515210
H           -3.27942992869778        0.50974159396330       -2.28841469788500

 Bond Distances (Angstroems)
 ---------------------------
C1-C2=1.5526         C1-O13=1.2392        C1-O14=1.2418        C2-C1=1.5526         C2-C3=1.3329         C2-H15=1.0841        
C3-C2=1.3329         C3-C4=1.4527         C3-H16=1.0847        C4-C3=1.4527         C4-C5=1.4004         C4-C12=1.3953        
C5-C4=1.4004         C5-C6=1.3782         C5-H17=1.0775        C6-C5=1.3782         C6-O7=1.3922         C6-C9=1.4016         
O7-C6=1.3922         O7-C8=1.4020         C8-O7=1.4020         C8-H18=1.0950        C8-H19=1.0950        C8-H20=1.0904        
C9-C6=1.4016         C9-O10=1.3739        C9-C11=1.3837        O10-C9=1.3739        O10-H21=0.9659       C11-C9=1.3837        
C11-C12=1.3823       C11-H22=1.0796       C12-C4=1.3953        C12-C11=1.3823       C12-H23=1.0802       O13-C1=1.2392        
O14-C1=1.2418        H15-C2=1.0841        H16-C3=1.0847        H17-C5=1.0775        H18-C8=1.0950        H19-C8=1.0950        
H20-C8=1.0904        H21-O10=0.9659       H22-C11=1.0796       H23-C12=1.0802       
 C  H  Rav=1.0858 sigma=0.0065  Rmin=1.0775  Rmax=1.0950     8
 C  C  Rav=1.4089 sigma=0.0586  Rmin=1.3329  Rmax=1.5526     9
 O  H  Rav=0.9659 sigma=0.0000  Rmin=0.9659  Rmax=0.9659     1
 O  C  Rav=1.3298 sigma=0.0735  Rmin=1.2392  Rmax=1.4020     5

 selected bond angles (degree)
 --------------------
O13-C1-C2=116.20               O14-C1-C2=114.34               O14-C1-O13=129.46              C3-C2-C1=122.29                
H15-C2-C1=114.52               H15-C2-C3=123.18               C4-C3-C2=128.05                H16-C3-C2=116.14               
H16-C3-C4=115.81               C5-C4-C3=122.05                C12-C4-C3=120.06               C12-C4-C5=117.89               
C6-C5-C4=121.03                H17-C5-C4=118.39               H17-C5-C6=120.58               O7-C6-C5=125.33                
C9-C6-C5=120.22                C9-C6-O7=114.45                C8-O7-C6=117.43                H18-C8-O7=111.55               
H19-C8-O7=111.52               H19-C8-H18=109.16              H20-C8-O7=105.84               H20-C8-H18=109.34              
H20-C8-H19=109.35              O10-C9-C6=120.21               C11-C9-C6=119.25               C11-C9-O10=120.54              
H21-O10-C9=106.38              

 selected dihedral angles (degree)
 ---------------------------------
C3-C2-C1-O13=  5.67           C3-C2-C1-O14=185.70           H15-C2-C1-O13=184.37          H15-C2-C1-O14=  4.40          
C4-C3-C2-C1=179.06            C4-C3-C2-H15=  0.47           H16-C3-C2-C1=359.34           H16-C3-C2-H15=180.75          
C5-C4-C3-C2=  4.24            C5-C4-C3-H16=183.96           C12-C4-C3-C2=184.13           C12-C4-C3-H16=  3.84          
C6-C5-C4-C3=180.01            C6-C5-C4-C12=  0.12           H17-C5-C4-C3=  0.16           H17-C5-C4-C12=180.27          
O7-C6-C5-C4=180.16            O7-C6-C5-H17=  0.00           C9-C6-C5-C4=  0.08            C9-C6-C5-H17=179.92           
C8-O7-C6-C5=  0.64            C8-O7-C6-C9=180.72            H18-C8-O7-C6=298.27           H19-C8-O7-C6= 60.62           
H20-C8-O7-C6=179.44           O10-C9-C6-C5=179.95           O10-C9-C6-O7=359.88           C11-C9-C6-C5=359.86           
C11-C9-C6-O7=179.78           H21-O10-C9-C6=  0.00          H21-O10-C9-C11=180.11         
           -------------------------------------------------
          |                Final Singlepoint                |
           -------------------------------------------------

          ...................................................
          :                      SETUP                      :
          :.................................................:
          :  # basis functions                  65          :
          :  # atomic orbitals                  65          :
          :  # shells                           37          :
          :  # electrons                        74          :
          :  max. iterations                   250          :
          :  Hamiltonian                  GFN2-xTB          :
          :  restarted?                      false          :
          :  GBSA solvation                  false          :
          :  PC potential                    false          :
          :  electronic temp.          300.0000000     K    :
          :  accuracy                    1.0000000          :
          :  -> integral cutoff          0.2500000E+02      :
          :  -> integral neglect         0.1000000E-07      :
          :  -> SCF convergence          0.1000000E-05 Eh   :
          :  -> wf. convergence          0.1000000E-03 e    :
          :  Broyden damping             0.4000000          :
          :  net charge                         -1          :
          :  unpaired electrons                  0          :
          ...................................................

 iter      E             dE          RMSdq      gap      omega  full diag
   1    -42.9962439 -0.429962E+02  0.685E-05    1.28       0.0  T
   2    -42.9962439 -0.434994E-10  0.479E-05    1.28     435.5  T
   3    -42.9962439 -0.471374E-10  0.207E-05    1.28    1009.0  T

   *** convergence criteria satisfied after 3 iterations ***

         #    Occupation            Energy/Eh            Energy/eV
      -------------------------------------------------------------
         1        2.0000           -0.6366290             -17.3236
       ...           ...                  ...                  ...
        31        2.0000           -0.3022628              -8.2250
        32        2.0000           -0.2890175              -7.8646
        33        2.0000           -0.2870082              -7.8099
        34        2.0000           -0.2472417              -6.7278
        35        2.0000           -0.2063475              -5.6150
        36        2.0000           -0.1920924              -5.2271
        37        2.0000           -0.1791037              -4.8737 (HOMO)
        38                         -0.1320332              -3.5928 (LUMO)
        39                         -0.1188001              -3.2327
        40                         -0.0542418              -1.4760
        41                          0.0227096               0.6180
        42                          0.0569916               1.5508
       ...                                ...                  ...
        65                          0.9156859              24.9171
      -------------------------------------------------------------
                  HL-Gap            0.0470704 Eh            1.2809 eV
             Fermi-level           -0.1555685 Eh           -4.2332 eV

 SCC (total)                   0 d,  0 h,  0 min,  0.005 sec
 SCC setup                      ...        0 min,  0.000 sec (  1.271%)
 Dispersion                     ...        0 min,  0.000 sec (  1.718%)
 classical contributions        ...        0 min,  0.000 sec (  0.264%)
 integral evaluation            ...        0 min,  0.001 sec ( 14.053%)
 iterations                     ...        0 min,  0.002 sec ( 40.962%)
 molecular gradient             ...        0 min,  0.002 sec ( 40.071%)
 printout                       ...        0 min,  0.000 sec (  1.379%)

         :::::::::::::::::::::::::::::::::::::::::::::::::::::
         ::                     SUMMARY                     ::
         :::::::::::::::::::::::::::::::::::::::::::::::::::::
         :: total energy             -42.474223560385 Eh    ::
         :: gradient norm              0.000639660291 Eh/a0 ::
         :: HOMO-LUMO gap              1.280852135740 eV    ::
         ::.................................................::
         :: SCC energy               -42.996266746321 Eh    ::
         :: -> isotropic ES            0.224532694850 Eh    ::
         :: -> anisotropic ES          0.006973109681 Eh    ::
         :: -> anisotropic XC          0.004891241579 Eh    ::
         :: -> dispersion             -0.020944771525 Eh    ::
         :: repulsion energy           0.522043185937 Eh    ::
         :: add. restraining           0.000000000000 Eh    ::
         :: total charge              -1.000000000000 e     ::
         :::::::::::::::::::::::::::::::::::::::::::::::::::::

           -------------------------------------------------
          |                Property Printout                |
           -------------------------------------------------

    * Orbital Energies and Occupations

         #    Occupation            Energy/Eh            Energy/eV
      -------------------------------------------------------------
         1        2.0000           -0.6366290             -17.3236
       ...           ...                  ...                  ...
        25        2.0000           -0.3567613              -9.7080
        26        2.0000           -0.3421511              -9.3104
        27        2.0000           -0.3370393              -9.1713
        28        2.0000           -0.3261572              -8.8752
        29        2.0000           -0.3207466              -8.7280
        30        2.0000           -0.3036472              -8.2627
        31        2.0000           -0.3022628              -8.2250
        32        2.0000           -0.2890175              -7.8646
        33        2.0000           -0.2870082              -7.8099
        34        2.0000           -0.2472417              -6.7278
        35        2.0000           -0.2063475              -5.6150
        36        2.0000           -0.1920924              -5.2271
        37        2.0000           -0.1791037              -4.8737 (HOMO)
        38                         -0.1320332              -3.5928 (LUMO)
        39                         -0.1188001              -3.2327
        40                         -0.0542418              -1.4760
        41                          0.0227096               0.6180
        42                          0.0569916               1.5508
        43                          0.0935625               2.5460
        44                          0.1672460               4.5510
        45                          0.1864691               5.0741
        46                          0.1979630               5.3868
        47                          0.2294362               6.2433
        48                          0.2432507               6.6192
       ...                                ...                  ...
        65                          0.9156859              24.9171
      -------------------------------------------------------------
                  HL-Gap            0.0470704 Eh            1.2809 eV
             Fermi-level           -0.1555685 Eh           -4.2332 eV

     #   Z          covCN         q      C6AA      α(0)
     1   6 C        2.685     0.366    20.797     7.463
     2   6 C        2.884    -0.069    29.704     8.935
     3   6 C        2.898    -0.049    29.214     8.862
     4   6 C        2.968     0.008    27.837     8.654
     5   6 C        2.923    -0.074    29.838     8.958
     6   6 C        2.861     0.096    25.868     8.337
     7   8 O        1.704    -0.311    19.177     5.913
     8   6 C        3.642     0.049    20.091     6.444
     9   6 C        2.846     0.110    25.574     8.288
    10   8 O        1.658    -0.414    21.112     6.203
    11   6 C        2.915    -0.063    29.569     8.917
    12   6 C        2.927    -0.052    29.294     8.876
    13   8 O        0.856    -0.587    25.791     6.809
    14   8 O        0.857    -0.590    25.867     6.819
    15   1 H        0.925     0.008     2.929     2.676
    16   1 H        0.925     0.044     2.401     2.423
    17   1 H        0.926     0.041     2.434     2.440
    18   1 H        0.924     0.037     2.494     2.470
    19   1 H        0.924     0.036     2.497     2.471
    20   1 H        0.924     0.041     2.430     2.438
    21   1 H        0.805     0.304     0.708     1.322
    22   1 H        0.926     0.034     2.530     2.487
    23   1 H        0.926     0.033     2.546     2.495

 Mol. C6AA /au·bohr⁶  :       7071.022195
 Mol. C8AA /au·bohr⁸  :     167845.995467
 Mol. α(0) /au        :        130.698582


Wiberg/Mayer (AO) data.
largest (>0.10) Wiberg bond orders for each atom

 ---------------------------------------------------------------------------
     #   Z sym  total        # sym  WBO       # sym  WBO       # sym  WBO
 ---------------------------------------------------------------------------
     1   6 C    3.948 --    13 O    1.517    14 O    1.510     2 C    0.899
     2   6 C    3.940 --     3 C    1.824    15 H    0.966     1 C    0.899
     3   6 C    3.985 --     2 C    1.824     4 C    1.108    16 H    0.957
     4   6 C    3.985 --    12 C    1.371     5 C    1.341     3 C    1.108
     5   6 C    3.986 --     6 C    1.433     4 C    1.341    17 H    0.959
     6   6 C    3.919 --     5 C    1.433     9 C    1.297     7 O    0.999
     7   8 O    2.169 --     6 C    0.999     8 C    0.992
     8   6 C    3.954 --     7 O    0.992    20 H    0.981    19 H    0.977
                            18 H    0.977
     9   6 C    3.930 --    11 C    1.392     6 C    1.297    10 O    1.046
    10   8 O    2.077 --     9 C    1.046    21 H    0.883
    11   6 C    3.986 --    12 C    1.444     9 C    1.392    22 H    0.969
    12   6 C    3.987 --    11 C    1.444     4 C    1.371    23 H    0.969
    13   8 O    1.854 --     1 C    1.517    14 O    0.244
    14   8 O    1.844 --     1 C    1.510    13 O    0.244
    15   1 H    1.000 --     2 C    0.966
    16   1 H    0.998 --     3 C    0.957
    17   1 H    0.998 --     5 C    0.959
    18   1 H    0.999 --     8 C    0.977
    19   1 H    0.999 --     8 C    0.977
    20   1 H    0.998 --     8 C    0.981
    21   1 H    0.907 --    10 O    0.883
    22   1 H    0.998 --    11 C    0.969
    23   1 H    0.999 --    12 C    0.969
 ---------------------------------------------------------------------------

Topologies differ in total number of bonds
Writing topology from bond orders to xtbtopo.mol

molecular dipole:
                 x           y           z       tot (Debye)
 q only:       -0.934      -0.263       0.348
   full:       -0.846      -0.672       0.123       2.764
molecular quadrupole (traceless):
                xx          xy          yy          xz          yz          zz
 q only:      -13.351      -8.133      16.004     -21.219      -5.791      -2.653
  q+dip:      -17.799      -9.431      20.739     -24.016      -2.097      -2.940
   full:      -18.608      -8.430      20.696     -25.553      -3.728      -2.088

           -------------------------------------------------
          |                Geometry Summary                 |
           -------------------------------------------------

      molecular mass/u    :      193.1764454
   center of mass at/Å    :       -1.3794203      -1.5997659      -2.5085047
  moments of inertia/u·Å² :        0.3581472E+03   0.1614177E+04   0.1967057E+04
rotational constants/cm⁻¹ :        0.4706900E-01   0.1044349E-01   0.8569978E-02

 * 21 selected distances

     #   Z          #   Z                                           value/Å
     2   6 C        3   6 C                                       1.3328582
     4   6 C        5   6 C                                       1.4003944
     5   6 C        6   6 C                                       1.3782206
     6   6 C        7   8 O                                       1.3921510
     7   8 O        8   6 C                                       1.4019839 (max)
     6   6 C        9   6 C                                       1.4015961
     9   6 C       10   8 O                                       1.3739146
     9   6 C       11   6 C                                       1.3836985
     4   6 C       12   6 C                                       1.3953318
    11   6 C       12   6 C                                       1.3823313
     1   6 C       13   8 O                                       1.2392422
     1   6 C       14   8 O                                       1.2417541
     2   6 C       15   1 H                                       1.0841047
     3   6 C       16   1 H                                       1.0846683
     5   6 C       17   1 H                                       1.0774835
     8   6 C       18   1 H                                       1.0950175
     8   6 C       19   1 H                                       1.0950192
     8   6 C       20   1 H                                       1.0904415
    10   8 O       21   1 H                                       0.9659315 (min)
    11   6 C       22   1 H                                       1.0795620
    12   6 C       23   1 H                                       1.0801987

 * 4 distinct bonds (by element types)

   Z      Z             #   av. dist./Å        max./Å        min./Å
   1 H    6 C           8     1.0858119     1.0950192     1.0774835
   6 C    6 C           7     1.3820615     1.4015961     1.3328582
   1 H    8 O           1     0.9659315     0.9659315     0.9659315
   6 C    8 O           5     1.3298092     1.4019839     1.2392422


optimized geometry written to: xtbopt.xyz


           -------------------------------------------------
          | TOTAL ENERGY              -42.474223560385 Eh   |
          | GRADIENT NORM               0.000639660291 Eh/α |
          | HOMO-LUMO GAP               1.280852135740 eV   |
           -------------------------------------------------

------------------------------------------------------------------------
 * finished run on 2024/12/20 at 01:54:43.608     
------------------------------------------------------------------------
 total:
 * wall-time:     0 d,  0 h,  0 min,  0.242 sec
 *  cpu-time:     0 d,  0 h,  0 min,  1.911 sec
 * ratio c/w:     7.896 speedup
 SCF:
 * wall-time:     0 d,  0 h,  0 min,  0.014 sec
 *  cpu-time:     0 d,  0 h,  0 min,  0.111 sec
 * ratio c/w:     7.910 speedup
 ANC optimizer:
 * wall-time:     0 d,  0 h,  0 min,  0.212 sec
 *  cpu-time:     0 d,  0 h,  0 min,  1.687 sec
 * ratio c/w:     7.950 speedup

