7
 energy: -25.104945604793 gnorm: 0.000783628164 xtb: 6.7.1 (edcfbbe)
O            1.13296019217959       -0.11486159317039        0.00966575590882
N            2.34861462863597        0.03978440555336        0.07183572694659
O            2.85503037501893        1.07226366728789        0.48238532251658
N            3.04362010976234       -1.00665064449762       -0.34549952140281
N            4.36677026525237       -1.04230628606002       -0.36045998583938
O            5.07584686490136       -0.11912842860080        0.00833463513076
O            4.83021756424943       -2.09826112051242       -0.77971193326057
