1
 energy: -4.060355599036 gnorm: 0.000000000000 xtb: 6.7.1 (edcfbbe)
I            1.00271000000000        0.09986000000000        0.00459000000000
