5
 energy: -20.545710538789 gnorm: 0.000265008902 xtb: 6.7.1 (edcfbbe)
O            1.33580386086924       -0.05115078810434       -0.57122570765816
P            2.65065117531438        0.08958353708605        0.05680528378259
F            2.66815926846841        1.50580563518361        0.93228458977446
F            2.66816039335066       -0.81758983881893        1.45293737299978
O            3.94554530199731       -0.05973854534639       -0.60953153889866
