      -----------------------------------------------------------      
     |                   =====================                   |     
     |                           x T B                           |     
     |                   =====================                   |     
     |                         S. Grimme                         |     
     |          Mulliken Center for Theoretical Chemistry        |     
     |                    University of Bonn                     |     
      -----------------------------------------------------------      

   * xtb version 6.7.1 (edcfbbe) compiled by 'conda@3ef47c1a292c' on 2024-11-25

   xtb is free software: you can redistribute it and/or modify it under
   the terms of the GNU Lesser General Public License as published by
   the Free Software Foundation, either version 3 of the License, or
   (at your option) any later version.
   
   xtb is distributed in the hope that it will be useful,
   but WITHOUT ANY WARRANTY; without even the implied warranty of
   MERCHANTABILITY or FITNESS FOR A PARTICULAR PURPOSE.  See the
   GNU Lesser General Public License for more details.
   
   Cite this work as:
   * C. Bannwarth, E. Caldeweyher, S. Ehlert, A. Hansen, P. Pracht,
     J. Seibert, S. Spicher, S. Grimme, WIREs Comput. Mol. Sci., 2020, 11,
     e01493. DOI: 10.1002/wcms.1493
   
   for GFN2-xTB:
   * C. Bannwarth, S. Ehlert and S. Grimme., J. Chem. Theory Comput., 2019,
     15, 1652-1671. DOI: 10.1021/acs.jctc.8b01176
   for GFN1-xTB:
   * S. Grimme, C. Bannwarth, P. Shushkov, J. Chem. Theory Comput., 2017,
     13, 1989-2009. DOI: 10.1021/acs.jctc.7b00118
   for GFN0-xTB:
   * P. Pracht, E. Caldeweyher, S. Ehlert, S. Grimme, ChemRxiv, 2019, preprint.
     DOI: 10.26434/chemrxiv.8326202.v1
   for GFN-FF:
   * S. Spicher and S. Grimme, Angew. Chem. Int. Ed., 2020, 59, 15665-15673.
     DOI: 10.1002/anie.202004239
   
   for ALPB and GBSA implicit solvation:
   * S. Ehlert, M. Stahn, S. Spicher, S. Grimme, J. Chem. Theory Comput.,
     2021, 17, 4250-4261. DOI: 10.1021/acs.jctc.1c00471
   
   for ddCOSMO and CPCM-X implicit solvation:
   * M. Stahn, S. Ehlert, S. Grimme, J. Phys. Chem. A,
     2023, XX, XXXX-XXXX. DOI: 10.1021/acs.jpca.3c04382
   
   for DFT-D4:
   * E. Caldeweyher, C. Bannwarth and S. Grimme, J. Chem. Phys., 2017,
     147, 034112. DOI: 10.1063/1.4993215
   * E. Caldeweyher, S. Ehlert, A. Hansen, H. Neugebauer, S. Spicher,
     C. Bannwarth and S. Grimme, J. Chem. Phys., 2019, 150, 154122.
     DOI: 10.1063/1.5090222
   * E. Caldeweyher, J.-M. Mewes, S. Ehlert and S. Grimme, Phys. Chem. Chem. Phys.
     2020, 22, 8499-8512. DOI: 10.1039/D0CP00502A
   
   for sTDA-xTB:
   * S. Grimme and C. Bannwarth, J. Chem. Phys., 2016, 145, 054103.
     DOI: 10.1063/1.4959605
   
   in the mass-spec context:
   * V. Asgeirsson, C. Bauer and S. Grimme, Chem. Sci., 2017, 8, 4879.
     DOI: 10.1039/c7sc00601b
   * J. Koopman and S. Grimme, ACS Omega 2019, 4, 12, 15120-15133.
     DOI: 10.1021/acsomega.9b02011
   
   for metadynamics refer to:
   * S. Grimme, J. Chem. Theory Comput., 2019, 155, 2847-2862
     DOI: 10.1021/acs.jctc.9b00143
   
   for SPH calculations refer to:
   * S. Spicher and S. Grimme, J. Chem. Theory Comput., 2021, 17, 1701-1714
     DOI: 10.1021/acs.jctc.0c01306
   
   for ONIOM refer to:
   * C. Plett, A. Katbashev, S. Ehlert, S. Grimme, M. Bursch,
     Phys. Chem. Chem. Phys., 2023, 25, 17860-17868. DOI: 10.1039/D3CP02178E
   
   for DIPRO refer to:
   * J. Kohn, N. Gildemeister, S. Grimme, D. Fazzi, A. Hansen,
     J. Chem. Phys., 2023, just accepted.
   
   for PTB refer to:
   * S. Grimme, M. Mueller, A. Hansen, J. Chem. Phys., 2023, 158, 124111.
     DOI: 10.1063/5.0137838
   
   with help from (in alphabetical order)
   P. Atkinson, C. Bannwarth, F. Bohle, G. Brandenburg, E. Caldeweyher
   M. Checinski, S. Dohm, S. Ehlert, S. Ehrlich, I. Gerasimov, C. Hölzer
   A. Katbashev, J. Kohn, J. Koopman, C. Lavigne, S. Lehtola, F. März, M. Müller,
   F. Musil, H. Neugebauer, J. Pisarek, C. Plett, P. Pracht, F. Pultar,
   J. Seibert, P. Shushkov, S. Spicher, M. Stahn, M. Steiner, T. Strunk,
   J. Stückrath, T. Rose, and J. Unsleber
   
 * started run on 2024/12/20 at 01:54:48.302     
   ID    Z sym.   atoms
    1    6 C      1, 7
    2   16 S      2, 6
    3    8 O      3, 4, 8, 9
    4    7 N      5
    5    1 H      10-15

           -------------------------------------------------
          |                Calculation Setup                |
           -------------------------------------------------

          program call               : xtb A126.xyz --opt --namespace A126 --charge -1
          calculation namespace      : A126
          coordinate file            : A126.xyz
          omp threads                :                     8


           -------------------------------------------------
          |                 G F N 2 - x T B                 |
           -------------------------------------------------

        Reference                      10.1021/acs.jctc.8b01176
      * Hamiltonian:
        H0-scaling (s, p, d)           1.850000    2.230000    2.230000
        zeta-weighting                 0.500000
      * Dispersion:
        s8                             2.700000
        a1                             0.520000
        a2                             5.000000
        s9                             5.000000
      * Repulsion:
        kExp                           1.500000    1.000000
        rExp                           1.000000
      * Coulomb:
        alpha                          2.000000
        third order                    shell-resolved
        anisotropic                    true
        a3                             3.000000
        a5                             4.000000
        cn-shift                       1.200000
        cn-exp                         4.000000
        max-rad                        5.000000


          ...................................................
          :                      SETUP                      :
          :.................................................:
          :  # basis functions                  54          :
          :  # atomic orbitals                  52          :
          :  # shells                           26          :
          :  # electrons                        56          :
          :  max. iterations                   250          :
          :  Hamiltonian                  GFN2-xTB          :
          :  restarted?                      false          :
          :  GBSA solvation                  false          :
          :  PC potential                    false          :
          :  electronic temp.          300.0000000     K    :
          :  accuracy                    1.0000000          :
          :  -> integral cutoff          0.2500000E+02      :
          :  -> integral neglect         0.1000000E-07      :
          :  -> SCF convergence          0.1000000E-05 Eh   :
          :  -> wf. convergence          0.1000000E-03 e    :
          :  Broyden damping             0.4000000          :
          :  net charge                         -1          :
          :  unpaired electrons                  0          :
          ...................................................

 iter      E             dE          RMSdq      gap      omega  full diag
   1    -33.4138570 -0.334139E+02  0.748E+00    6.48       0.0  T
   2    -33.4641937 -0.503367E-01  0.467E+00    6.86       1.0  T
   3    -33.4685533 -0.435958E-02  0.173E+00    6.31       1.0  T
   4    -33.4721989 -0.364563E-02  0.604E-01    6.43       1.0  T
   5    -33.4726206 -0.421643E-03  0.249E-01    6.43       1.0  T
   6    -33.4727261 -0.105491E-03  0.113E-01    6.46       1.0  T
   7    -33.4727528 -0.267963E-04  0.438E-02    6.46       1.0  T
   8    -33.4727573 -0.450030E-05  0.122E-02    6.46       2.1  T
   9    -33.4727576 -0.211357E-06  0.493E-03    6.46       5.2  T
  10    -33.4727576 -0.600656E-08  0.138E-03    6.46      18.7  T
  11    -33.4727576 -0.268362E-08  0.539E-04    6.46      47.9  T
  12    -33.4727576 -0.468248E-09  0.128E-04    6.46     201.2  T

   *** convergence criteria satisfied after 12 iterations ***

         #    Occupation            Energy/Eh            Energy/eV
      -------------------------------------------------------------
         1        2.0000           -0.6113792             -16.6365
       ...           ...                  ...                  ...
        22        2.0000           -0.2831823              -7.7058
        23        2.0000           -0.2754444              -7.4952
        24        2.0000           -0.2715252              -7.3886
        25        2.0000           -0.2649826              -7.2105
        26        2.0000           -0.2601027              -7.0778
        27        2.0000           -0.2461769              -6.6988
        28        2.0000           -0.2308569              -6.2819 (HOMO)
        29                          0.0066452               0.1808 (LUMO)
        30                          0.0226493               0.6163
        31                          0.0936048               2.5471
        32                          0.1031337               2.8064
        33                          0.1329971               3.6190
       ...                                ...                  ...
        52                          1.3241510              36.0320
      -------------------------------------------------------------
                  HL-Gap            0.2375021 Eh            6.4628 eV
             Fermi-level           -0.1121058 Eh           -3.0506 eV

 SCC (total)                   0 d,  0 h,  0 min,  0.010 sec
 SCC setup                      ...        0 min,  0.000 sec (  0.888%)
 Dispersion                     ...        0 min,  0.000 sec (  0.756%)
 classical contributions        ...        0 min,  0.000 sec (  0.351%)
 integral evaluation            ...        0 min,  0.002 sec ( 18.761%)
 iterations                     ...        0 min,  0.006 sec ( 63.499%)
 molecular gradient             ...        0 min,  0.002 sec ( 14.935%)
 printout                       ...        0 min,  0.000 sec (  0.662%)

         :::::::::::::::::::::::::::::::::::::::::::::::::::::
         ::                     SUMMARY                     ::
         :::::::::::::::::::::::::::::::::::::::::::::::::::::
         :: total energy             -33.249129388853 Eh    ::
         :: gradient norm              0.062553258363 Eh/a0 ::
         :: HOMO-LUMO gap              6.462760303800 eV    ::
         ::.................................................::
         :: SCC energy               -33.472723039085 Eh    ::
         :: -> isotropic ES            0.236009295657 Eh    ::
         :: -> anisotropic ES         -0.024299131954 Eh    ::
         :: -> anisotropic XC          0.003518749980 Eh    ::
         :: -> dispersion             -0.016606133789 Eh    ::
         :: repulsion energy           0.223593650232 Eh    ::
         :: add. restraining           0.000000000000 Eh    ::
         :: total charge              -1.000000000000 e     ::
         :::::::::::::::::::::::::::::::::::::::::::::::::::::

      ----------------------------------------------------------- 
     |                   =====================                   |
     |                        A N C O P T                        |
     |                   =====================                   |
     |               Approximate Normal Coordinate               |
     |                Rational Function Optimizer                |
      ----------------------------------------------------------- 
      ----------------------------------------------------------- 
     |                   =====================                   |
     |                        A N C O P T                        |
     |                   =====================                   |
     |               Approximate Normal Coordinate               |
     |                Rational Function Optimizer                |
      ----------------------------------------------------------- 

          ...................................................
          :                      SETUP                      :
          :.................................................:
          :   optimization level            normal          :
          :   max. optcycles                   200          :
          :   ANC micro-cycles                  20          :
          :   degrees of freedom                39          :
          :.................................................:
          :   RF solver                   davidson          :
          :   write xtbopt.log                true          :
          :   linear?                        false          :
          :   energy convergence         0.5000000E-05 Eh   :
          :   grad. convergence          0.1000000E-02 Eh/α :
          :   maxmium RF displ.          1.0000000          :
          :   Hlow (freq-cutoff)         0.1000000E-01      :
          :   Hmax (freq-cutoff)         5.0000000          :
          :   S6 in model hess.         20.0000000          :
          ...................................................

generating ANC from exact Hessian ...
Using Lindh-Hessian (1995)
 Shifting diagonal of input Hessian by    4.7462010271263908E-003
 Lowest  eigenvalues of input Hessian
    0.000000    0.000000    0.000000    0.000000    0.000000    0.000000
    0.010000    0.012022    0.017626    0.023085    0.028865    0.046221
    0.051656    0.055881    0.062654    0.063243    0.071997    0.082585
 Highest eigenvalues
    1.419636    1.704755    2.775315    3.049582    3.241403    3.337394


........................................................................
.............................. CYCLE    1 ..............................
........................................................................

 iter      E             dE          RMSdq      gap      omega  full diag
   1    -33.4727576 -0.334728E+02  0.534E-05    6.46       0.0  T
   2    -33.4727576 -0.201084E-11  0.275E-05    6.46     937.6  T
   3    -33.4727576 -0.383693E-12  0.145E-05    6.46    1774.9  T
     SCC iter.                  ...        0 min,  0.002 sec
     gradient                   ...        0 min,  0.001 sec
 * total energy  :   -33.2491294 Eh     change       -0.1289635E-10 Eh
   gradient norm :     0.0625534 Eh/α   predicted     0.0000000E+00 (-100.00%)
   displ. norm   :     0.2184351 α      lambda       -0.8249038E-02
   maximum displ.:     0.0945808 α      in ANC's #11, #10, #20, ...

........................................................................
.............................. CYCLE    2 ..............................
........................................................................

 iter      E             dE          RMSdq      gap      omega  full diag
   1    -33.4835214 -0.334835E+02  0.300E-01    6.91       0.0  T
   2    -33.4835756 -0.541981E-04  0.148E-01    6.89       1.0  T
   3    -33.4835807 -0.518494E-05  0.581E-02    6.91       1.0  T
   4    -33.4835836 -0.289395E-05  0.264E-02    6.90       1.0  T
   5    -33.4835839 -0.248312E-06  0.358E-03    6.90       7.2  T
   6    -33.4835839 -0.855043E-08  0.177E-03    6.90      14.6  T
   7    -33.4835839 -0.120606E-08  0.571E-04    6.90      45.2  T
   8    -33.4835839 -0.382919E-09  0.263E-04    6.90      98.3  T
     SCC iter.                  ...        0 min,  0.003 sec
     gradient                   ...        0 min,  0.001 sec
 * total energy  :   -33.2551912 Eh     change       -0.6061786E-02 Eh
   gradient norm :     0.0345496 Eh/α   predicted    -0.4321318E-02 ( -28.71%)
   displ. norm   :     0.1911038 α      lambda       -0.3662402E-02
   maximum displ.:     0.0786717 α      in ANC's #11, #20, #9, ...

........................................................................
.............................. CYCLE    3 ..............................
........................................................................

 iter      E             dE          RMSdq      gap      omega  full diag
   1    -33.4897872 -0.334898E+02  0.272E-01    7.16       0.0  T
   2    -33.4898261 -0.388550E-04  0.130E-01    7.14       1.0  T
   3    -33.4898297 -0.354940E-05  0.461E-02    7.16       1.0  T
   4    -33.4898314 -0.178814E-05  0.222E-02    7.15       1.2  T
   5    -33.4898316 -0.188177E-06  0.362E-03    7.16       7.1  T
   6    -33.4898316 -0.130288E-07  0.144E-03    7.16      17.9  T
   7    -33.4898316 -0.111748E-08  0.572E-04    7.16      45.1  T
   8    -33.4898316 -0.411063E-09  0.239E-04    7.16     108.0  T
     SCC iter.                  ...        0 min,  0.003 sec
     gradient                   ...        0 min,  0.001 sec
 * total energy  :   -33.2572204 Eh     change       -0.2029206E-02 Eh
   gradient norm :     0.0131896 Eh/α   predicted    -0.1898076E-02 (  -6.46%)
   displ. norm   :     0.0433917 α      lambda       -0.1624362E-03
   maximum displ.:     0.0205128 α      in ANC's #1, #9, #5, ...

........................................................................
.............................. CYCLE    4 ..............................
........................................................................

 iter      E             dE          RMSdq      gap      omega  full diag
   1    -33.4909128 -0.334909E+02  0.513E-02    7.16       0.0  T
   2    -33.4909148 -0.197337E-05  0.267E-02    7.16       1.0  T
   3    -33.4909149 -0.165015E-06  0.752E-03    7.16       3.4  T
   4    -33.4909150 -0.691362E-07  0.371E-03    7.16       7.0  T
   5    -33.4909150 -0.336059E-08  0.745E-04    7.16      34.7  T
   6    -33.4909150 -0.635715E-09  0.247E-04    7.16     104.5  T
     SCC iter.                  ...        0 min,  0.003 sec
     gradient                   ...        0 min,  0.001 sec
 * total energy  :   -33.2573378 Eh     change       -0.1174090E-03 Eh
   gradient norm :     0.0077429 Eh/α   predicted    -0.8137001E-04 ( -30.70%)
   displ. norm   :     0.0593114 α      lambda       -0.1111111E-03
   maximum displ.:     0.0411921 α      in ANC's #1, #5, #4, ...

........................................................................
.............................. CYCLE    5 ..............................
........................................................................

 iter      E             dE          RMSdq      gap      omega  full diag
   1    -33.4918459 -0.334918E+02  0.507E-02    7.16       0.0  T
   2    -33.4918486 -0.275269E-05  0.297E-02    7.16       1.0  T
   3    -33.4918488 -0.238747E-06  0.108E-02    7.16       2.4  T
   4    -33.4918489 -0.736702E-07  0.469E-03    7.16       5.5  T
   5    -33.4918489 -0.485226E-08  0.816E-04    7.16      31.6  T
   6    -33.4918489 -0.656954E-09  0.320E-04    7.16      80.8  T
     SCC iter.                  ...        0 min,  0.003 sec
     gradient                   ...        0 min,  0.001 sec
 * total energy  :   -33.2574083 Eh     change       -0.7048689E-04 Eh
   gradient norm :     0.0025837 Eh/α   predicted    -0.5574941E-04 ( -20.91%)
   displ. norm   :     0.0461906 α      lambda       -0.3112709E-04
   maximum displ.:     0.0388634 α      in ANC's #1, #5, #4, ...

........................................................................
.............................. CYCLE    6 ..............................
........................................................................

 iter      E             dE          RMSdq      gap      omega  full diag
   1    -33.4919801 -0.334920E+02  0.259E-02    7.16       0.0  T
   2    -33.4919807 -0.540213E-06  0.145E-02    7.15       1.8  T
   3    -33.4919807 -0.464799E-07  0.574E-03    7.16       4.5  T
   4    -33.4919807 -0.148257E-07  0.230E-03    7.16      11.2  T
   5    -33.4919807 -0.170178E-08  0.428E-04    7.16      60.3  T
   6    -33.4919807 -0.139650E-09  0.164E-04    7.16     157.7  T
     SCC iter.                  ...        0 min,  0.003 sec
     gradient                   ...        0 min,  0.001 sec
 * total energy  :   -33.2574310 Eh     change       -0.2270908E-04 Eh
   gradient norm :     0.0021738 Eh/α   predicted    -0.1559642E-04 ( -31.32%)
   displ. norm   :     0.0561219 α      lambda       -0.2355429E-04
   maximum displ.:     0.0493488 α      in ANC's #1, #5, #4, ...

........................................................................
.............................. CYCLE    7 ..............................
........................................................................

 iter      E             dE          RMSdq      gap      omega  full diag
   1    -33.4918006 -0.334918E+02  0.266E-02    7.14       0.0  T
   2    -33.4918008 -0.267311E-06  0.139E-02    7.14       1.9  T
   3    -33.4918009 -0.316947E-07  0.416E-03    7.14       6.2  T
   4    -33.4918009 -0.699313E-08  0.192E-03    7.14      13.4  T
   5    -33.4918009 -0.126536E-08  0.330E-04    7.14      78.2  T
   6    -33.4918009 -0.125461E-09  0.134E-04    7.14     193.3  T
     SCC iter.                  ...        0 min,  0.003 sec
     gradient                   ...        0 min,  0.001 sec
 * total energy  :   -33.2574491 Eh     change       -0.1814614E-04 Eh
   gradient norm :     0.0022411 Eh/α   predicted    -0.1181298E-04 ( -34.90%)
   displ. norm   :     0.0637400 α      lambda       -0.2082649E-04
   maximum displ.:     0.0559508 α      in ANC's #1, #5, #4, ...

........................................................................
.............................. CYCLE    8 ..............................
........................................................................

 iter      E             dE          RMSdq      gap      omega  full diag
   1    -33.4915035 -0.334915E+02  0.287E-02    7.14       0.0  T
   2    -33.4915038 -0.231316E-06  0.152E-02    7.14       1.7  T
   3    -33.4915038 -0.344169E-07  0.378E-03    7.14       6.8  T
   4    -33.4915038 -0.923377E-08  0.190E-03    7.14      13.6  T
   5    -33.4915038 -0.158267E-08  0.256E-04    7.14     100.9  T
   6    -33.4915038 -0.766676E-10  0.101E-04    7.14     255.6  T
     SCC iter.                  ...        0 min,  0.003 sec
     gradient                   ...        0 min,  0.001 sec
 * total energy  :   -33.2574669 Eh     change       -0.1775372E-04 Eh
   gradient norm :     0.0022548 Eh/α   predicted    -0.1045637E-04 ( -41.10%)
   displ. norm   :     0.0842889 α      lambda       -0.2673102E-04
   maximum displ.:     0.0721300 α      in ANC's #1, #3, #5, ...

........................................................................
.............................. CYCLE    9 ..............................
........................................................................

 iter      E             dE          RMSdq      gap      omega  full diag
   1    -33.4911679 -0.334912E+02  0.368E-02    7.13       0.0  T
   2    -33.4911683 -0.415840E-06  0.197E-02    7.13       1.3  T
   3    -33.4911684 -0.598018E-07  0.492E-03    7.13       5.3  T
   4    -33.4911684 -0.195334E-07  0.251E-03    7.13      10.3  T
   5    -33.4911684 -0.281225E-08  0.308E-04    7.13      83.7  T
   6    -33.4911684 -0.797087E-10  0.105E-04    7.13     246.8  T
     SCC iter.                  ...        0 min,  0.003 sec
     gradient                   ...        0 min,  0.001 sec
 * total energy  :   -33.2574911 Eh     change       -0.2426401E-04 Eh
   gradient norm :     0.0027501 Eh/α   predicted    -0.1346047E-04 ( -44.52%)
   displ. norm   :     0.1374802 α      lambda       -0.4461818E-04
   maximum displ.:     0.1151702 α      in ANC's #1, #3, #5, ...

........................................................................
.............................. CYCLE   10 ..............................
........................................................................

 iter      E             dE          RMSdq      gap      omega  full diag
   1    -33.4906949 -0.334907E+02  0.580E-02    7.13       0.0  T
   2    -33.4906959 -0.104930E-05  0.307E-02    7.13       1.0  T
   3    -33.4906961 -0.161834E-06  0.784E-03    7.13       3.3  T
   4    -33.4906961 -0.377194E-07  0.382E-03    7.13       6.8  T
   5    -33.4906961 -0.707411E-08  0.519E-04    7.13      49.8  T
   6    -33.4906961 -0.253195E-09  0.166E-04    7.13     155.7  T
     SCC iter.                  ...        0 min,  0.003 sec
     gradient                   ...        0 min,  0.001 sec
 * total energy  :   -33.2575326 Eh     change       -0.4140676E-04 Eh
   gradient norm :     0.0041010 Eh/α   predicted    -0.2273035E-04 ( -45.10%)
   displ. norm   :     0.2352161 α      lambda       -0.7850744E-04
   maximum displ.:     0.1955588 α      in ANC's #1, #3, #5, ...

........................................................................
.............................. CYCLE   11 ..............................
........................................................................

 iter      E             dE          RMSdq      gap      omega  full diag
   1    -33.4897090 -0.334897E+02  0.960E-02    7.12       0.0  T
   2    -33.4897118 -0.281791E-05  0.504E-02    7.12       1.0  T
   3    -33.4897123 -0.477501E-06  0.130E-02    7.12       2.0  T
   4    -33.4897123 -0.732299E-07  0.600E-03    7.12       4.3  T
   5    -33.4897124 -0.180149E-07  0.877E-04    7.12      29.4  T
   6    -33.4897124 -0.974694E-09  0.279E-04    7.12      92.5  T
     SCC iter.                  ...        0 min,  0.003 sec
     gradient                   ...        0 min,  0.001 sec
 * total energy  :   -33.2576033 Eh     change       -0.7078699E-04 Eh
   gradient norm :     0.0066282 Eh/α   predicted    -0.4142348E-04 ( -41.48%)
   displ. norm   :     0.2943640 α      lambda       -0.1034029E-03
   maximum displ.:     0.2460305 α      in ANC's #1, #3, #5, ...

........................................................................
.............................. CYCLE   12 ..............................
........................................................................

 iter      E             dE          RMSdq      gap      omega  full diag
   1    -33.4882877 -0.334883E+02  0.117E-01    7.10       0.0  T
   2    -33.4882919 -0.417784E-05  0.612E-02    7.10       1.0  T
   3    -33.4882926 -0.760352E-06  0.158E-02    7.10       1.6  T
   4    -33.4882927 -0.788833E-07  0.698E-03    7.10       3.7  T
   5    -33.4882927 -0.229191E-07  0.111E-03    7.10      23.2  T
   6    -33.4882927 -0.214409E-08  0.359E-04    7.10      71.9  T
   7    -33.4882927 -0.514575E-10  0.154E-04    7.10     167.8  T
     SCC iter.                  ...        0 min,  0.003 sec
     gradient                   ...        0 min,  0.002 sec
 * total energy  :   -33.2576886 Eh     change       -0.8525137E-04 Eh
   gradient norm :     0.0097298 Eh/α   predicted    -0.5618982E-04 ( -34.09%)
   displ. norm   :     0.3000308 α      lambda       -0.1272580E-03
   maximum displ.:     0.2560384 α      in ANC's #1, #3, #5, ...

........................................................................
.............................. CYCLE   13 ..............................
........................................................................

 iter      E             dE          RMSdq      gap      omega  full diag
   1    -33.4873514 -0.334874E+02  0.118E-01    7.08       0.0  T
   2    -33.4873556 -0.427894E-05  0.610E-02    7.08       1.0  T
   3    -33.4873564 -0.792318E-06  0.160E-02    7.08       1.6  T
   4    -33.4873565 -0.643641E-07  0.687E-03    7.08       3.8  T
   5    -33.4873565 -0.198920E-07  0.128E-03    7.08      20.2  T
   6    -33.4873565 -0.377894E-08  0.398E-04    7.08      64.8  T
   7    -33.4873565 -0.759002E-10  0.174E-04    7.08     148.7  T
     SCC iter.                  ...        0 min,  0.003 sec
     gradient                   ...        0 min,  0.001 sec
 * total energy  :   -33.2577908 Eh     change       -0.1021623E-03 Eh
   gradient norm :     0.0118624 Eh/α   predicted    -0.6935889E-04 ( -32.11%)
   displ. norm   :     0.3775928 α      lambda       -0.2339769E-03
   maximum displ.:     0.3307401 α      in ANC's #1, #3, #5, ...

........................................................................
.............................. CYCLE   14 ..............................
........................................................................

 iter      E             dE          RMSdq      gap      omega  full diag
   1    -33.4876676 -0.334877E+02  0.147E-01    7.05       0.0  T
   2    -33.4876748 -0.724736E-05  0.759E-02    7.05       1.0  T
   3    -33.4876760 -0.124057E-05  0.208E-02    7.05       1.2  T
   4    -33.4876762 -0.131248E-06  0.902E-03    7.06       2.9  T
   5    -33.4876762 -0.339032E-07  0.200E-03    7.06      12.9  T
   6    -33.4876762 -0.842857E-08  0.557E-04    7.06      46.3  T
   7    -33.4876762 -0.160547E-09  0.231E-04    7.06     111.7  T
     SCC iter.                  ...        0 min,  0.003 sec
     gradient                   ...        0 min,  0.001 sec
 * total energy  :   -33.2579708 Eh     change       -0.1800169E-03 Eh
   gradient norm :     0.0120060 Eh/α   predicted    -0.1336738E-03 ( -25.74%)
   displ. norm   :     0.3081789 α      lambda       -0.3041629E-03
   maximum displ.:     0.2728619 α      in ANC's #1, #3, #5, ...

........................................................................
.............................. CYCLE   15 ..............................
........................................................................

 iter      E             dE          RMSdq      gap      omega  full diag
   1    -33.4912245 -0.334912E+02  0.123E-01    7.07       0.0  T
   2    -33.4912318 -0.739318E-05  0.647E-02    7.07       1.0  T
   3    -33.4912327 -0.843118E-06  0.198E-02    7.07       1.3  T
   4    -33.4912329 -0.243274E-06  0.854E-03    7.07       3.0  T
   5    -33.4912330 -0.190182E-07  0.188E-03    7.07      13.7  T
   6    -33.4912330 -0.424777E-08  0.564E-04    7.07      45.8  T
   7    -33.4912330 -0.248747E-09  0.288E-04    7.07      89.6  T
     SCC iter.                  ...        0 min,  0.003 sec
     gradient                   ...        0 min,  0.001 sec
 * total energy  :   -33.2581883 Eh     change       -0.2175680E-03 Eh
   gradient norm :     0.0077821 Eh/α   predicted    -0.1665251E-03 ( -23.46%)
   displ. norm   :     0.6382925 α      lambda       -0.3440281E-03
   maximum displ.:     0.5528530 α      in ANC's #1, #3, #5, ...

........................................................................
.............................. CYCLE   16 ..............................
........................................................................

 iter      E             dE          RMSdq      gap      omega  full diag
   1    -33.4853686 -0.334854E+02  0.256E-01    6.97       0.0  T
   2    -33.4853926 -0.239568E-04  0.134E-01    6.98       1.0  T
   3    -33.4853969 -0.432904E-05  0.358E-02    6.98       1.0  T
   4    -33.4853972 -0.279431E-06  0.157E-02    6.99       1.6  T
   5    -33.4853972 -0.664798E-07  0.311E-03    6.98       8.3  T
   6    -33.4853973 -0.166465E-07  0.107E-03    6.98      24.2  T
   7    -33.4853973 -0.787246E-09  0.454E-04    6.98      56.8  T
   8    -33.4853973 -0.196778E-09  0.171E-04    6.98     150.6  T
     SCC iter.                  ...        0 min,  0.003 sec
     gradient                   ...        0 min,  0.001 sec
 * total energy  :   -33.2582248 Eh     change       -0.3644361E-04 Eh
   gradient norm :     0.0144691 Eh/α   predicted    -0.2421226E-03 ( 564.38%)
   displ. norm   :     0.1348263 α      lambda       -0.5256289E-03
   maximum displ.:     0.0958882 α      in ANC's #1, #3, #5, ...

........................................................................
.............................. CYCLE   17 ..............................
........................................................................

 iter      E             dE          RMSdq      gap      omega  full diag
   1    -33.4931884 -0.334932E+02  0.812E-02    7.11       0.0  T
   2    -33.4931946 -0.627672E-05  0.443E-02    7.11       1.0  T
   3    -33.4931952 -0.559981E-06  0.191E-02    7.11       1.4  T
   4    -33.4931954 -0.214350E-06  0.502E-03    7.10       5.1  T
   5    -33.4931954 -0.925804E-08  0.143E-03    7.10      18.0  T
   6    -33.4931954 -0.804754E-09  0.577E-04    7.10      44.7  T
   7    -33.4931954 -0.428180E-09  0.250E-04    7.10     103.3  T
     SCC iter.                  ...        0 min,  0.003 sec
     gradient                   ...        0 min,  0.001 sec
 * total energy  :   -33.2584822 Eh     change       -0.2574256E-03 Eh
   gradient norm :     0.0069983 Eh/α   predicted    -0.2675942E-03 (   3.95%)
   displ. norm   :     0.2369763 α      lambda       -0.1513350E-03
   maximum displ.:     0.2171536 α      in ANC's #1, #4, #8, ...

........................................................................
.............................. CYCLE   18 ..............................
........................................................................

 iter      E             dE          RMSdq      gap      omega  full diag
   1    -33.4929067 -0.334929E+02  0.985E-02    7.08       0.0  T
   2    -33.4929110 -0.428826E-05  0.512E-02    7.09       1.0  T
   3    -33.4929116 -0.608438E-06  0.150E-02    7.08       1.7  T
   4    -33.4929117 -0.123422E-06  0.723E-03    7.09       3.6  T
   5    -33.4929117 -0.108772E-07  0.141E-03    7.08      18.3  T
   6    -33.4929117 -0.397350E-08  0.350E-04    7.09      73.9  T
   7    -33.4929117 -0.475424E-10  0.113E-04    7.08     227.7  T
     SCC iter.                  ...        0 min,  0.003 sec
     gradient                   ...        0 min,  0.001 sec
 * total energy  :   -33.2586035 Eh     change       -0.1212757E-03 Eh
   gradient norm :     0.0064798 Eh/α   predicted    -0.7991702E-04 ( -34.10%)
   displ. norm   :     0.5055157 α      lambda       -0.2765498E-03
   maximum displ.:     0.4517257 α      in ANC's #1, #4, #3, ...

........................................................................
.............................. CYCLE   19 ..............................
........................................................................

 iter      E             dE          RMSdq      gap      omega  full diag
   1    -33.4897297 -0.334897E+02  0.208E-01    7.02       0.0  T
   2    -33.4897477 -0.180303E-04  0.107E-01    7.02       1.0  T
   3    -33.4897504 -0.265568E-05  0.311E-02    7.02       1.0  T
   4    -33.4897508 -0.429250E-06  0.148E-02    7.02       1.7  T
   5    -33.4897509 -0.472178E-07  0.211E-03    7.02      12.2  T
   6    -33.4897509 -0.989798E-08  0.708E-04    7.02      36.5  T
   7    -33.4897509 -0.186184E-09  0.274E-04    7.02      94.3  T
     SCC iter.                  ...        0 min,  0.003 sec
     gradient                   ...        0 min,  0.001 sec
 * total energy  :   -33.2587607 Eh     change       -0.1571913E-03 Eh
   gradient norm :     0.0077595 Eh/α   predicted    -0.1736190E-03 (  10.45%)
   displ. norm   :     0.1013302 α      lambda       -0.1728832E-03
   maximum displ.:     0.0629246 α      in ANC's #1, #2, #11, ...

........................................................................
.............................. CYCLE   20 ..............................
........................................................................

 iter      E             dE          RMSdq      gap      omega  full diag
   1    -33.4913825 -0.334914E+02  0.650E-02    7.07       0.0  T
   2    -33.4913842 -0.166057E-05  0.349E-02    7.06       1.0  T
   3    -33.4913844 -0.200953E-06  0.808E-03    7.06       3.2  T
   4    -33.4913845 -0.967312E-07  0.472E-03    7.06       5.5  T
   5    -33.4913845 -0.111831E-07  0.102E-03    7.06      25.2  T
   6    -33.4913845 -0.933561E-09  0.315E-04    7.06      82.0  T
   7    -33.4913845 -0.805258E-10  0.157E-04    7.06     164.9  T
     SCC iter.                  ...        0 min,  0.003 sec
     gradient                   ...        0 min,  0.001 sec
 * total energy  :   -33.2588826 Eh     change       -0.1218833E-03 Eh
   gradient norm :     0.0053781 Eh/α   predicted    -0.8732955E-04 ( -28.35%)
   displ. norm   :     0.3133979 α      lambda       -0.1680478E-03
   maximum displ.:     0.2650323 α      in ANC's #1, #2, #4, ...
 * RMSD in coord.:     0.9133465 α      energy gain  -0.9753172E-02 Eh

generating ANC from exact Hessian ...
Using Lindh-Hessian (1995)
 Shifting diagonal of input Hessian by    6.0108422171153524E-003
 Lowest  eigenvalues of input Hessian
    0.000000    0.000000    0.000000    0.000000    0.000000    0.000000
    0.010000    0.011782    0.018028    0.020474    0.027177    0.043467
    0.048191    0.050656    0.056425    0.059291    0.069276    0.075330
 Highest eigenvalues
    1.474704    1.811193    2.720197    2.973010    3.267176    3.378743


........................................................................
.............................. CYCLE   21 ..............................
........................................................................

 iter      E             dE          RMSdq      gap      omega  full diag
   1    -33.4909003 -0.334909E+02  0.137E-01    7.06       0.0  T
   2    -33.4909071 -0.674513E-05  0.690E-02    7.06       1.0  T
   3    -33.4909081 -0.100895E-05  0.194E-02    7.05       1.3  T
   4    -33.4909082 -0.129366E-06  0.889E-03    7.05       2.9  T
   5    -33.4909082 -0.211937E-07  0.117E-03    7.05      22.2  T
   6    -33.4909082 -0.183407E-08  0.592E-04    7.05      43.6  T
   7    -33.4909082 -0.228916E-09  0.200E-04    7.05     128.8  T
     SCC iter.                  ...        0 min,  0.003 sec
     gradient                   ...        0 min,  0.001 sec
 * total energy  :   -33.2590098 Eh     change       -0.1271983E-03 Eh
   gradient norm :     0.0060401 Eh/α   predicted     0.0000000E+00 (-100.00%)
   displ. norm   :     0.0425356 α      lambda       -0.8045418E-04
   maximum displ.:     0.0319535 α      in ANC's #2, #4, #5, ...

........................................................................
.............................. CYCLE   22 ..............................
........................................................................

 iter      E             dE          RMSdq      gap      omega  full diag
   1    -33.4918347 -0.334918E+02  0.241E-02    7.07       0.0  T
   2    -33.4918350 -0.232118E-06  0.124E-02    7.07       2.1  T
   3    -33.4918350 -0.288101E-07  0.373E-03    7.07       6.9  T
   4    -33.4918350 -0.688521E-08  0.137E-03    7.07      18.9  T
   5    -33.4918350 -0.171147E-08  0.417E-04    7.07      61.9  T
   6    -33.4918350 -0.111349E-09  0.130E-04    7.07     198.1  T
     SCC iter.                  ...        0 min,  0.003 sec
     gradient                   ...        0 min,  0.001 sec
 * total energy  :   -33.2590811 Eh     change       -0.7133592E-04 Eh
   gradient norm :     0.0045279 Eh/α   predicted    -0.4029870E-04 ( -43.51%)
   displ. norm   :     0.2067998 α      lambda       -0.3008390E-03
   maximum displ.:     0.1578111 α      in ANC's #2, #4, #5, ...

........................................................................
.............................. CYCLE   23 ..............................
........................................................................

 iter      E             dE          RMSdq      gap      omega  full diag
   1    -33.4942849 -0.334943E+02  0.109E-01    7.11       0.0  T
   2    -33.4942892 -0.422814E-05  0.546E-02    7.12       1.0  T
   3    -33.4942897 -0.562287E-06  0.164E-02    7.11       1.6  T
   4    -33.4942898 -0.105873E-06  0.611E-03    7.12       4.2  T
   5    -33.4942899 -0.347880E-07  0.176E-03    7.12      14.6  T
   6    -33.4942899 -0.168328E-08  0.532E-04    7.12      48.5  T
   7    -33.4942899 -0.204601E-09  0.265E-04    7.12      97.6  T
     SCC iter.                  ...        0 min,  0.003 sec
     gradient                   ...        0 min,  0.001 sec
 * total energy  :   -33.2592850 Eh     change       -0.2038774E-03 Eh
   gradient norm :     0.0047470 Eh/α   predicted    -0.1568533E-03 ( -23.06%)
   displ. norm   :     0.2079194 α      lambda       -0.1780636E-03
   maximum displ.:     0.1598224 α      in ANC's #2, #5, #4, ...

........................................................................
.............................. CYCLE   24 ..............................
........................................................................

 iter      E             dE          RMSdq      gap      omega  full diag
   1    -33.4949548 -0.334950E+02  0.103E-01    7.13       0.0  T
   2    -33.4949581 -0.334552E-05  0.503E-02    7.13       1.0  T
   3    -33.4949587 -0.505648E-06  0.152E-02    7.13       1.7  T
   4    -33.4949587 -0.880374E-07  0.599E-03    7.13       4.3  T
   5    -33.4949588 -0.285830E-07  0.145E-03    7.13      17.8  T
   6    -33.4949588 -0.108027E-08  0.466E-04    7.13      55.4  T
   7    -33.4949588 -0.136581E-09  0.236E-04    7.13     109.3  T
     SCC iter.                  ...        0 min,  0.003 sec
     gradient                   ...        0 min,  0.001 sec
 * total energy  :   -33.2594429 Eh     change       -0.1579187E-03 Eh
   gradient norm :     0.0067526 Eh/α   predicted    -0.9288014E-04 ( -41.18%)
   displ. norm   :     0.5811279 α      lambda       -0.5222752E-03
   maximum displ.:     0.4400281 α      in ANC's #2, #5, #4, ...

........................................................................
.............................. CYCLE   25 ..............................
........................................................................

 iter      E             dE          RMSdq      gap      omega  full diag
   1    -33.4925114 -0.334925E+02  0.290E-01    7.09       0.0  T
   2    -33.4925383 -0.268774E-04  0.139E-01    7.10       1.0  T
   3    -33.4925425 -0.421460E-05  0.428E-02    7.09       1.0  T
   4    -33.4925431 -0.596089E-06  0.169E-02    7.10       1.5  T
   5    -33.4925433 -0.194534E-06  0.388E-03    7.09       6.7  T
   6    -33.4925433 -0.792062E-08  0.128E-03    7.10      20.2  T
   7    -33.4925433 -0.101772E-08  0.640E-04    7.10      40.4  T
   8    -33.4925433 -0.212559E-09  0.153E-04    7.10     169.1  T
     SCC iter.                  ...        0 min,  0.003 sec
     gradient                   ...        0 min,  0.001 sec
 * total energy  :   -33.2599213 Eh     change       -0.4784088E-03 Eh
   gradient norm :     0.0116806 Eh/α   predicted    -0.3493003E-03 ( -26.99%)
   displ. norm   :     0.7388883 α      lambda       -0.7539665E-03
   maximum displ.:     0.5503201 α      in ANC's #2, #5, #1, ...

........................................................................
.............................. CYCLE   26 ..............................
........................................................................

 iter      E             dE          RMSdq      gap      omega  full diag
   1    -33.4831958 -0.334832E+02  0.378E-01    6.91       0.0  T
   2    -33.4832531 -0.572589E-04  0.180E-01    6.92       1.0  T
   3    -33.4832609 -0.781530E-05  0.590E-02    6.92       1.0  T
   4    -33.4832622 -0.132936E-05  0.235E-02    6.92       1.1  T
   5    -33.4832625 -0.309190E-06  0.537E-03    6.92       4.8  T
   6    -33.4832625 -0.164944E-07  0.180E-03    6.92      14.4  T
   7    -33.4832625 -0.202542E-08  0.878E-04    6.92      29.4  T
   8    -33.4832625 -0.338851E-09  0.242E-04    6.92     106.6  T
     SCC iter.                  ...        0 min,  0.004 sec
     gradient                   ...        0 min,  0.001 sec
 * total energy  :   -33.2602263 Eh     change       -0.3049726E-03 Eh
   gradient norm :     0.0274575 Eh/α   predicted    -0.5828240E-03 (  91.11%)
   displ. norm   :     0.1257722 α      lambda       -0.8683743E-03
   maximum displ.:     0.0753535 α      in ANC's #2, #7, #4, ...

........................................................................
.............................. CYCLE   27 ..............................
........................................................................

 iter      E             dE          RMSdq      gap      omega  full diag
   1    -33.4889122 -0.334889E+02  0.105E-01    7.03       0.0  T
   2    -33.4889179 -0.573348E-05  0.521E-02    7.03       1.0  T
   3    -33.4889184 -0.518439E-06  0.149E-02    7.03       1.7  T
   4    -33.4889187 -0.258523E-06  0.658E-03    7.03       3.9  T
   5    -33.4889187 -0.235954E-07  0.206E-03    7.03      12.6  T
   6    -33.4889187 -0.165002E-08  0.637E-04    7.03      40.6  T
   7    -33.4889187 -0.404206E-09  0.301E-04    7.03      85.9  T
     SCC iter.                  ...        0 min,  0.003 sec
     gradient                   ...        0 min,  0.001 sec
 * total energy  :   -33.2608485 Eh     change       -0.6222632E-03 Eh
   gradient norm :     0.0214200 Eh/α   predicted    -0.4410552E-03 ( -29.12%)
   displ. norm   :     0.3264835 α      lambda       -0.1059985E-02
   maximum displ.:     0.2064766 α      in ANC's #2, #1, #3, ...

........................................................................
.............................. CYCLE   28 ..............................
........................................................................

 iter      E             dE          RMSdq      gap      omega  full diag
   1    -33.4907843 -0.334908E+02  0.163E-01    7.13       0.0  T
   2    -33.4907975 -0.132405E-04  0.885E-02    7.14       1.0  T
   3    -33.4907995 -0.195694E-05  0.230E-02    7.14       1.1  T
   4    -33.4908000 -0.538122E-06  0.124E-02    7.14       2.1  T
   5    -33.4908001 -0.749684E-07  0.301E-03    7.14       8.6  T
   6    -33.4908001 -0.574653E-08  0.890E-04    7.14      29.0  T
   7    -33.4908001 -0.676721E-09  0.425E-04    7.14      60.7  T
     SCC iter.                  ...        0 min,  0.003 sec
     gradient                   ...        0 min,  0.001 sec
 * total energy  :   -33.2616474 Eh     change       -0.7989016E-03 Eh
   gradient norm :     0.0224685 Eh/α   predicted    -0.5864846E-03 ( -26.59%)
   displ. norm   :     0.4028401 α      lambda       -0.1147195E-02
   maximum displ.:     0.3094634 α      in ANC's #2, #3, #7, ...

........................................................................
.............................. CYCLE   29 ..............................
........................................................................

 iter      E             dE          RMSdq      gap      omega  full diag
   1    -33.4922203 -0.334922E+02  0.192E-01    7.28       0.0  T
   2    -33.4922361 -0.157868E-04  0.957E-02    7.29       1.0  T
   3    -33.4922387 -0.263058E-05  0.263E-02    7.29       1.0  T
   4    -33.4922389 -0.149622E-06  0.932E-03    7.29       2.8  T
   5    -33.4922389 -0.411676E-07  0.273E-03    7.29       9.5  T
   6    -33.4922389 -0.480851E-08  0.662E-04    7.29      39.0  T
   7    -33.4922389 -0.302109E-09  0.353E-04    7.29      73.2  T
     SCC iter.                  ...        0 min,  0.003 sec
     gradient                   ...        0 min,  0.001 sec
 * total energy  :   -33.2625431 Eh     change       -0.8956515E-03 Eh
   gradient norm :     0.0186221 Eh/α   predicted    -0.6666722E-03 ( -25.57%)
   displ. norm   :     0.6331180 α      lambda       -0.1336980E-02
   maximum displ.:     0.5092561 α      in ANC's #2, #3, #1, ...

........................................................................
.............................. CYCLE   30 ..............................
........................................................................

 iter      E             dE          RMSdq      gap      omega  full diag
   1    -33.4884238 -0.334884E+02  0.281E-01    7.25       0.0  T
   2    -33.4884495 -0.257224E-04  0.142E-01    7.26       1.0  T
   3    -33.4884545 -0.502819E-05  0.374E-02    7.26       1.0  T
   4    -33.4884550 -0.537340E-06  0.167E-02    7.26       1.5  T
   5    -33.4884553 -0.210740E-06  0.278E-03    7.26       9.3  T
   6    -33.4884553 -0.958509E-08  0.111E-03    7.26      23.3  T
   7    -33.4884553 -0.733301E-09  0.494E-04    7.26      52.2  T
   8    -33.4884553 -0.223935E-09  0.160E-04    7.26     161.5  T
     SCC iter.                  ...        0 min,  0.004 sec
     gradient                   ...        0 min,  0.001 sec
 * total energy  :   -33.2636219 Eh     change       -0.1078804E-02 Eh
   gradient norm :     0.0223652 Eh/α   predicted    -0.9364692E-03 ( -13.19%)
   displ. norm   :     0.5169098 α      lambda       -0.2212232E-02
   maximum displ.:     0.4151699 α      in ANC's #2, #3, #4, ...

........................................................................
.............................. CYCLE   31 ..............................
........................................................................

 iter      E             dE          RMSdq      gap      omega  full diag
   1    -33.4966094 -0.334966E+02  0.273E-01    7.39       0.0  T
   2    -33.4966772 -0.677810E-04  0.152E-01    7.36       1.0  T
   3    -33.4966833 -0.607871E-05  0.606E-02    7.38       1.0  T
   4    -33.4966852 -0.193835E-05  0.216E-02    7.37       1.2  T
   5    -33.4966855 -0.296067E-06  0.631E-03    7.37       4.1  T
   6    -33.4966856 -0.201255E-07  0.212E-03    7.37      12.2  T
   7    -33.4966856 -0.588163E-08  0.699E-04    7.37      37.0  T
   8    -33.4966856 -0.369013E-09  0.271E-04    7.37      95.1  T
     SCC iter.                  ...        0 min,  0.004 sec
     gradient                   ...        0 min,  0.002 sec
 * total energy  :   -33.2643785 Eh     change       -0.7566213E-03 Eh
   gradient norm :     0.0332646 Eh/α   predicted    -0.1401666E-02 (  85.25%)
   displ. norm   :     0.5197832 α      lambda       -0.1917807E-02
   maximum displ.:     0.3681731 α      in ANC's #2, #1, #3, ...

........................................................................
.............................. CYCLE   32 ..............................
........................................................................

 iter      E             dE          RMSdq      gap      omega  full diag
   1    -33.4884440 -0.334884E+02  0.273E-01    7.18       0.0  T
   2    -33.4884934 -0.493162E-04  0.131E-01    7.20       1.0  T
   3    -33.4884983 -0.491098E-05  0.472E-02    7.20       1.0  T
   4    -33.4884990 -0.764772E-06  0.180E-02    7.20       1.4  T
   5    -33.4884992 -0.138256E-06  0.464E-03    7.20       5.6  T
   6    -33.4884992 -0.159488E-07  0.122E-03    7.20      21.1  T
   7    -33.4884992 -0.964910E-09  0.579E-04    7.20      44.6  T
   8    -33.4884992 -0.244690E-09  0.242E-04    7.20     106.7  T
     SCC iter.                  ...        0 min,  0.003 sec
     gradient                   ...        0 min,  0.001 sec
 * total energy  :   -33.2655188 Eh     change       -0.1140238E-02 Eh
   gradient norm :     0.0284764 Eh/α   predicted    -0.1217978E-02 (   6.82%)
   displ. norm   :     0.1635412 α      lambda       -0.1274905E-02
   maximum displ.:     0.1200731 α      in ANC's #1, #3, #6, ...

........................................................................
.............................. CYCLE   33 ..............................
........................................................................

 iter      E             dE          RMSdq      gap      omega  full diag
   1    -33.4949338 -0.334949E+02  0.149E-01    7.23       0.0  T
   2    -33.4949515 -0.177428E-04  0.663E-02    7.24       1.0  T
   3    -33.4949531 -0.157359E-05  0.325E-02    7.24       1.0  T
   4    -33.4949534 -0.302611E-06  0.118E-02    7.24       2.2  T
   5    -33.4949535 -0.156154E-06  0.388E-03    7.24       6.7  T
   6    -33.4949535 -0.339804E-08  0.121E-03    7.24      21.3  T
   7    -33.4949535 -0.115235E-08  0.392E-04    7.24      65.9  T
   8    -33.4949535 -0.885549E-10  0.129E-04    7.24     200.3  T
     SCC iter.                  ...        0 min,  0.003 sec
     gradient                   ...        0 min,  0.001 sec
 * total energy  :   -33.2663024 Eh     change       -0.7836951E-03 Eh
   gradient norm :     0.0194245 Eh/α   predicted    -0.6545033E-03 ( -16.48%)
   displ. norm   :     0.4836677 α      lambda       -0.1489946E-02
   maximum displ.:     0.3076925 α      in ANC's #2, #1, #3, ...

........................................................................
.............................. CYCLE   34 ..............................
........................................................................

 iter      E             dE          RMSdq      gap      omega  full diag
   1    -33.4958890 -0.334959E+02  0.220E-01    7.29       0.0  T
   2    -33.4959175 -0.284879E-04  0.114E-01    7.30       1.0  T
   3    -33.4959205 -0.298444E-05  0.380E-02    7.29       1.0  T
   4    -33.4959213 -0.814900E-06  0.165E-02    7.30       1.6  T
   5    -33.4959214 -0.106016E-06  0.389E-03    7.30       6.6  T
   6    -33.4959214 -0.212501E-07  0.105E-03    7.30      24.5  T
   7    -33.4959214 -0.929298E-09  0.500E-04    7.30      51.7  T
   8    -33.4959214 -0.126114E-09  0.186E-04    7.30     138.6  T
     SCC iter.                  ...        0 min,  0.003 sec
     gradient                   ...        0 min,  0.001 sec
 * total energy  :   -33.2674188 Eh     change       -0.1116382E-02 Eh
   gradient norm :     0.0153741 Eh/α   predicted    -0.9192519E-03 ( -17.66%)
   displ. norm   :     0.3119921 α      lambda       -0.1178268E-02
   maximum displ.:     0.1582653 α      in ANC's #2, #3, #1, ...

........................................................................
.............................. CYCLE   35 ..............................
........................................................................

 iter      E             dE          RMSdq      gap      omega  full diag
   1    -33.5022198 -0.335022E+02  0.154E-01    7.56       0.0  T
   2    -33.5022375 -0.176676E-04  0.914E-02    7.57       1.0  T
   3    -33.5022392 -0.171433E-05  0.285E-02    7.56       1.0  T
   4    -33.5022400 -0.765003E-06  0.126E-02    7.56       2.0  T
   5    -33.5022400 -0.611924E-07  0.353E-03    7.56       7.3  T
   6    -33.5022400 -0.127854E-07  0.938E-04    7.56      27.5  T
   7    -33.5022400 -0.430639E-09  0.446E-04    7.56      57.9  T
     SCC iter.                  ...        0 min,  0.003 sec
     gradient                   ...        0 min,  0.001 sec
 * total energy  :   -33.2679929 Eh     change       -0.5740877E-03 Eh
   gradient norm :     0.0152290 Eh/α   predicted    -0.6464801E-03 (  12.61%)
   displ. norm   :     0.3906932 α      lambda       -0.5258046E-03
   maximum displ.:     0.2763874 α      in ANC's #2, #1, #3, ...

........................................................................
.............................. CYCLE   36 ..............................
........................................................................

 iter      E             dE          RMSdq      gap      omega  full diag
   1    -33.4970650 -0.334971E+02  0.186E-01    7.45       0.0  T
   2    -33.4970826 -0.176223E-04  0.953E-02    7.46       1.0  T
   3    -33.4970849 -0.227604E-05  0.280E-02    7.46       1.0  T
   4    -33.4970851 -0.196966E-06  0.115E-02    7.46       2.2  T
   5    -33.4970852 -0.436091E-07  0.307E-03    7.46       8.4  T
   6    -33.4970852 -0.140659E-07  0.775E-04    7.46      33.3  T
   7    -33.4970852 -0.532360E-09  0.367E-04    7.46      70.3  T
     SCC iter.                  ...        0 min,  0.003 sec
     gradient                   ...        0 min,  0.001 sec
 * total energy  :   -33.2679849 Eh     change        0.8029350E-05 Eh
   gradient norm :     0.0124447 Eh/α   predicted    -0.3030355E-03 (*******%)
   displ. norm   :     0.2084260 α      lambda       -0.5597736E-03
   maximum displ.:     0.1481783 α      in ANC's #2, #3, #4, ...

........................................................................
.............................. CYCLE   37 ..............................
........................................................................

 iter      E             dE          RMSdq      gap      omega  full diag
   1    -33.5018184 -0.335018E+02  0.116E-01    7.54       0.0  T
   2    -33.5018244 -0.604921E-05  0.591E-02    7.53       1.0  T
   3    -33.5018252 -0.750035E-06  0.159E-02    7.53       1.6  T
   4    -33.5018254 -0.237453E-06  0.791E-03    7.53       3.3  T
   5    -33.5018255 -0.247344E-07  0.149E-03    7.53      17.3  T
   6    -33.5018255 -0.226580E-08  0.479E-04    7.53      53.9  T
   7    -33.5018255 -0.195556E-09  0.230E-04    7.53     112.2  T
     SCC iter.                  ...        0 min,  0.003 sec
     gradient                   ...        0 min,  0.001 sec
 * total energy  :   -33.2682763 Eh     change       -0.2913873E-03 Eh
   gradient norm :     0.0091257 Eh/α   predicted    -0.2920442E-03 (   0.23%)
   displ. norm   :     0.0893584 α      lambda       -0.2022065E-03
   maximum displ.:     0.0438574 α      in ANC's #3, #4, #1, ...

........................................................................
.............................. CYCLE   38 ..............................
........................................................................

 iter      E             dE          RMSdq      gap      omega  full diag
   1    -33.5025824 -0.335026E+02  0.561E-02    7.55       0.0  T
   2    -33.5025854 -0.300875E-05  0.309E-02    7.54       1.0  T
   3    -33.5025856 -0.204766E-06  0.118E-02    7.54       2.2  T
   4    -33.5025856 -0.294324E-07  0.373E-03    7.54       6.9  T
   5    -33.5025857 -0.370178E-08  0.936E-04    7.54      27.6  T
   6    -33.5025857 -0.600174E-09  0.338E-04    7.54      76.3  T
     SCC iter.                  ...        0 min,  0.003 sec
     gradient                   ...        0 min,  0.001 sec
 * total energy  :   -33.2683818 Eh     change       -0.1054793E-03 Eh
   gradient norm :     0.0076061 Eh/α   predicted    -0.1019105E-03 (  -3.38%)
   displ. norm   :     0.1745388 α      lambda       -0.2621532E-03
   maximum displ.:     0.1065506 α      in ANC's #1, #4, #3, ...

........................................................................
.............................. CYCLE   39 ..............................
........................................................................

 iter      E             dE          RMSdq      gap      omega  full diag
   1    -33.5027256 -0.335027E+02  0.675E-02    7.56       0.0  T
   2    -33.5027272 -0.161844E-05  0.401E-02    7.56       1.0  T
   3    -33.5027273 -0.148236E-06  0.104E-02    7.56       2.5  T
   4    -33.5027275 -0.149790E-06  0.382E-03    7.56       6.8  T
   5    -33.5027275 -0.692658E-08  0.118E-03    7.56      22.0  T
   6    -33.5027275 -0.103034E-08  0.505E-04    7.56      51.2  T
   7    -33.5027275 -0.169670E-09  0.186E-04    7.56     138.8  T
     SCC iter.                  ...        0 min,  0.003 sec
     gradient                   ...        0 min,  0.001 sec
 * total energy  :   -33.2685838 Eh     change       -0.2020284E-03 Eh
   gradient norm :     0.0066765 Eh/α   predicted    -0.1350700E-03 ( -33.14%)
   displ. norm   :     0.3369775 α      lambda       -0.3475473E-03
   maximum displ.:     0.1884741 α      in ANC's #1, #3, #4, ...

........................................................................
.............................. CYCLE   40 ..............................
........................................................................

 iter      E             dE          RMSdq      gap      omega  full diag
   1    -33.5003276 -0.335003E+02  0.121E-01    7.52       0.0  T
   2    -33.5003328 -0.526720E-05  0.692E-02    7.53       1.0  T
   3    -33.5003332 -0.335443E-06  0.222E-02    7.53       1.2  T
   4    -33.5003338 -0.583113E-06  0.656E-03    7.53       3.9  T
   5    -33.5003338 -0.224158E-07  0.206E-03    7.53      12.5  T
   6    -33.5003338 -0.261107E-08  0.813E-04    7.53      31.8  T
   7    -33.5003338 -0.459558E-09  0.330E-04    7.53      78.2  T
     SCC iter.                  ...        0 min,  0.005 sec
     gradient                   ...        0 min,  0.003 sec
 * total energy  :   -33.2687762 Eh     change       -0.1924046E-03 Eh
   gradient norm :     0.0095433 Eh/α   predicted    -0.1934973E-03 (   0.57%)
   displ. norm   :     0.0714420 α      lambda       -0.1077212E-03
   maximum displ.:     0.0391916 α      in ANC's #3, #2, #1, ...

........................................................................
.............................. CYCLE   41 ..............................
........................................................................

 iter      E             dE          RMSdq      gap      omega  full diag
   1    -33.5006183 -0.335006E+02  0.333E-02    7.50       0.0  T
   2    -33.5006190 -0.703380E-06  0.184E-02    7.51       1.4  T
   3    -33.5006191 -0.420311E-07  0.744E-03    7.51       3.5  T
   4    -33.5006191 -0.464328E-07  0.189E-03    7.51      13.7  T
   5    -33.5006191 -0.187520E-08  0.698E-04    7.51      37.0  T
   6    -33.5006191 -0.264563E-09  0.176E-04    7.51     147.1  T
     SCC iter.                  ...        0 min,  0.003 sec
     gradient                   ...        0 min,  0.001 sec
 * total energy  :   -33.2688616 Eh     change       -0.8537860E-04 Eh
   gradient norm :     0.0073626 Eh/α   predicted    -0.5413569E-04 ( -36.59%)
   displ. norm   :     0.2181778 α      lambda       -0.2128594E-03
   maximum displ.:     0.1290645 α      in ANC's #3, #4, #10, ...

........................................................................
.............................. CYCLE   42 ..............................
........................................................................

 iter      E             dE          RMSdq      gap      omega  full diag
   1    -33.4999631 -0.335000E+02  0.796E-02    7.48       0.0  T
   2    -33.4999655 -0.240056E-05  0.455E-02    7.49       1.0  T
   3    -33.4999655 -0.390071E-07  0.153E-02    7.48       1.7  T
   4    -33.4999659 -0.355814E-06  0.408E-03    7.49       6.3  T
   5    -33.4999659 -0.846212E-08  0.105E-03    7.49      24.6  T
   6    -33.4999659 -0.425871E-09  0.330E-04    7.49      78.2  T
   7    -33.4999659 -0.786571E-10  0.170E-04    7.49     152.0  T
     SCC iter.                  ...        0 min,  0.003 sec
     gradient                   ...        0 min,  0.001 sec
 * total energy  :   -33.2690034 Eh     change       -0.1417997E-03 Eh
   gradient norm :     0.0062611 Eh/α   predicted    -0.1114946E-03 ( -21.37%)
   displ. norm   :     0.1371983 α      lambda       -0.1324618E-03
   maximum displ.:     0.0780550 α      in ANC's #4, #3, #8, ...
 * RMSD in coord.:     1.3224106 α      energy gain  -0.1012080E-01 Eh

generating ANC from exact Hessian ...
Using Lindh-Hessian (1995)
 Shifting diagonal of input Hessian by    5.7116957541049037E-003
 Lowest  eigenvalues of input Hessian
    0.000000    0.000000    0.000000    0.000000    0.000000    0.000000
    0.010000    0.013536    0.015381    0.023240    0.026928    0.047295
    0.047975    0.051835    0.056882    0.061883    0.073811    0.085813
 Highest eigenvalues
    1.594207    1.802680    2.710299    2.912599    3.253625    3.382871


........................................................................
.............................. CYCLE   43 ..............................
........................................................................

 iter      E             dE          RMSdq      gap      omega  full diag
   1    -33.5006979 -0.335007E+02  0.524E-02    7.48       0.0  T
   2    -33.5006990 -0.101624E-05  0.299E-02    7.48       1.0  T
   3    -33.5006990 -0.507014E-07  0.850E-03    7.48       3.0  T
   4    -33.5006991 -0.998658E-07  0.292E-03    7.48       8.8  T
   5    -33.5006991 -0.602060E-08  0.835E-04    7.48      30.9  T
   6    -33.5006991 -0.314309E-09  0.213E-04    7.48     121.2  T
     SCC iter.                  ...        0 min,  0.003 sec
     gradient                   ...        0 min,  0.001 sec
 * total energy  :   -33.2690953 Eh     change       -0.9195737E-04 Eh
   gradient norm :     0.0058371 Eh/α   predicted     0.0000000E+00 (-100.00%)
   displ. norm   :     0.0337789 α      lambda       -0.6298837E-04
   maximum displ.:     0.0252207 α      in ANC's #4, #7, #11, ...

........................................................................
.............................. CYCLE   44 ..............................
........................................................................

 iter      E             dE          RMSdq      gap      omega  full diag
   1    -33.5013527 -0.335014E+02  0.260E-02    7.49       0.0  T
   2    -33.5013531 -0.333004E-06  0.145E-02    7.49       1.8  T
   3    -33.5013531 -0.144626E-07  0.402E-03    7.49       6.4  T
   4    -33.5013531 -0.235049E-07  0.163E-03    7.49      15.8  T
   5    -33.5013531 -0.139350E-08  0.416E-04    7.49      62.1  T
   6    -33.5013531 -0.108770E-09  0.976E-05    7.49     264.7  T
     SCC iter.                  ...        0 min,  0.003 sec
     gradient                   ...        0 min,  0.001 sec
 * total energy  :   -33.2691447 Eh     change       -0.4940907E-04 Eh
   gradient norm :     0.0030654 Eh/α   predicted    -0.3152829E-04 ( -36.19%)
   displ. norm   :     0.0719851 α      lambda       -0.6957059E-04
   maximum displ.:     0.0600350 α      in ANC's #4, #7, #5, ...

........................................................................
.............................. CYCLE   45 ..............................
........................................................................

 iter      E             dE          RMSdq      gap      omega  full diag
   1    -33.5020129 -0.335020E+02  0.339E-02    7.51       0.0  T
   2    -33.5020134 -0.501174E-06  0.196E-02    7.51       1.3  T
   3    -33.5020134 -0.252469E-07  0.508E-03    7.51       5.1  T
   4    -33.5020135 -0.363458E-07  0.194E-03    7.51      13.3  T
   5    -33.5020135 -0.245409E-08  0.574E-04    7.51      45.0  T
   6    -33.5020135 -0.238607E-09  0.152E-04    7.51     170.2  T
     SCC iter.                  ...        0 min,  0.003 sec
     gradient                   ...        0 min,  0.002 sec
 * total energy  :   -33.2691878 Eh     change       -0.4304877E-04 Eh
   gradient norm :     0.0013711 Eh/α   predicted    -0.3496643E-04 ( -18.77%)
   displ. norm   :     0.0743824 α      lambda       -0.1997388E-04
   maximum displ.:     0.0632120 α      in ANC's #4, #3, #5, ...

........................................................................
.............................. CYCLE   46 ..............................
........................................................................

 iter      E             dE          RMSdq      gap      omega  full diag
   1    -33.5020665 -0.335021E+02  0.236E-02    7.51       0.0  T
   2    -33.5020666 -0.972542E-07  0.135E-02    7.51       1.9  T
   3    -33.5020666 -0.157206E-07  0.269E-03    7.51       9.6  T
   4    -33.5020666 -0.461873E-08  0.106E-03    7.51      24.4  T
   5    -33.5020666 -0.675932E-09  0.222E-04    7.51     116.3  T
   6    -33.5020666 -0.577813E-10  0.103E-04    7.51     251.5  T
     SCC iter.                  ...        0 min,  0.003 sec
     gradient                   ...        0 min,  0.001 sec
 * total energy  :   -33.2692092 Eh     change       -0.2137578E-04 Eh
   gradient norm :     0.0024096 Eh/α   predicted    -0.1001197E-04 ( -53.16%)
   displ. norm   :     0.0759157 α      lambda       -0.2793608E-04
   maximum displ.:     0.0608909 α      in ANC's #4, #3, #5, ...

........................................................................
.............................. CYCLE   47 ..............................
........................................................................

 iter      E             dE          RMSdq      gap      omega  full diag
   1    -33.5018307 -0.335018E+02  0.236E-02    7.50       0.0  T
   2    -33.5018308 -0.609598E-07  0.136E-02    7.50       1.9  T
   3    -33.5018308 -0.953569E-08  0.231E-03    7.50      11.2  T
   4    -33.5018308 -0.311144E-08  0.876E-04    7.50      29.5  T
   5    -33.5018308 -0.634394E-09  0.161E-04    7.50     160.4  T
     SCC iter.                  ...        0 min,  0.002 sec
     gradient                   ...        0 min,  0.001 sec
 * total energy  :   -33.2692322 Eh     change       -0.2304577E-04 Eh
   gradient norm :     0.0021351 Eh/α   predicted    -0.1405114E-04 ( -39.03%)
   displ. norm   :     0.1606742 α      lambda       -0.4905479E-04
   maximum displ.:     0.1241734 α      in ANC's #4, #3, #5, ...

........................................................................
.............................. CYCLE   48 ..............................
........................................................................

 iter      E             dE          RMSdq      gap      omega  full diag
   1    -33.5009420 -0.335009E+02  0.484E-02    7.49       0.0  T
   2    -33.5009423 -0.214840E-06  0.286E-02    7.49       1.0  T
   3    -33.5009423 -0.294771E-07  0.411E-03    7.49       6.3  T
   4    -33.5009423 -0.184860E-07  0.156E-03    7.49      16.6  T
   5    -33.5009423 -0.154740E-08  0.370E-04    7.49      69.8  T
   6    -33.5009423 -0.127990E-09  0.123E-04    7.49     209.6  T
     SCC iter.                  ...        0 min,  0.003 sec
     gradient                   ...        0 min,  0.001 sec
 * total energy  :   -33.2692589 Eh     change       -0.2667566E-04 Eh
   gradient norm :     0.0028735 Eh/α   predicted    -0.2515837E-04 (  -5.69%)
   displ. norm   :     0.0283036 α      lambda       -0.1956581E-04
   maximum displ.:     0.0136849 α      in ANC's #4, #6, #3, ...

........................................................................
.............................. CYCLE   49 ..............................
........................................................................

 iter      E             dE          RMSdq      gap      omega  full diag
   1    -33.5013122 -0.335013E+02  0.119E-02    7.49       0.0  T
   2    -33.5013123 -0.748995E-07  0.616E-03    7.49       4.2  T
   3    -33.5013123 -0.564174E-08  0.251E-03    7.49      10.3  T
   4    -33.5013123 -0.532822E-08  0.586E-04    7.49      44.1  T
   5    -33.5013123 -0.197090E-09  0.224E-04    7.49     115.3  T
     SCC iter.                  ...        0 min,  0.002 sec
     gradient                   ...        0 min,  0.001 sec
 * total energy  :   -33.2692748 Eh     change       -0.1588033E-04 Eh
   gradient norm :     0.0018217 Eh/α   predicted    -0.9789605E-05 ( -38.35%)
   displ. norm   :     0.1492193 α      lambda       -0.3167411E-04
   maximum displ.:     0.0892868 α      in ANC's #4, #3, #5, ...

........................................................................
.............................. CYCLE   50 ..............................
........................................................................

 iter      E             dE          RMSdq      gap      omega  full diag
   1    -33.5014048 -0.335014E+02  0.465E-02    7.48       0.0  T
   2    -33.5014053 -0.534681E-06  0.264E-02    7.48       1.0  T
   3    -33.5014053 -0.238282E-07  0.699E-03    7.48       3.7  T
   4    -33.5014054 -0.627628E-07  0.195E-03    7.48      13.2  T
   5    -33.5014054 -0.188302E-08  0.469E-04    7.48      55.1  T
   6    -33.5014054 -0.389406E-09  0.214E-04    7.48     120.9  T
     SCC iter.                  ...        0 min,  0.003 sec
     gradient                   ...        0 min,  0.001 sec
 * total energy  :   -33.2692959 Eh     change       -0.2110934E-04 Eh
   gradient norm :     0.0017742 Eh/α   predicted    -0.1599500E-04 ( -24.23%)
   displ. norm   :     0.0241428 α      lambda       -0.4329708E-05
   maximum displ.:     0.0141806 α      in ANC's #4, #3, #1, ...

........................................................................
.............................. CYCLE   51 ..............................
........................................................................

 iter      E             dE          RMSdq      gap      omega  full diag
   1    -33.5019984 -0.335020E+02  0.130E-02    7.49       0.0  T
   2    -33.5019985 -0.127389E-06  0.776E-03    7.49       3.3  T
   3    -33.5019985 -0.476363E-08  0.256E-03    7.49      10.1  T
   4    -33.5019985 -0.112195E-07  0.898E-04    7.49      28.7  T
   5    -33.5019985 -0.101039E-09  0.270E-04    7.49      95.6  T
     SCC iter.                  ...        0 min,  0.002 sec
     gradient                   ...        0 min,  0.001 sec
 * total energy  :   -33.2692990 Eh     change       -0.3145033E-05 Eh
   gradient norm :     0.0010241 Eh/α   predicted    -0.2166778E-05 ( -31.10%)
   displ. norm   :     0.0396155 α      lambda       -0.3886905E-05
   maximum displ.:     0.0296787 α      in ANC's #4, #1, #5, ...

........................................................................
.............................. CYCLE   52 ..............................
........................................................................

 iter      E             dE          RMSdq      gap      omega  full diag
   1    -33.5017877 -0.335018E+02  0.149E-02    7.49       0.0  T
   2    -33.5017878 -0.895036E-07  0.898E-03    7.50       2.9  T
   3    -33.5017878 -0.517645E-08  0.242E-03    7.50      10.7  T
   4    -33.5017878 -0.106079E-07  0.906E-04    7.50      28.5  T
   5    -33.5017878 -0.208438E-09  0.261E-04    7.50      98.8  T
     SCC iter.                  ...        0 min,  0.002 sec
     gradient                   ...        0 min,  0.001 sec
 * total energy  :   -33.2693013 Eh     change       -0.2280698E-05 Eh
   gradient norm :     0.0007132 Eh/α   predicted    -0.1943539E-05 ( -14.78%)
   displ. norm   :     0.0099740 α      lambda       -0.1075637E-05
   maximum displ.:     0.0086222 α      in ANC's #1, #3, #7, ...

   *** GEOMETRY OPTIMIZATION CONVERGED AFTER 52 ITERATIONS ***

------------------------------------------------------------------------
 total energy gain   :        -0.0201719 Eh      -12.6581 kcal/mol
 total RMSD          :         2.0983983 a0        1.1104 Å
 total power (kW/mol):        -1.0184871 (step) -182.4545 (real)
------------------------------------------------------------------------

 ANCopt (total)                0 d,  0 h,  0 min,  0.290 sec
 optimizer setup                ...        0 min,  0.000 sec (  0.022%)
 model hessian                  ...        0 min,  0.007 sec (  2.303%)
 ANC generation                 ...        0 min,  0.001 sec (  0.237%)
 coordinate transformation      ...        0 min,  0.000 sec (  0.091%)
 single point calculation       ...        0 min,  0.273 sec ( 94.163%)
 optimization log               ...        0 min,  0.003 sec (  0.894%)
 hessian update                 ...        0 min,  0.001 sec (  0.229%)
 rational function              ...        0 min,  0.004 sec (  1.468%)

================
 final structure:
================
15
 xtb: 6.7.1 (edcfbbe)
C            0.54606426096533       -0.06535384248709       -0.62269486808183
S            1.34989039291057       -1.67440212138228       -0.91090486438596
O            2.40010707272839       -1.77793150795653        0.08440434808986
O            0.31365038154094       -2.68819897485383       -0.78249674844214
N            2.00374429360195       -1.61347511517330       -2.35488150317014
S            0.95358136863518       -1.70894687644265       -3.54018792102160
C            0.40176095095183       -3.44366465344147       -3.62253846914611
O           -0.23824867188290       -0.90109831711655       -3.33033785474128
O            1.62788279292994       -1.44649529663756       -4.79734447413069
H            0.00901431151507       -0.12468890171893        0.31459321104601
H           -0.11772514136800        0.08446700643510       -1.46362834542639
H            1.32827974732191        0.68041367849511       -0.58854147043817
H            0.05380825727600       -3.68584027880739       -2.62717893778607
H           -0.39099719695924       -3.50542373419724       -4.35673427188157
H            1.25803717983157       -4.03951106471570       -3.90803783048362

 Bond Distances (Angstroems)
 ---------------------------
C1-S2=1.8216         C1-H10=1.0819        C1-H11=1.0818        C1-H12=1.0813        S2-C1=1.8216         S2-O3=1.4506         
S2-O4=1.4554         S2-N5=1.5863         S2-S6=2.6592         O3-S2=1.4506         O4-S2=1.4554         N5-S2=1.5863         
N5-S6=1.5865         S6-S2=2.6592         S6-N5=1.5865         S6-C7=1.8222         S6-O8=1.4550         S6-O9=1.4505         
C7-S6=1.8222         C7-H13=1.0819        C7-H14=1.0823        C7-H15=1.0816        O8-S6=1.4550         O9-S6=1.4505         
H10-C1=1.0819        H11-C1=1.0818        H12-C1=1.0813        H13-C7=1.0819        H14-C7=1.0823        H15-C7=1.0816        
 C  H  Rav=1.0818 sigma=0.0003  Rmin=1.0813  Rmax=1.0823     6
 S  C  Rav=1.8219 sigma=0.0003  Rmin=1.8216  Rmax=1.8222     2
 S  N  Rav=1.5864 sigma=0.0001  Rmin=1.5863  Rmax=1.5865     2
 S  O  Rav=1.4529 sigma=0.0023  Rmin=1.4505  Rmax=1.4554     4
 S  S  Rav=2.6592 sigma=0.0000  Rmin=2.6592  Rmax=2.6592     1

 selected bond angles (degree)
 --------------------
H10-C1-S2=107.92               H11-C1-S2=105.67               H11-C1-H10=112.12              H12-C1-S2=107.16               
H12-C1-H10=111.69              H12-C1-H11=111.90              O3-S2-C1=105.90                O4-S2-C1=106.69                
O4-S2-O3=113.91                N5-S2-C1=106.98                N5-S2-O3=109.20                N5-S2-O4=113.61                
S6-S2-C1= 95.86                S6-S2-O3=141.76                S6-S2-O4= 88.40                S6-S2-N5= 33.06                
S6-N5-S2=113.89                N5-S6-S2= 33.05                C7-S6-S2= 95.86                C7-S6-N5=106.95                
O8-S6-S2= 88.41                O8-S6-N5=113.64                O8-S6-C7=106.68                O9-S6-S2=141.75                
O9-S6-N5=109.20                O9-S6-C7=105.89                O9-S6-O8=113.91                H13-C7-S6=105.60               
H14-C7-S6=107.87               H14-C7-H13=112.07              H15-C7-S6=107.26               H15-C7-H13=111.97              
H15-C7-H14=111.68              

 selected dihedral angles (degree)
 ---------------------------------
O3-S2-C1-H10=290.69           O3-S2-C1-H11=170.58           O3-S2-C1-H12= 51.11           O4-S2-C1-H10= 52.37           
O4-S2-C1-H11=292.26           O4-S2-C1-H12=172.79           N5-S2-C1-H10=174.29           N5-S2-C1-H11= 54.18           
N5-S2-C1-H12=294.71           S6-S2-C1-H10=142.46           S6-S2-C1-H11= 22.35           S6-S2-C1-H12=262.88           
S6-N5-S2-C1=285.86            S6-N5-S2-O3=171.68            S6-N5-S2-O4= 43.32            C7-S6-N5-S2=285.81            
O8-S6-N5-S2= 43.26            O9-S6-N5-S2=171.65            H13-C7-S6-S2= 22.32           H13-C7-S6-N5= 54.16           
H13-C7-S6-O8=292.23           H13-C7-S6-O9=170.54           H14-C7-S6-S2=142.32           H14-C7-S6-N5=174.16           
H14-C7-S6-O8= 52.22           H14-C7-S6-O9=290.54           H15-C7-S6-S2=262.75           H15-C7-S6-N5=294.59           
H15-C7-S6-O8=172.66           H15-C7-S6-O9= 50.97           
           -------------------------------------------------
          |                Final Singlepoint                |
           -------------------------------------------------

          ...................................................
          :                      SETUP                      :
          :.................................................:
          :  # basis functions                  54          :
          :  # atomic orbitals                  52          :
          :  # shells                           26          :
          :  # electrons                        56          :
          :  max. iterations                   250          :
          :  Hamiltonian                  GFN2-xTB          :
          :  restarted?                      false          :
          :  GBSA solvation                  false          :
          :  PC potential                    false          :
          :  electronic temp.          300.0000000     K    :
          :  accuracy                    1.0000000          :
          :  -> integral cutoff          0.2500000E+02      :
          :  -> integral neglect         0.1000000E-07      :
          :  -> SCF convergence          0.1000000E-05 Eh   :
          :  -> wf. convergence          0.1000000E-03 e    :
          :  Broyden damping             0.4000000          :
          :  net charge                         -1          :
          :  unpaired electrons                  0          :
          ...................................................

 iter      E             dE          RMSdq      gap      omega  full diag
   1    -33.5017878 -0.335018E+02  0.724E-05    7.50       0.0  T
   2    -33.5017878 -0.228084E-11  0.417E-05    7.50     618.5  T
   3    -33.5017878 -0.277112E-12  0.160E-05    7.50    1613.8  T

   *** convergence criteria satisfied after 3 iterations ***

         #    Occupation            Energy/Eh            Energy/eV
      -------------------------------------------------------------
         1        2.0000           -0.6074861             -16.5305
       ...           ...                  ...                  ...
        22        2.0000           -0.2803683              -7.6292
        23        2.0000           -0.2729516              -7.4274
        24        2.0000           -0.2717436              -7.3945
        25        2.0000           -0.2700057              -7.3472
        26        2.0000           -0.2587535              -7.0410
        27        2.0000           -0.2391048              -6.5064
        28        2.0000           -0.2288345              -6.2269 (HOMO)
        29                          0.0466134               1.2684 (LUMO)
        30                          0.0557266               1.5164
        31                          0.0601604               1.6370
        32                          0.1014697               2.7611
        33                          0.1195660               3.2536
       ...                                ...                  ...
        52                          1.3659578              37.1696
      -------------------------------------------------------------
                  HL-Gap            0.2754479 Eh            7.4953 eV
             Fermi-level           -0.0911106 Eh           -2.4792 eV

 SCC (total)                   0 d,  0 h,  0 min,  0.004 sec
 SCC setup                      ...        0 min,  0.000 sec (  1.461%)
 Dispersion                     ...        0 min,  0.000 sec (  0.982%)
 classical contributions        ...        0 min,  0.000 sec (  0.225%)
 integral evaluation            ...        0 min,  0.001 sec ( 18.287%)
 iterations                     ...        0 min,  0.001 sec ( 37.074%)
 molecular gradient             ...        0 min,  0.001 sec ( 39.853%)
 printout                       ...        0 min,  0.000 sec (  1.746%)

         :::::::::::::::::::::::::::::::::::::::::::::::::::::
         ::                     SUMMARY                     ::
         :::::::::::::::::::::::::::::::::::::::::::::::::::::
         :: total energy             -33.269301293296 Eh    ::
         :: gradient norm              0.000712321445 Eh/a0 ::
         :: HOMO-LUMO gap              7.495318625333 eV    ::
         ::.................................................::
         :: SCC energy               -33.501750171415 Eh    ::
         :: -> isotropic ES            0.236469369336 Eh    ::
         :: -> anisotropic ES         -0.031546542823 Eh    ::
         :: -> anisotropic XC          0.001601660949 Eh    ::
         :: -> dispersion             -0.016968042864 Eh    ::
         :: repulsion energy           0.232448878119 Eh    ::
         :: add. restraining           0.000000000000 Eh    ::
         :: total charge              -1.000000000000 e     ::
         :::::::::::::::::::::::::::::::::::::::::::::::::::::

           -------------------------------------------------
          |                Property Printout                |
           -------------------------------------------------

    * Orbital Energies and Occupations

         #    Occupation            Energy/Eh            Energy/eV
      -------------------------------------------------------------
         1        2.0000           -0.6074861             -16.5305
       ...           ...                  ...                  ...
        16        2.0000           -0.3547403              -9.6530
        17        2.0000           -0.3484612              -9.4821
        18        2.0000           -0.3409506              -9.2777
        19        2.0000           -0.3101340              -8.4392
        20        2.0000           -0.2927237              -7.9654
        21        2.0000           -0.2879752              -7.8362
        22        2.0000           -0.2803683              -7.6292
        23        2.0000           -0.2729516              -7.4274
        24        2.0000           -0.2717436              -7.3945
        25        2.0000           -0.2700057              -7.3472
        26        2.0000           -0.2587535              -7.0410
        27        2.0000           -0.2391048              -6.5064
        28        2.0000           -0.2288345              -6.2269 (HOMO)
        29                          0.0466134               1.2684 (LUMO)
        30                          0.0557266               1.5164
        31                          0.0601604               1.6370
        32                          0.1014697               2.7611
        33                          0.1195660               3.2536
        34                          0.1304915               3.5509
        35                          0.1401367               3.8133
        36                          0.1690193               4.5992
        37                          0.2705852               7.3630
        38                          0.2779758               7.5641
        39                          0.3022569               8.2248
       ...                                ...                  ...
        52                          1.3659578              37.1696
      -------------------------------------------------------------
                  HL-Gap            0.2754479 Eh            7.4953 eV
             Fermi-level           -0.0911106 Eh           -2.4792 eV

     #   Z          covCN         q      C6AA      α(0)
     1   6 C        3.745    -0.207    24.661     7.084
     2  16 S        4.185     1.096   103.941    17.159
     3   8 O        0.860    -0.611    26.390     6.888
     4   8 O        0.860    -0.651    27.415     7.020
     5   7 N        1.829    -0.638    39.115     9.268
     6  16 S        4.185     1.096   103.941    17.159
     7   6 C        3.745    -0.207    24.662     7.084
     8   8 O        0.860    -0.651    27.409     7.019
     9   8 O        0.860    -0.611    26.388     6.887
    10   1 H        0.926     0.055     2.254     2.348
    11   1 H        0.926     0.084     1.934     2.175
    12   1 H        0.926     0.052     2.293     2.368
    13   1 H        0.926     0.084     1.934     2.175
    14   1 H        0.926     0.055     2.256     2.349
    15   1 H        0.926     0.052     2.294     2.368

 Mol. C6AA /au·bohr⁶  :       4330.290496
 Mol. C8AA /au·bohr⁸  :     120793.414848
 Mol. α(0) /au        :         99.349949


Wiberg/Mayer (AO) data.
largest (>0.10) Wiberg bond orders for each atom

 ---------------------------------------------------------------------------
     #   Z sym  total        # sym  WBO       # sym  WBO       # sym  WBO
 ---------------------------------------------------------------------------
     1   6 C    3.986 --    12 H    0.989    10 H    0.987    11 H    0.974
                             2 S    0.757
     2  16 S    5.003 --     3 O    1.572     4 O    1.507     5 N    1.118
                             1 C    0.757
     3   8 O    1.857 --     2 S    1.572     4 O    0.102
     4   8 O    1.819 --     2 S    1.507     3 O    0.102
     5   7 N    2.766 --     2 S    1.118     6 S    1.117
     6  16 S    5.003 --     9 O    1.572     8 O    1.508     5 N    1.117
                             7 C    0.757
     7   6 C    3.986 --    15 H    0.989    14 H    0.987    13 H    0.974
                             6 S    0.757
     8   8 O    1.820 --     6 S    1.508     9 O    0.102
     9   8 O    1.857 --     6 S    1.572     8 O    0.102
    10   1 H    0.997 --     1 C    0.987
    11   1 H    0.993 --     1 C    0.974
    12   1 H    0.997 --     1 C    0.989
    13   1 H    0.993 --     7 C    0.974
    14   1 H    0.997 --     7 C    0.987
    15   1 H    0.997 --     7 C    0.989
 ---------------------------------------------------------------------------

Topologies differ in total number of bonds
Writing topology from bond orders to xtbtopo.mol

molecular dipole:
                 x           y           z       tot (Debye)
 q only:       -2.553       3.164       4.263
   full:       -2.806       3.142       4.301      15.303
molecular quadrupole (traceless):
                xx          xy          yy          xz          yz          zz
 q only:        8.729      12.788      14.802      12.978      -9.267     -23.531
  q+dip:        7.911      14.011      17.719      14.166      -7.681     -25.630
   full:        7.404      13.953      18.106      14.250      -7.522     -25.511

           -------------------------------------------------
          |                Geometry Summary                 |
           -------------------------------------------------

      molecular mass/u    :      172.2030140
   center of mass at/Å    :        1.0517790      -1.7010269      -2.2103727
  moments of inertia/u·Å² :        0.2096230E+03   0.5287712E+03   0.5537699E+03
rotational constants/cm⁻¹ :        0.8041881E-01   0.3188077E-01   0.3044158E-01

 * 14 selected distances

     #   Z          #   Z                                           value/Å
     1   6 C        2  16 S                                       1.8216033
     2  16 S        3   8 O                                       1.4506255
     2  16 S        4   8 O                                       1.4553578
     2  16 S        5   7 N                                       1.5862869
     5   7 N        6  16 S                                       1.5864769
     6  16 S        7   6 C                                       1.8222332 (max)
     6  16 S        8   8 O                                       1.4550311
     6  16 S        9   8 O                                       1.4505193
     1   6 C       10   1 H                                       1.0818745
     1   6 C       11   1 H                                       1.0817726
     1   6 C       12   1 H                                       1.0812941 (min)
     7   6 C       13   1 H                                       1.0818784
     7   6 C       14   1 H                                       1.0822769
     7   6 C       15   1 H                                       1.0815508

 * 4 distinct bonds (by element types)

   Z      Z             #   av. dist./Å        max./Å        min./Å
   1 H    6 C           6     1.0817746     1.0822769     1.0812941
   6 C   16 S           2     1.8219182     1.8222332     1.8216033
   7 N   16 S           2     1.5863819     1.5864769     1.5862869
   8 O   16 S           4     1.4528834     1.4553578     1.4505193


optimized geometry written to: xtbopt.xyz


           -------------------------------------------------
          | TOTAL ENERGY              -33.269301293296 Eh   |
          | GRADIENT NORM               0.000712321445 Eh/α |
          | HOMO-LUMO GAP               7.495318625333 eV   |
           -------------------------------------------------

------------------------------------------------------------------------
 * finished run on 2024/12/20 at 01:54:48.623     
------------------------------------------------------------------------
 total:
 * wall-time:     0 d,  0 h,  0 min,  0.320 sec
 *  cpu-time:     0 d,  0 h,  0 min,  2.536 sec
 * ratio c/w:     7.922 speedup
 SCF:
 * wall-time:     0 d,  0 h,  0 min,  0.010 sec
 *  cpu-time:     0 d,  0 h,  0 min,  0.081 sec
 * ratio c/w:     7.889 speedup
 ANC optimizer:
 * wall-time:     0 d,  0 h,  0 min,  0.295 sec
 *  cpu-time:     0 d,  0 h,  0 min,  2.347 sec
 * ratio c/w:     7.963 speedup

