      -----------------------------------------------------------      
     |                   =====================                   |     
     |                           x T B                           |     
     |                   =====================                   |     
     |                         S. Grimme                         |     
     |          Mulliken Center for Theoretical Chemistry        |     
     |                    University of Bonn                     |     
      -----------------------------------------------------------      

   * xtb version 6.7.1 (edcfbbe) compiled by 'conda@3ef47c1a292c' on 2024-11-25

   xtb is free software: you can redistribute it and/or modify it under
   the terms of the GNU Lesser General Public License as published by
   the Free Software Foundation, either version 3 of the License, or
   (at your option) any later version.
   
   xtb is distributed in the hope that it will be useful,
   but WITHOUT ANY WARRANTY; without even the implied warranty of
   MERCHANTABILITY or FITNESS FOR A PARTICULAR PURPOSE.  See the
   GNU Lesser General Public License for more details.
   
   Cite this work as:
   * C. Bannwarth, E. Caldeweyher, S. Ehlert, A. Hansen, P. Pracht,
     J. Seibert, S. Spicher, S. Grimme, WIREs Comput. Mol. Sci., 2020, 11,
     e01493. DOI: 10.1002/wcms.1493
   
   for GFN2-xTB:
   * C. Bannwarth, S. Ehlert and S. Grimme., J. Chem. Theory Comput., 2019,
     15, 1652-1671. DOI: 10.1021/acs.jctc.8b01176
   for GFN1-xTB:
   * S. Grimme, C. Bannwarth, P. Shushkov, J. Chem. Theory Comput., 2017,
     13, 1989-2009. DOI: 10.1021/acs.jctc.7b00118
   for GFN0-xTB:
   * P. Pracht, E. Caldeweyher, S. Ehlert, S. Grimme, ChemRxiv, 2019, preprint.
     DOI: 10.26434/chemrxiv.8326202.v1
   for GFN-FF:
   * S. Spicher and S. Grimme, Angew. Chem. Int. Ed., 2020, 59, 15665-15673.
     DOI: 10.1002/anie.202004239
   
   for ALPB and GBSA implicit solvation:
   * S. Ehlert, M. Stahn, S. Spicher, S. Grimme, J. Chem. Theory Comput.,
     2021, 17, 4250-4261. DOI: 10.1021/acs.jctc.1c00471
   
   for ddCOSMO and CPCM-X implicit solvation:
   * M. Stahn, S. Ehlert, S. Grimme, J. Phys. Chem. A,
     2023, XX, XXXX-XXXX. DOI: 10.1021/acs.jpca.3c04382
   
   for DFT-D4:
   * E. Caldeweyher, C. Bannwarth and S. Grimme, J. Chem. Phys., 2017,
     147, 034112. DOI: 10.1063/1.4993215
   * E. Caldeweyher, S. Ehlert, A. Hansen, H. Neugebauer, S. Spicher,
     C. Bannwarth and S. Grimme, J. Chem. Phys., 2019, 150, 154122.
     DOI: 10.1063/1.5090222
   * E. Caldeweyher, J.-M. Mewes, S. Ehlert and S. Grimme, Phys. Chem. Chem. Phys.
     2020, 22, 8499-8512. DOI: 10.1039/D0CP00502A
   
   for sTDA-xTB:
   * S. Grimme and C. Bannwarth, J. Chem. Phys., 2016, 145, 054103.
     DOI: 10.1063/1.4959605
   
   in the mass-spec context:
   * V. Asgeirsson, C. Bauer and S. Grimme, Chem. Sci., 2017, 8, 4879.
     DOI: 10.1039/c7sc00601b
   * J. Koopman and S. Grimme, ACS Omega 2019, 4, 12, 15120-15133.
     DOI: 10.1021/acsomega.9b02011
   
   for metadynamics refer to:
   * S. Grimme, J. Chem. Theory Comput., 2019, 155, 2847-2862
     DOI: 10.1021/acs.jctc.9b00143
   
   for SPH calculations refer to:
   * S. Spicher and S. Grimme, J. Chem. Theory Comput., 2021, 17, 1701-1714
     DOI: 10.1021/acs.jctc.0c01306
   
   for ONIOM refer to:
   * C. Plett, A. Katbashev, S. Ehlert, S. Grimme, M. Bursch,
     Phys. Chem. Chem. Phys., 2023, 25, 17860-17868. DOI: 10.1039/D3CP02178E
   
   for DIPRO refer to:
   * J. Kohn, N. Gildemeister, S. Grimme, D. Fazzi, A. Hansen,
     J. Chem. Phys., 2023, just accepted.
   
   for PTB refer to:
   * S. Grimme, M. Mueller, A. Hansen, J. Chem. Phys., 2023, 158, 124111.
     DOI: 10.1063/5.0137838
   
   with help from (in alphabetical order)
   P. Atkinson, C. Bannwarth, F. Bohle, G. Brandenburg, E. Caldeweyher
   M. Checinski, S. Dohm, S. Ehlert, S. Ehrlich, I. Gerasimov, C. Hölzer
   A. Katbashev, J. Kohn, J. Koopman, C. Lavigne, S. Lehtola, F. März, M. Müller,
   F. Musil, H. Neugebauer, J. Pisarek, C. Plett, P. Pracht, F. Pultar,
   J. Seibert, P. Shushkov, S. Spicher, M. Stahn, M. Steiner, T. Strunk,
   J. Stückrath, T. Rose, and J. Unsleber
   
 * started run on 2024/12/20 at 01:54:48.830     
   ID    Z sym.   atoms
    1    6 C      1-4
    2   16 S      5
    3    8 O      6-8
    4    1 H      9-17

           -------------------------------------------------
          |                Calculation Setup                |
           -------------------------------------------------

          program call               : xtb A127.xyz --opt --namespace A127 --charge -1
          calculation namespace      : A127
          coordinate file            : A127.xyz
          omp threads                :                     8


           -------------------------------------------------
          |                 G F N 2 - x T B                 |
           -------------------------------------------------

        Reference                      10.1021/acs.jctc.8b01176
      * Hamiltonian:
        H0-scaling (s, p, d)           1.850000    2.230000    2.230000
        zeta-weighting                 0.500000
      * Dispersion:
        s8                             2.700000
        a1                             0.520000
        a2                             5.000000
        s9                             5.000000
      * Repulsion:
        kExp                           1.500000    1.000000
        rExp                           1.000000
      * Coulomb:
        alpha                          2.000000
        third order                    shell-resolved
        anisotropic                    true
        a3                             3.000000
        a5                             4.000000
        cn-shift                       1.200000
        cn-exp                         4.000000
        max-rad                        5.000000


          ...................................................
          :                      SETUP                      :
          :.................................................:
          :  # basis functions                  47          :
          :  # atomic orbitals                  46          :
          :  # shells                           26          :
          :  # electrons                        50          :
          :  max. iterations                   250          :
          :  Hamiltonian                  GFN2-xTB          :
          :  restarted?                      false          :
          :  GBSA solvation                  false          :
          :  PC potential                    false          :
          :  electronic temp.          300.0000000     K    :
          :  accuracy                    1.0000000          :
          :  -> integral cutoff          0.2500000E+02      :
          :  -> integral neglect         0.1000000E-07      :
          :  -> SCF convergence          0.1000000E-05 Eh   :
          :  -> wf. convergence          0.1000000E-03 e    :
          :  Broyden damping             0.4000000          :
          :  net charge                         -1          :
          :  unpaired electrons                  0          :
          ...................................................

 iter      E             dE          RMSdq      gap      omega  full diag
   1    -29.0223865 -0.290224E+02  0.581E+00    8.68       0.0  T
   2    -29.0895410 -0.671545E-01  0.344E+00    8.80       1.0  T
   3    -29.0923504 -0.280948E-02  0.131E+00    8.50       1.0  T
   4    -29.0942121 -0.186162E-02  0.376E-01    8.52       1.0  T
   5    -29.0945027 -0.290608E-03  0.209E-01    8.49       1.0  T
   6    -29.0945984 -0.956846E-04  0.833E-02    8.50       1.0  T
   7    -29.0946140 -0.156729E-04  0.358E-02    8.50       1.0  T
   8    -29.0946174 -0.334902E-05  0.965E-03    8.50       2.5  T
   9    -29.0946176 -0.196756E-06  0.450E-03    8.50       5.4  T
  10    -29.0946176 -0.204368E-07  0.105E-03    8.50      23.1  T
  11    -29.0946176 -0.125190E-08  0.327E-04    8.50      74.2  T
  12    -29.0946176 -0.149672E-09  0.112E-04    8.50     216.8  T

   *** convergence criteria satisfied after 12 iterations ***

         #    Occupation            Energy/Eh            Energy/eV
      -------------------------------------------------------------
         1        2.0000           -0.5534454             -15.0600
       ...           ...                  ...                  ...
        19        2.0000           -0.2965198              -8.0687
        20        2.0000           -0.2431417              -6.6162
        21        2.0000           -0.2425531              -6.6002
        22        2.0000           -0.2257730              -6.1436
        23        2.0000           -0.2244791              -6.1084
        24        2.0000           -0.2123296              -5.7778
        25        2.0000           -0.2087500              -5.6804 (HOMO)
        26                          0.1035356               2.8173 (LUMO)
        27                          0.1638607               4.4589
        28                          0.1844793               5.0199
        29                          0.1994117               5.4263
        30                          0.2166601               5.8956
       ...                                ...                  ...
        46                          1.3595442              36.9951
      -------------------------------------------------------------
                  HL-Gap            0.3122856 Eh            8.4977 eV
             Fermi-level           -0.0526072 Eh           -1.4315 eV

 SCC (total)                   0 d,  0 h,  0 min,  0.010 sec
 SCC setup                      ...        0 min,  0.000 sec (  1.286%)
 Dispersion                     ...        0 min,  0.000 sec (  0.873%)
 classical contributions        ...        0 min,  0.000 sec (  0.399%)
 integral evaluation            ...        0 min,  0.002 sec ( 17.244%)
 iterations                     ...        0 min,  0.006 sec ( 66.699%)
 molecular gradient             ...        0 min,  0.001 sec ( 12.473%)
 printout                       ...        0 min,  0.000 sec (  0.876%)

         :::::::::::::::::::::::::::::::::::::::::::::::::::::
         ::                     SUMMARY                     ::
         :::::::::::::::::::::::::::::::::::::::::::::::::::::
         :: total energy             -28.842793571742 Eh    ::
         :: gradient norm              0.041698098665 Eh/a0 ::
         :: HOMO-LUMO gap              8.497724075032 eV    ::
         ::.................................................::
         :: SCC energy               -29.094572388001 Eh    ::
         :: -> isotropic ES            0.217063202872 Eh    ::
         :: -> anisotropic ES         -0.008618076318 Eh    ::
         :: -> anisotropic XC          0.001463307824 Eh    ::
         :: -> dispersion             -0.014519283760 Eh    ::
         :: repulsion energy           0.251778816259 Eh    ::
         :: add. restraining           0.000000000000 Eh    ::
         :: total charge              -1.000000000000 e     ::
         :::::::::::::::::::::::::::::::::::::::::::::::::::::

      ----------------------------------------------------------- 
     |                   =====================                   |
     |                        A N C O P T                        |
     |                   =====================                   |
     |               Approximate Normal Coordinate               |
     |                Rational Function Optimizer                |
      ----------------------------------------------------------- 
      ----------------------------------------------------------- 
     |                   =====================                   |
     |                        A N C O P T                        |
     |                   =====================                   |
     |               Approximate Normal Coordinate               |
     |                Rational Function Optimizer                |
      ----------------------------------------------------------- 

          ...................................................
          :                      SETUP                      :
          :.................................................:
          :   optimization level            normal          :
          :   max. optcycles                   200          :
          :   ANC micro-cycles                  20          :
          :   degrees of freedom                45          :
          :.................................................:
          :   RF solver                   davidson          :
          :   write xtbopt.log                true          :
          :   linear?                        false          :
          :   energy convergence         0.5000000E-05 Eh   :
          :   grad. convergence          0.1000000E-02 Eh/α :
          :   maxmium RF displ.          1.0000000          :
          :   Hlow (freq-cutoff)         0.1000000E-01      :
          :   Hmax (freq-cutoff)         5.0000000          :
          :   S6 in model hess.         20.0000000          :
          ...................................................

generating ANC from exact Hessian ...
Using Lindh-Hessian (1995)
 Shifting diagonal of input Hessian by    7.6662324963503881E-003
 Lowest  eigenvalues of input Hessian
    0.000000    0.000000    0.000000    0.000000    0.000000    0.000000
    0.010000    0.010475    0.013375    0.019241    0.020403    0.023112
    0.031332    0.050121    0.059020    0.059651    0.062097    0.063948
 Highest eigenvalues
    1.223981    1.237470    1.299299    1.751591    3.393597    3.429546


........................................................................
.............................. CYCLE    1 ..............................
........................................................................

 iter      E             dE          RMSdq      gap      omega  full diag
   1    -29.0946176 -0.290946E+02  0.585E-05    8.50       0.0  T
   2    -29.0946176 -0.435918E-11  0.361E-05    8.50     671.0  T
   3    -29.0946176 -0.250111E-11  0.150E-05    8.50    1613.1  T
     SCC iter.                  ...        0 min,  0.002 sec
     gradient                   ...        0 min,  0.001 sec
 * total energy  :   -28.8427936 Eh     change       -0.9247714E-11 Eh
   gradient norm :     0.0416980 Eh/α   predicted     0.0000000E+00 (-100.00%)
   displ. norm   :     0.3204767 α      lambda       -0.6322112E-02
   maximum displ.:     0.2154029 α      in ANC's #2, #18, #3, ...

........................................................................
.............................. CYCLE    2 ..............................
........................................................................

 iter      E             dE          RMSdq      gap      omega  full diag
   1    -29.0990437 -0.290990E+02  0.249E-01    8.61       0.0  T
   2    -29.0990711 -0.273858E-04  0.146E-01    8.61       1.0  T
   3    -29.0990708  0.294406E-06  0.353E-02    8.61       1.0  T
   4    -29.0990747 -0.386988E-05  0.136E-02    8.61       1.8  T
   5    -29.0990747 -0.185192E-07  0.360E-03    8.61       6.7  T
   6    -29.0990748 -0.330192E-07  0.568E-04    8.61      42.7  T
   7    -29.0990748 -0.424439E-09  0.329E-04    8.61      73.6  T
     SCC iter.                  ...        0 min,  0.003 sec
     gradient                   ...        0 min,  0.001 sec
 * total energy  :   -28.8473027 Eh     change       -0.4509149E-02 Eh
   gradient norm :     0.0216175 Eh/α   predicted    -0.3485708E-02 ( -22.70%)
   displ. norm   :     0.4471277 α      lambda       -0.3595835E-02
   maximum displ.:     0.3419784 α      in ANC's #2, #3, #6, ...

........................................................................
.............................. CYCLE    3 ..............................
........................................................................

 iter      E             dE          RMSdq      gap      omega  full diag
   1    -29.0998260 -0.290998E+02  0.183E-01    8.36       0.0  T
   2    -29.0998627 -0.366976E-04  0.105E-01    8.36       1.0  T
   3    -29.0998644 -0.168834E-05  0.306E-02    8.36       1.0  T
   4    -29.0998666 -0.222897E-05  0.114E-02    8.36       2.1  T
   5    -29.0998667 -0.535934E-07  0.479E-03    8.36       5.1  T
   6    -29.0998667 -0.438674E-07  0.706E-04    8.36      34.4  T
   7    -29.0998667 -0.604153E-09  0.205E-04    8.36     118.2  T
     SCC iter.                  ...        0 min,  0.003 sec
     gradient                   ...        0 min,  0.001 sec
 * total energy  :   -28.8497202 Eh     change       -0.2417442E-02 Eh
   gradient norm :     0.0095850 Eh/α   predicted    -0.2157349E-02 ( -10.76%)
   displ. norm   :     0.3329000 α      lambda       -0.1132979E-02
   maximum displ.:     0.2654400 α      in ANC's #2, #3, #6, ...

........................................................................
.............................. CYCLE    4 ..............................
........................................................................

 iter      E             dE          RMSdq      gap      omega  full diag
   1    -29.1005268 -0.291005E+02  0.104E-01    8.18       0.0  T
   2    -29.1005466 -0.197428E-04  0.615E-02    8.19       1.0  T
   3    -29.1005478 -0.122021E-05  0.220E-02    8.19       1.1  T
   4    -29.1005482 -0.467760E-06  0.757E-03    8.19       3.2  T
   5    -29.1005483 -0.840504E-07  0.311E-03    8.19       7.8  T
   6    -29.1005483 -0.157882E-07  0.664E-04    8.19      36.5  T
   7    -29.1005483 -0.504283E-09  0.327E-04    8.19      74.1  T
     SCC iter.                  ...        0 min,  0.003 sec
     gradient                   ...        0 min,  0.001 sec
 * total energy  :   -28.8504528 Eh     change       -0.7326645E-03 Eh
   gradient norm :     0.0097375 Eh/α   predicted    -0.6292675E-03 ( -14.11%)
   displ. norm   :     0.1685672 α      lambda       -0.4086489E-03
   maximum displ.:     0.1200057 α      in ANC's #2, #4, #5, ...

........................................................................
.............................. CYCLE    5 ..............................
........................................................................

 iter      E             dE          RMSdq      gap      omega  full diag
   1    -29.1027708 -0.291028E+02  0.577E-02    8.19       0.0  T
   2    -29.1027745 -0.368265E-05  0.340E-02    8.19       1.0  T
   3    -29.1027747 -0.183780E-06  0.101E-02    8.19       2.4  T
   4    -29.1027749 -0.177432E-06  0.352E-03    8.19       6.9  T
   5    -29.1027749 -0.163669E-07  0.123E-03    8.19      19.7  T
   6    -29.1027749 -0.267169E-08  0.355E-04    8.19      68.3  T
   7    -29.1027749 -0.153843E-09  0.200E-04    8.19     121.3  T
     SCC iter.                  ...        0 min,  0.003 sec
     gradient                   ...        0 min,  0.001 sec
 * total energy  :   -28.8507520 Eh     change       -0.2992110E-03 Eh
   gradient norm :     0.0071689 Eh/α   predicted    -0.2101311E-03 ( -29.77%)
   displ. norm   :     0.2067837 α      lambda       -0.4015196E-03
   maximum displ.:     0.1241711 α      in ANC's #4, #5, #2, ...

........................................................................
.............................. CYCLE    6 ..............................
........................................................................

 iter      E             dE          RMSdq      gap      omega  full diag
   1    -29.1046292 -0.291046E+02  0.689E-02    8.27       0.0  T
   2    -29.1046319 -0.270000E-05  0.403E-02    8.27       1.0  T
   3    -29.1046321 -0.245135E-06  0.109E-02    8.27       2.2  T
   4    -29.1046322 -0.875167E-07  0.357E-03    8.27       6.8  T
   5    -29.1046322 -0.111871E-07  0.113E-03    8.27      21.4  T
   6    -29.1046322 -0.401017E-08  0.282E-04    8.27      86.1  T
   7    -29.1046322 -0.710330E-10  0.138E-04    8.27     176.3  T
     SCC iter.                  ...        0 min,  0.003 sec
     gradient                   ...        0 min,  0.001 sec
 * total energy  :   -28.8510360 Eh     change       -0.2839306E-03 Eh
   gradient norm :     0.0045857 Eh/α   predicted    -0.2093405E-03 ( -26.27%)
   displ. norm   :     0.2093606 α      lambda       -0.2533229E-03
   maximum displ.:     0.1279356 α      in ANC's #4, #5, #2, ...

........................................................................
.............................. CYCLE    7 ..............................
........................................................................

 iter      E             dE          RMSdq      gap      omega  full diag
   1    -29.1047347 -0.291047E+02  0.655E-02    8.34       0.0  T
   2    -29.1047363 -0.158147E-05  0.374E-02    8.34       1.0  T
   3    -29.1047365 -0.213736E-06  0.961E-03    8.34       2.5  T
   4    -29.1047366 -0.215044E-07  0.267E-03    8.34       9.1  T
   5    -29.1047366 -0.290853E-08  0.524E-04    8.34      46.3  T
   6    -29.1047366 -0.127920E-08  0.212E-04    8.34     114.3  T
     SCC iter.                  ...        0 min,  0.003 sec
     gradient                   ...        0 min,  0.001 sec
 * total energy  :   -28.8512166 Eh     change       -0.1806431E-03 Eh
   gradient norm :     0.0043023 Eh/α   predicted    -0.1322158E-03 ( -26.81%)
   displ. norm   :     0.2011079 α      lambda       -0.1796322E-03
   maximum displ.:     0.1123758 α      in ANC's #4, #5, #1, ...

........................................................................
.............................. CYCLE    8 ..............................
........................................................................

 iter      E             dE          RMSdq      gap      omega  full diag
   1    -29.1045057 -0.291045E+02  0.604E-02    8.37       0.0  T
   2    -29.1045068 -0.110180E-05  0.349E-02    8.37       1.0  T
   3    -29.1045070 -0.158593E-06  0.756E-03    8.37       3.2  T
   4    -29.1045070 -0.442257E-07  0.271E-03    8.37       8.9  T
   5    -29.1045070 -0.770501E-08  0.797E-04    8.37      30.4  T
   6    -29.1045070 -0.219503E-08  0.241E-04    8.37     100.7  T
     SCC iter.                  ...        0 min,  0.003 sec
     gradient                   ...        0 min,  0.001 sec
 * total energy  :   -28.8513466 Eh     change       -0.1300152E-03 Eh
   gradient norm :     0.0051009 Eh/α   predicted    -0.9344782E-04 ( -28.13%)
   displ. norm   :     0.2019574 α      lambda       -0.1464663E-03
   maximum displ.:     0.1027273 α      in ANC's #4, #5, #1, ...

........................................................................
.............................. CYCLE    9 ..............................
........................................................................

 iter      E             dE          RMSdq      gap      omega  full diag
   1    -29.1037608 -0.291038E+02  0.572E-02    8.37       0.0  T
   2    -29.1037619 -0.109807E-05  0.338E-02    8.37       1.0  T
   3    -29.1037620 -0.126637E-06  0.630E-03    8.37       3.9  T
   4    -29.1037621 -0.498431E-07  0.280E-03    8.37       8.7  T
   5    -29.1037621 -0.134391E-08  0.599E-04    8.37      40.5  T
   6    -29.1037621 -0.228327E-08  0.219E-04    8.37     110.8  T
     SCC iter.                  ...        0 min,  0.003 sec
     gradient                   ...        0 min,  0.001 sec
 * total energy  :   -28.8514521 Eh     change       -0.1054606E-03 Eh
   gradient norm :     0.0050864 Eh/α   predicted    -0.7621957E-04 ( -27.73%)
   displ. norm   :     0.1817103 α      lambda       -0.1305433E-03
   maximum displ.:     0.1079111 α      in ANC's #1, #7, #4, ...

........................................................................
.............................. CYCLE   10 ..............................
........................................................................

 iter      E             dE          RMSdq      gap      omega  full diag
   1    -29.1043651 -0.291044E+02  0.559E-02    8.34       0.0  T
   2    -29.1043669 -0.170673E-05  0.334E-02    8.34       1.0  T
   3    -29.1043670 -0.154630E-06  0.741E-03    8.34       3.3  T
   4    -29.1043670 -0.412286E-07  0.330E-03    8.34       7.4  T
   5    -29.1043670 -0.124616E-08  0.618E-04    8.34      39.2  T
   6    -29.1043671 -0.206525E-08  0.229E-04    8.34     105.7  T
     SCC iter.                  ...        0 min,  0.003 sec
     gradient                   ...        0 min,  0.001 sec
 * total energy  :   -28.8515382 Eh     change       -0.8615878E-04 Eh
   gradient norm :     0.0059118 Eh/α   predicted    -0.6742632E-04 ( -21.74%)
   displ. norm   :     0.1862846 α      lambda       -0.1196595E-03
   maximum displ.:     0.1144381 α      in ANC's #1, #2, #4, ...

........................................................................
.............................. CYCLE   11 ..............................
........................................................................

 iter      E             dE          RMSdq      gap      omega  full diag
   1    -29.1034554 -0.291035E+02  0.567E-02    8.29       0.0  T
   2    -29.1034569 -0.146471E-05  0.333E-02    8.29       1.0  T
   3    -29.1034569 -0.606000E-07  0.857E-03    8.29       2.8  T
   4    -29.1034571 -0.122798E-06  0.305E-03    8.29       7.9  T
   5    -29.1034571 -0.572608E-08  0.114E-03    8.29      21.3  T
   6    -29.1034571 -0.297786E-08  0.203E-04    8.29     119.7  T
   7    -29.1034571 -0.202327E-10  0.950E-05    8.29     255.4  T
     SCC iter.                  ...        0 min,  0.003 sec
     gradient                   ...        0 min,  0.001 sec
 * total energy  :   -28.8516139 Eh     change       -0.7569347E-04 Eh
   gradient norm :     0.0045745 Eh/α   predicted    -0.6190742E-04 ( -18.21%)
   displ. norm   :     0.1559996 α      lambda       -0.1078753E-03
   maximum displ.:     0.1197396 α      in ANC's #1, #3, #7, ...

........................................................................
.............................. CYCLE   12 ..............................
........................................................................

 iter      E             dE          RMSdq      gap      omega  full diag
   1    -29.1043842 -0.291044E+02  0.510E-02    8.26       0.0  T
   2    -29.1043852 -0.101024E-05  0.292E-02    8.26       1.0  T
   3    -29.1043852  0.259459E-07  0.814E-03    8.25       3.0  T
   4    -29.1043853 -0.180236E-06  0.292E-03    8.26       8.3  T
   5    -29.1043853 -0.663982E-08  0.721E-04    8.26      33.7  T
   6    -29.1043853 -0.783263E-09  0.140E-04    8.26     173.1  T
     SCC iter.                  ...        0 min,  0.003 sec
     gradient                   ...        0 min,  0.001 sec
 * total energy  :   -28.8516966 Eh     change       -0.8263609E-04 Eh
   gradient norm :     0.0039385 Eh/α   predicted    -0.5525032E-04 ( -33.14%)
   displ. norm   :     0.1814870 α      lambda       -0.1090793E-03
   maximum displ.:     0.1378261 α      in ANC's #1, #3, #2, ...

........................................................................
.............................. CYCLE   13 ..............................
........................................................................

 iter      E             dE          RMSdq      gap      omega  full diag
   1    -29.1044635 -0.291045E+02  0.562E-02    8.23       0.0  T
   2    -29.1044645 -0.966089E-06  0.315E-02    8.23       1.0  T
   3    -29.1044645 -0.412345E-08  0.813E-03    8.23       3.0  T
   4    -29.1044647 -0.180697E-06  0.315E-03    8.23       7.7  T
   5    -29.1044647 -0.138099E-07  0.421E-04    8.23      57.6  T
   6    -29.1044647 -0.305398E-09  0.171E-04    8.23     141.6  T
     SCC iter.                  ...        0 min,  0.003 sec
     gradient                   ...        0 min,  0.001 sec
 * total energy  :   -28.8517808 Eh     change       -0.8417393E-04 Eh
   gradient norm :     0.0035384 Eh/α   predicted    -0.5633400E-04 ( -33.07%)
   displ. norm   :     0.1776274 α      lambda       -0.8718510E-04
   maximum displ.:     0.1351115 α      in ANC's #1, #3, #7, ...

........................................................................
.............................. CYCLE   14 ..............................
........................................................................

 iter      E             dE          RMSdq      gap      omega  full diag
   1    -29.1045193 -0.291045E+02  0.547E-02    8.24       0.0  T
   2    -29.1045202 -0.878793E-06  0.300E-02    8.24       1.0  T
   3    -29.1045203 -0.935422E-07  0.696E-03    8.24       3.5  T
   4    -29.1045203 -0.515896E-07  0.276E-03    8.24       8.8  T
   5    -29.1045203 -0.125550E-07  0.561E-04    8.24      43.2  T
   6    -29.1045203 -0.706343E-09  0.144E-04    8.24     167.9  T
     SCC iter.                  ...        0 min,  0.003 sec
     gradient                   ...        0 min,  0.001 sec
 * total energy  :   -28.8518401 Eh     change       -0.5939750E-04 Eh
   gradient norm :     0.0033594 Eh/α   predicted    -0.4497055E-04 ( -24.29%)
   displ. norm   :     0.1358004 α      lambda       -0.4027806E-04
   maximum displ.:     0.0940741 α      in ANC's #1, #3, #2, ...

........................................................................
.............................. CYCLE   15 ..............................
........................................................................

 iter      E             dE          RMSdq      gap      omega  full diag
   1    -29.1037238 -0.291037E+02  0.411E-02    8.24       0.0  T
   2    -29.1037242 -0.446407E-06  0.231E-02    8.24       1.1  T
   3    -29.1037243 -0.824086E-07  0.458E-03    8.24       5.3  T
   4    -29.1037243 -0.150171E-07  0.193E-03    8.24      12.6  T
   5    -29.1037243 -0.385441E-08  0.359E-04    8.24      67.5  T
   6    -29.1037243 -0.608136E-09  0.148E-04    8.24     164.4  T
     SCC iter.                  ...        0 min,  0.003 sec
     gradient                   ...        0 min,  0.001 sec
 * total energy  :   -28.8518629 Eh     change       -0.2275059E-04 Eh
   gradient norm :     0.0028947 Eh/α   predicted    -0.2051094E-04 (  -9.84%)
   displ. norm   :     0.0600825 α      lambda       -0.2763158E-04
   maximum displ.:     0.0445456 α      in ANC's #1, #3, #7, ...

........................................................................
.............................. CYCLE   16 ..............................
........................................................................

 iter      E             dE          RMSdq      gap      omega  full diag
   1    -29.1048988 -0.291049E+02  0.235E-02    8.28       0.0  T
   2    -29.1048991 -0.332873E-06  0.136E-02    8.28       1.8  T
   3    -29.1048991 -0.336405E-07  0.335E-03    8.28       7.2  T
   4    -29.1048991 -0.116254E-07  0.135E-03    8.28      17.9  T
   5    -29.1048991 -0.128422E-08  0.357E-04    8.28      67.9  T
   6    -29.1048991 -0.568875E-09  0.156E-04    8.28     155.0  T
     SCC iter.                  ...        0 min,  0.003 sec
     gradient                   ...        0 min,  0.001 sec
 * total energy  :   -28.8518738 Eh     change       -0.1090716E-04 Eh
   gradient norm :     0.0014167 Eh/α   predicted    -0.1386441E-04 (  27.11%)
   displ. norm   :     0.0445328 α      lambda       -0.7516527E-05
   maximum displ.:     0.0246587 α      in ANC's #5, #4, #2, ...

........................................................................
.............................. CYCLE   17 ..............................
........................................................................

 iter      E             dE          RMSdq      gap      omega  full diag
   1    -29.1045964 -0.291046E+02  0.155E-02    8.28       0.0  T
   2    -29.1045965 -0.120258E-06  0.930E-03    8.28       2.6  T
   3    -29.1045965 -0.716245E-08  0.233E-03    8.28      10.4  T
   4    -29.1045965 -0.336233E-08  0.613E-04    8.28      39.6  T
   5    -29.1045965 -0.196092E-09  0.231E-04    8.28     105.0  T
     SCC iter.                  ...        0 min,  0.002 sec
     gradient                   ...        0 min,  0.001 sec
 * total energy  :   -28.8518797 Eh     change       -0.5870743E-05 Eh
   gradient norm :     0.0009762 Eh/α   predicted    -0.3762173E-05 ( -35.92%)
   displ. norm   :     0.0161797 α      lambda       -0.2001565E-05
   maximum displ.:     0.0083201 α      in ANC's #5, #2, #1, ...

........................................................................
.............................. CYCLE   18 ..............................
........................................................................

 iter      E             dE          RMSdq      gap      omega  full diag
   1    -29.1049267 -0.291049E+02  0.590E-03    8.28       0.0  T
   2    -29.1049267 -0.198889E-07  0.337E-03    8.28       7.2  T
   3    -29.1049267 -0.469605E-09  0.115E-03    8.28      21.0  T
   4    -29.1049267 -0.229544E-08  0.254E-04    8.28      95.6  T
   5    -29.1049267 -0.840181E-10  0.122E-04    8.28     198.9  T
     SCC iter.                  ...        0 min,  0.002 sec
     gradient                   ...        0 min,  0.001 sec
 * total energy  :   -28.8518816 Eh     change       -0.1893414E-05 Eh
   gradient norm :     0.0004750 Eh/α   predicted    -0.1003143E-05 ( -47.02%)
   displ. norm   :     0.0340835 α      lambda       -0.1008949E-05
   maximum displ.:     0.0215671 α      in ANC's #1, #2, #3, ...

   *** GEOMETRY OPTIMIZATION CONVERGED AFTER 18 ITERATIONS ***

------------------------------------------------------------------------
 total energy gain   :        -0.0090880 Eh       -5.7028 kcal/mol
 total RMSD          :         0.5692252 a0        0.3012 Å
 total power (kW/mol):        -1.3255853 (step) -247.7170 (real)
------------------------------------------------------------------------

 ANCopt (total)                0 d,  0 h,  0 min,  0.096 sec
 optimizer setup                ...        0 min,  0.000 sec (  0.077%)
 model hessian                  ...        0 min,  0.007 sec (  7.390%)
 ANC generation                 ...        0 min,  0.000 sec (  0.326%)
 coordinate transformation      ...        0 min,  0.000 sec (  0.109%)
 single point calculation       ...        0 min,  0.085 sec ( 88.241%)
 optimization log               ...        0 min,  0.001 sec (  1.016%)
 hessian update                 ...        0 min,  0.000 sec (  0.245%)
 rational function              ...        0 min,  0.002 sec (  1.920%)

================
 final structure:
================
17
 xtb: 6.7.1 (edcfbbe)
C            1.18124818892160        0.09450188819360        0.00277828550084
C            0.45649976602680        0.37868711660254        1.29881044617950
C            0.95059443281383        1.63794035844199        2.01088036154889
C            0.53028196386342        2.90666007708027        1.28289910292358
S            0.41363083399503        0.97969548504979       -1.42559268613383
O            0.57126966272561        0.03699587888744       -2.53371953258313
O           -0.98124108659908        1.21924058969212       -1.05984982333943
O            1.19631497595677        2.20606973035217       -1.60890071208946
H            1.10266595032250       -0.94992580605104       -0.28345355364799
H            2.22399072507626        0.39686611349572        0.01419458004499
H           -0.59896063794116        0.50259047200586        1.04468675900583
H            0.55352816966752       -0.47600420310217        1.98199939490510
H            0.55118867251188        1.64932951248768        3.03366282797565
H            2.04246115686898        1.60258049961766        2.08829339266951
H           -0.55365240593259        2.99103239690877        1.27534276802774
H            0.94961251820090        3.78871907178329        1.76896423596215
H            0.86202711352207        2.86926081855418        0.24695415304968

 Bond Distances (Angstroems)
 ---------------------------
C1-C2=1.5119         C1-S5=1.8474         C1-H9=1.0858         C1-H10=1.0858        C2-C1=1.5119         C2-C3=1.5287         
C2-H11=1.0927        C2-H12=1.0985        C3-C2=1.5287         C3-C4=1.5219         C3-H13=1.0981        C3-H14=1.0952        
C4-C3=1.5219         C4-H15=1.0872        C4-H16=1.0909        C4-H17=1.0884        S5-C1=1.8474         S5-O6=1.4634         
S5-O7=1.4618         S5-O8=1.4664         O6-S5=1.4634         O7-S5=1.4618         O8-S5=1.4664         H9-C1=1.0858         
H10-C1=1.0858        H11-C2=1.0927        H12-C2=1.0985        H13-C3=1.0981        H14-C3=1.0952        H15-C4=1.0872        
H16-C4=1.0909        H17-C4=1.0884        
 C  H  Rav=1.0914 sigma=0.0047  Rmin=1.0858  Rmax=1.0985     9
 C  C  Rav=1.5208 sigma=0.0069  Rmin=1.5119  Rmax=1.5287     3
 S  C  Rav=1.8474 sigma=0.0000  Rmin=1.8474  Rmax=1.8474     1
 S  O  Rav=1.4638 sigma=0.0019  Rmin=1.4618  Rmax=1.4664     3

 selected bond angles (degree)
 --------------------
S5-C1-C2=111.93                H9-C1-C2=111.85                H9-C1-S5=103.12                H10-C1-C2=113.52               
H10-C1-S5=105.89               H10-C1-H9=109.89               C3-C2-C1=113.53                H11-C2-C1=106.56               
H11-C2-C3=109.09               H12-C2-C1=110.15               H12-C2-C3=108.82               H12-C2-H11=108.55              
C4-C3-C2=112.00                H13-C3-C2=108.96               H13-C3-C4=109.66               H14-C3-C2=109.18               
H14-C3-C4=109.64               H14-C3-H13=107.29              H15-C4-C3=110.08               H16-C4-C3=110.78               
H16-C4-H15=108.88              H17-C4-C3=110.03               H17-C4-H15=107.45              H17-C4-H16=109.55              
O6-S5-C1=103.42                O7-S5-C1=106.35                O7-S5-O6=113.44                O8-S5-C1=106.00                
O8-S5-O6=112.74                O8-S5-O7=113.80                

 selected dihedral angles (degree)
 ---------------------------------
C3-C2-C1-S5=273.33            C3-C2-C1-H9=158.17            C3-C2-C1-H10= 33.13           H11-C2-C1-S5= 33.44           
H11-C2-C1-H9=278.28           H11-C2-C1-H10=153.25          H12-C2-C1-S5=151.00           H12-C2-C1-H9= 35.85           
H12-C2-C1-H10=270.81          C4-C3-C2-C1= 71.45            C4-C3-C2-H11=312.78           C4-C3-C2-H12=194.50           
H13-C3-C2-C1=192.94           H13-C3-C2-H11= 74.28          H13-C3-C2-H12=316.00          H14-C3-C2-C1=309.82           
H14-C3-C2-H11=191.16          H14-C3-C2-H12= 72.88          H15-C4-C3-C2= 63.38           H15-C4-C3-H13=302.29          
H15-C4-C3-H14=184.74          H16-C4-C3-C2=183.86           H16-C4-C3-H13= 62.77          H16-C4-C3-H14=305.22          
H17-C4-C3-C2=305.14           H17-C4-C3-H13=184.05          H17-C4-C3-H14= 66.50          O6-S5-C1-C2=215.43            
O6-S5-C1-H9=335.81            O6-S5-C1-H10= 91.25           O7-S5-C1-C2=335.18            O7-S5-C1-H9= 95.56            
O7-S5-C1-H10=211.00           O8-S5-C1-C2= 96.63            O8-S5-C1-H9=217.01            O8-S5-C1-H10=332.44           
           -------------------------------------------------
          |                Final Singlepoint                |
           -------------------------------------------------

          ...................................................
          :                      SETUP                      :
          :.................................................:
          :  # basis functions                  47          :
          :  # atomic orbitals                  46          :
          :  # shells                           26          :
          :  # electrons                        50          :
          :  max. iterations                   250          :
          :  Hamiltonian                  GFN2-xTB          :
          :  restarted?                      false          :
          :  GBSA solvation                  false          :
          :  PC potential                    false          :
          :  electronic temp.          300.0000000     K    :
          :  accuracy                    1.0000000          :
          :  -> integral cutoff          0.2500000E+02      :
          :  -> integral neglect         0.1000000E-07      :
          :  -> SCF convergence          0.1000000E-05 Eh   :
          :  -> wf. convergence          0.1000000E-03 e    :
          :  Broyden damping             0.4000000          :
          :  net charge                         -1          :
          :  unpaired electrons                  0          :
          ...................................................

 iter      E             dE          RMSdq      gap      omega  full diag
   1    -29.1049267 -0.291049E+02  0.237E-05    8.28       0.0  T
   2    -29.1049267 -0.287770E-12  0.142E-05    8.28    1711.3  T
   3    -29.1049267 -0.103029E-12  0.353E-06    8.28    6877.4  T

   *** convergence criteria satisfied after 3 iterations ***

         #    Occupation            Energy/Eh            Energy/eV
      -------------------------------------------------------------
         1        2.0000           -0.5576654             -15.1748
       ...           ...                  ...                  ...
        19        2.0000           -0.2929542              -7.9717
        20        2.0000           -0.2483879              -6.7590
        21        2.0000           -0.2476940              -6.7401
        22        2.0000           -0.2294790              -6.2444
        23        2.0000           -0.2262891              -6.1576
        24        2.0000           -0.2165380              -5.8923
        25        2.0000           -0.2153280              -5.8594 (HOMO)
        26                          0.0891169               2.4250 (LUMO)
        27                          0.1482317               4.0336
        28                          0.1701596               4.6303
        29                          0.1822273               4.9587
        30                          0.2287359               6.2242
       ...                                ...                  ...
        46                          1.3551122              36.8745
      -------------------------------------------------------------
                  HL-Gap            0.3044449 Eh            8.2844 eV
             Fermi-level           -0.0631056 Eh           -1.7172 eV

 SCC (total)                   0 d,  0 h,  0 min,  0.003 sec
 SCC setup                      ...        0 min,  0.000 sec (  1.687%)
 Dispersion                     ...        0 min,  0.000 sec (  1.378%)
 classical contributions        ...        0 min,  0.000 sec (  0.297%)
 integral evaluation            ...        0 min,  0.001 sec ( 15.559%)
 iterations                     ...        0 min,  0.001 sec ( 41.310%)
 molecular gradient             ...        0 min,  0.001 sec ( 37.459%)
 printout                       ...        0 min,  0.000 sec (  1.888%)

         :::::::::::::::::::::::::::::::::::::::::::::::::::::
         ::                     SUMMARY                     ::
         :::::::::::::::::::::::::::::::::::::::::::::::::::::
         :: total energy             -28.851881569522 Eh    ::
         :: gradient norm              0.000474485049 Eh/a0 ::
         :: HOMO-LUMO gap              8.284367654034 eV    ::
         ::.................................................::
         :: SCC energy               -29.104885466202 Eh    ::
         :: -> isotropic ES            0.213887402626 Eh    ::
         :: -> anisotropic ES         -0.012245130278 Eh    ::
         :: -> anisotropic XC          0.001324267969 Eh    ::
         :: -> dispersion             -0.014921980037 Eh    ::
         :: repulsion energy           0.253003896681 Eh    ::
         :: add. restraining           0.000000000000 Eh    ::
         :: total charge              -1.000000000000 e     ::
         :::::::::::::::::::::::::::::::::::::::::::::::::::::

           -------------------------------------------------
          |                Property Printout                |
           -------------------------------------------------

    * Orbital Energies and Occupations

         #    Occupation            Energy/Eh            Energy/eV
      -------------------------------------------------------------
         1        2.0000           -0.5576654             -15.1748
       ...           ...                  ...                  ...
        13        2.0000           -0.3316264              -9.0240
        14        2.0000           -0.3264126              -8.8821
        15        2.0000           -0.3183211              -8.6620
        16        2.0000           -0.3134666              -8.5299
        17        2.0000           -0.3014987              -8.2042
        18        2.0000           -0.2977940              -8.1034
        19        2.0000           -0.2929542              -7.9717
        20        2.0000           -0.2483879              -6.7590
        21        2.0000           -0.2476940              -6.7401
        22        2.0000           -0.2294790              -6.2444
        23        2.0000           -0.2262891              -6.1576
        24        2.0000           -0.2165380              -5.8923
        25        2.0000           -0.2153280              -5.8594 (HOMO)
        26                          0.0891169               2.4250 (LUMO)
        27                          0.1482317               4.0336
        28                          0.1701596               4.6303
        29                          0.1822273               4.9587
        30                          0.2287359               6.2242
        31                          0.2338625               6.3637
        32                          0.2669412               7.2638
        33                          0.2700515               7.3485
        34                          0.2946221               8.0171
        35                          0.3234567               8.8017
        36                          0.3334343               9.0732
       ...                                ...                  ...
        46                          1.3551122              36.8745
      -------------------------------------------------------------
                  HL-Gap            0.3044449 Eh            8.2844 eV
             Fermi-level           -0.0631056 Eh           -1.7172 eV

     #   Z          covCN         q      C6AA      α(0)
     1   6 C        3.794    -0.143    23.252     6.867
     2   6 C        3.827    -0.057    21.578     6.610
     3   6 C        3.799    -0.043    21.338     6.577
     4   6 C        3.752    -0.117    22.795     6.809
     5  16 S        3.571     1.120   103.275    17.104
     6   8 O        0.860    -0.673    27.982     7.092
     7   8 O        0.860    -0.668    27.846     7.075
     8   8 O        0.859    -0.674    28.020     7.097
     9   1 H        0.925     0.027     2.636     2.539
    10   1 H        0.925     0.027     2.623     2.533
    11   1 H        0.924     0.058     2.226     2.333
    12   1 H        0.923     0.004     2.994     2.706
    13   1 H        0.923     0.003     3.009     2.713
    14   1 H        0.924     0.014     2.832     2.632
    15   1 H        0.925     0.031     2.569     2.506
    16   1 H        0.924     0.005     2.966     2.693
    17   1 H        0.925     0.086     1.922     2.168

 Mol. C6AA /au·bohr⁶  :       3508.758792
 Mol. C8AA /au·bohr⁸  :      86024.723382
 Mol. α(0) /au        :         88.053212


Wiberg/Mayer (AO) data.
largest (>0.10) Wiberg bond orders for each atom

 ---------------------------------------------------------------------------
     #   Z sym  total        # sym  WBO       # sym  WBO       # sym  WBO
 ---------------------------------------------------------------------------
     1   6 C    3.986 --     2 C    1.023     9 H    0.983    10 H    0.981
                             5 S    0.727
     2   6 C    3.996 --     1 C    1.023     3 C    1.008    12 H    0.976
                            11 H    0.966
     3   6 C    4.000 --     4 C    1.021     2 C    1.008    13 H    0.980
                            14 H    0.978
     4   6 C    3.988 --     3 C    1.021    16 H    0.989    15 H    0.988
                            17 H    0.962
     5  16 S    5.140 --     6 O    1.477     7 O    1.473     8 O    1.448
                             1 C    0.727
     6   8 O    1.780 --     5 S    1.477     7 O    0.105     8 O    0.104
     7   8 O    1.789 --     5 S    1.473     8 O    0.105     6 O    0.105
     8   8 O    1.787 --     5 S    1.448     7 O    0.105     6 O    0.104
     9   1 H    0.999 --     1 C    0.983
    10   1 H    0.999 --     1 C    0.981
    11   1 H    0.997 --     2 C    0.966
    12   1 H    1.000 --     2 C    0.976
    13   1 H    1.000 --     3 C    0.980
    14   1 H    1.000 --     3 C    0.978
    15   1 H    0.999 --     4 C    0.988
    16   1 H    1.000 --     4 C    0.989
    17   1 H    0.993 --     4 C    0.962
 ---------------------------------------------------------------------------

Topologies differ in total number of bonds
Writing topology from bond orders to xtbtopo.mol

molecular dipole:
                 x           y           z       tot (Debye)
 q only:       -0.417      -2.409       3.326
   full:       -0.305      -2.550       3.526      11.088
molecular quadrupole (traceless):
                xx          xy          yy          xz          yz          zz
 q only:        8.461      -3.260       0.056       4.022       7.833      -8.516
  q+dip:       10.011      -3.458      -0.803       4.523       8.129      -9.209
   full:        9.498      -3.578      -0.558       4.661       8.014      -8.940

           -------------------------------------------------
          |                Geometry Summary                 |
           -------------------------------------------------

      molecular mass/u    :      137.1774125
   center of mass at/Å    :        0.5138637       1.1630824      -0.4555754
  moments of inertia/u·Å² :        0.1622714E+03   0.3872210E+03   0.4340441E+03
rotational constants/cm⁻¹ :        0.1038854E+00   0.4353491E-01   0.3883852E-01

 * 16 selected distances

     #   Z          #   Z                                           value/Å
     1   6 C        2   6 C                                       1.5118602
     2   6 C        3   6 C                                       1.5286897
     3   6 C        4   6 C                                       1.5219295
     1   6 C        5  16 S                                       1.8474437 (max)
     5  16 S        6   8 O                                       1.4633790
     5  16 S        7   8 O                                       1.4617858
     5  16 S        8   8 O                                       1.4663528
     1   6 C        9   1 H                                       1.0857869
     1   6 C       10   1 H                                       1.0857563 (min)
     2   6 C       11   1 H                                       1.0926700
     2   6 C       12   1 H                                       1.0984804
     3   6 C       13   1 H                                       1.0980614
     3   6 C       14   1 H                                       1.0951786
     4   6 C       15   1 H                                       1.0872395
     4   6 C       16   1 H                                       1.0909288
     4   6 C       17   1 H                                       1.0884097

 * 4 distinct bonds (by element types)

   Z      Z             #   av. dist./Å        max./Å        min./Å
   1 H    6 C           9     1.0913902     1.0984804     1.0857563
   6 C    6 C           3     1.5208265     1.5286897     1.5118602
   6 C   16 S           1     1.8474437     1.8474437     1.8474437
   8 O   16 S           3     1.4638392     1.4663528     1.4617858


optimized geometry written to: xtbopt.xyz


           -------------------------------------------------
          | TOTAL ENERGY              -28.851881569522 Eh   |
          | GRADIENT NORM               0.000474485049 Eh/α |
          | HOMO-LUMO GAP               8.284367654034 eV   |
           -------------------------------------------------

------------------------------------------------------------------------
 * finished run on 2024/12/20 at 01:54:48.955     
------------------------------------------------------------------------
 total:
 * wall-time:     0 d,  0 h,  0 min,  0.125 sec
 *  cpu-time:     0 d,  0 h,  0 min,  0.978 sec
 * ratio c/w:     7.824 speedup
 SCF:
 * wall-time:     0 d,  0 h,  0 min,  0.010 sec
 *  cpu-time:     0 d,  0 h,  0 min,  0.076 sec
 * ratio c/w:     7.880 speedup
 ANC optimizer:
 * wall-time:     0 d,  0 h,  0 min,  0.100 sec
 *  cpu-time:     0 d,  0 h,  0 min,  0.794 sec
 * ratio c/w:     7.916 speedup

