      -----------------------------------------------------------      
     |                   =====================                   |     
     |                           x T B                           |     
     |                   =====================                   |     
     |                         S. Grimme                         |     
     |          Mulliken Center for Theoretical Chemistry        |     
     |                    University of Bonn                     |     
      -----------------------------------------------------------      

   * xtb version 6.7.1 (edcfbbe) compiled by 'conda@3ef47c1a292c' on 2024-11-25

   xtb is free software: you can redistribute it and/or modify it under
   the terms of the GNU Lesser General Public License as published by
   the Free Software Foundation, either version 3 of the License, or
   (at your option) any later version.
   
   xtb is distributed in the hope that it will be useful,
   but WITHOUT ANY WARRANTY; without even the implied warranty of
   MERCHANTABILITY or FITNESS FOR A PARTICULAR PURPOSE.  See the
   GNU Lesser General Public License for more details.
   
   Cite this work as:
   * C. Bannwarth, E. Caldeweyher, S. Ehlert, A. Hansen, P. Pracht,
     J. Seibert, S. Spicher, S. Grimme, WIREs Comput. Mol. Sci., 2020, 11,
     e01493. DOI: 10.1002/wcms.1493
   
   for GFN2-xTB:
   * C. Bannwarth, S. Ehlert and S. Grimme., J. Chem. Theory Comput., 2019,
     15, 1652-1671. DOI: 10.1021/acs.jctc.8b01176
   for GFN1-xTB:
   * S. Grimme, C. Bannwarth, P. Shushkov, J. Chem. Theory Comput., 2017,
     13, 1989-2009. DOI: 10.1021/acs.jctc.7b00118
   for GFN0-xTB:
   * P. Pracht, E. Caldeweyher, S. Ehlert, S. Grimme, ChemRxiv, 2019, preprint.
     DOI: 10.26434/chemrxiv.8326202.v1
   for GFN-FF:
   * S. Spicher and S. Grimme, Angew. Chem. Int. Ed., 2020, 59, 15665-15673.
     DOI: 10.1002/anie.202004239
   
   for ALPB and GBSA implicit solvation:
   * S. Ehlert, M. Stahn, S. Spicher, S. Grimme, J. Chem. Theory Comput.,
     2021, 17, 4250-4261. DOI: 10.1021/acs.jctc.1c00471
   
   for ddCOSMO and CPCM-X implicit solvation:
   * M. Stahn, S. Ehlert, S. Grimme, J. Phys. Chem. A,
     2023, XX, XXXX-XXXX. DOI: 10.1021/acs.jpca.3c04382
   
   for DFT-D4:
   * E. Caldeweyher, C. Bannwarth and S. Grimme, J. Chem. Phys., 2017,
     147, 034112. DOI: 10.1063/1.4993215
   * E. Caldeweyher, S. Ehlert, A. Hansen, H. Neugebauer, S. Spicher,
     C. Bannwarth and S. Grimme, J. Chem. Phys., 2019, 150, 154122.
     DOI: 10.1063/1.5090222
   * E. Caldeweyher, J.-M. Mewes, S. Ehlert and S. Grimme, Phys. Chem. Chem. Phys.
     2020, 22, 8499-8512. DOI: 10.1039/D0CP00502A
   
   for sTDA-xTB:
   * S. Grimme and C. Bannwarth, J. Chem. Phys., 2016, 145, 054103.
     DOI: 10.1063/1.4959605
   
   in the mass-spec context:
   * V. Asgeirsson, C. Bauer and S. Grimme, Chem. Sci., 2017, 8, 4879.
     DOI: 10.1039/c7sc00601b
   * J. Koopman and S. Grimme, ACS Omega 2019, 4, 12, 15120-15133.
     DOI: 10.1021/acsomega.9b02011
   
   for metadynamics refer to:
   * S. Grimme, J. Chem. Theory Comput., 2019, 155, 2847-2862
     DOI: 10.1021/acs.jctc.9b00143
   
   for SPH calculations refer to:
   * S. Spicher and S. Grimme, J. Chem. Theory Comput., 2021, 17, 1701-1714
     DOI: 10.1021/acs.jctc.0c01306
   
   for ONIOM refer to:
   * C. Plett, A. Katbashev, S. Ehlert, S. Grimme, M. Bursch,
     Phys. Chem. Chem. Phys., 2023, 25, 17860-17868. DOI: 10.1039/D3CP02178E
   
   for DIPRO refer to:
   * J. Kohn, N. Gildemeister, S. Grimme, D. Fazzi, A. Hansen,
     J. Chem. Phys., 2023, just accepted.
   
   for PTB refer to:
   * S. Grimme, M. Mueller, A. Hansen, J. Chem. Phys., 2023, 158, 124111.
     DOI: 10.1063/5.0137838
   
   with help from (in alphabetical order)
   P. Atkinson, C. Bannwarth, F. Bohle, G. Brandenburg, E. Caldeweyher
   M. Checinski, S. Dohm, S. Ehlert, S. Ehrlich, I. Gerasimov, C. Hölzer
   A. Katbashev, J. Kohn, J. Koopman, C. Lavigne, S. Lehtola, F. März, M. Müller,
   F. Musil, H. Neugebauer, J. Pisarek, C. Plett, P. Pracht, F. Pultar,
   J. Seibert, P. Shushkov, S. Spicher, M. Stahn, M. Steiner, T. Strunk,
   J. Stückrath, T. Rose, and J. Unsleber
   
 * started run on 2024/12/20 at 01:54:49.056     
   ID    Z sym.   atoms
    1   16 S      1
    2    8 O      2-5
    3    1 H      6

           -------------------------------------------------
          |                Calculation Setup                |
           -------------------------------------------------

          program call               : xtb A129.xyz --opt --namespace A129 --charge -1
          calculation namespace      : A129
          coordinate file            : A129.xyz
          omp threads                :                     8


           -------------------------------------------------
          |                 G F N 2 - x T B                 |
           -------------------------------------------------

        Reference                      10.1021/acs.jctc.8b01176
      * Hamiltonian:
        H0-scaling (s, p, d)           1.850000    2.230000    2.230000
        zeta-weighting                 0.500000
      * Dispersion:
        s8                             2.700000
        a1                             0.520000
        a2                             5.000000
        s9                             5.000000
      * Repulsion:
        kExp                           1.500000    1.000000
        rExp                           1.000000
      * Coulomb:
        alpha                          2.000000
        third order                    shell-resolved
        anisotropic                    true
        a3                             3.000000
        a5                             4.000000
        cn-shift                       1.200000
        cn-exp                         4.000000
        max-rad                        5.000000


          ...................................................
          :                      SETUP                      :
          :.................................................:
          :  # basis functions                  27          :
          :  # atomic orbitals                  26          :
          :  # shells                           12          :
          :  # electrons                        32          :
          :  max. iterations                   250          :
          :  Hamiltonian                  GFN2-xTB          :
          :  restarted?                      false          :
          :  GBSA solvation                  false          :
          :  PC potential                    false          :
          :  electronic temp.          300.0000000     K    :
          :  accuracy                    1.0000000          :
          :  -> integral cutoff          0.2500000E+02      :
          :  -> integral neglect         0.1000000E-07      :
          :  -> SCF convergence          0.1000000E-05 Eh   :
          :  -> wf. convergence          0.1000000E-03 e    :
          :  Broyden damping             0.4000000          :
          :  net charge                         -1          :
          :  unpaired electrons                  0          :
          ...................................................

 iter      E             dE          RMSdq      gap      omega  full diag
   1    -20.3513037 -0.203513E+02  0.998E+00    9.49       0.0  T
   2    -20.3628628 -0.115591E-01  0.583E+00    8.92       1.0  T
   3    -20.3680457 -0.518291E-02  0.105E+00    8.44       1.0  T
   4    -20.3688210 -0.775322E-03  0.520E-01    8.48       1.0  T
   5    -20.3691078 -0.286788E-03  0.203E-01    8.52       1.0  T
   6    -20.3691541 -0.462535E-04  0.928E-02    8.51       1.0  T
   7    -20.3691644 -0.103363E-04  0.136E-02    8.51       3.0  T
   8    -20.3691644  0.996792E-08  0.910E-03    8.51       4.5  T
   9    -20.3691645 -0.990534E-07  0.197E-03    8.51      20.8  T
  10    -20.3691645 -0.346513E-08  0.419E-04    8.51      97.5  T
  11    -20.3691645 -0.181252E-09  0.120E-04    8.51     339.5  T

   *** convergence criteria satisfied after 11 iterations ***

         #    Occupation            Energy/Eh            Energy/eV
      -------------------------------------------------------------
         1        2.0000           -0.5680798             -15.4582
       ...           ...                  ...                  ...
        10        2.0000           -0.2933944              -7.9837
        11        2.0000           -0.2504320              -6.8146
        12        2.0000           -0.2438002              -6.6341
        13        2.0000           -0.2432320              -6.6187
        14        2.0000           -0.2352463              -6.4014
        15        2.0000           -0.2324799              -6.3261
        16        2.0000           -0.2211998              -6.0192 (HOMO)
        17                          0.0915384               2.4909 (LUMO)
        18                          0.1708704               4.6496
        19                          0.2570769               6.9954
        20                          0.2573243               7.0021
        21                          0.2911173               7.9217
       ...                                ...                  ...
        26                          1.3879317              37.7675
      -------------------------------------------------------------
                  HL-Gap            0.3127383 Eh            8.5100 eV
             Fermi-level           -0.0648307 Eh           -1.7641 eV

 SCC (total)                   0 d,  0 h,  0 min,  0.005 sec
 SCC setup                      ...        0 min,  0.000 sec (  1.809%)
 Dispersion                     ...        0 min,  0.000 sec (  3.679%)
 classical contributions        ...        0 min,  0.000 sec (  0.576%)
 integral evaluation            ...        0 min,  0.001 sec ( 27.886%)
 iterations                     ...        0 min,  0.003 sec ( 53.667%)
 molecular gradient             ...        0 min,  0.001 sec ( 10.582%)
 printout                       ...        0 min,  0.000 sec (  1.498%)

         :::::::::::::::::::::::::::::::::::::::::::::::::::::
         ::                     SUMMARY                     ::
         :::::::::::::::::::::::::::::::::::::::::::::::::::::
         :: total energy             -20.290786760040 Eh    ::
         :: gradient norm              0.048331079431 Eh/a0 ::
         :: HOMO-LUMO gap              8.510041012835 eV    ::
         ::.................................................::
         :: SCC energy               -20.369164211455 Eh    ::
         :: -> isotropic ES            0.227310539438 Eh    ::
         :: -> anisotropic ES         -0.019572546869 Eh    ::
         :: -> anisotropic XC         -0.007236400825 Eh    ::
         :: -> dispersion             -0.004326790737 Eh    ::
         :: repulsion energy           0.078377451415 Eh    ::
         :: add. restraining           0.000000000000 Eh    ::
         :: total charge              -1.000000000000 e     ::
         :::::::::::::::::::::::::::::::::::::::::::::::::::::

      ----------------------------------------------------------- 
     |                   =====================                   |
     |                        A N C O P T                        |
     |                   =====================                   |
     |               Approximate Normal Coordinate               |
     |                Rational Function Optimizer                |
      ----------------------------------------------------------- 
      ----------------------------------------------------------- 
     |                   =====================                   |
     |                        A N C O P T                        |
     |                   =====================                   |
     |               Approximate Normal Coordinate               |
     |                Rational Function Optimizer                |
      ----------------------------------------------------------- 

          ...................................................
          :                      SETUP                      :
          :.................................................:
          :   optimization level            normal          :
          :   max. optcycles                   200          :
          :   ANC micro-cycles                  20          :
          :   degrees of freedom                12          :
          :.................................................:
          :   RF solver                   davidson          :
          :   write xtbopt.log                true          :
          :   linear?                        false          :
          :   energy convergence         0.5000000E-05 Eh   :
          :   grad. convergence          0.1000000E-02 Eh/α :
          :   maxmium RF displ.          1.0000000          :
          :   Hlow (freq-cutoff)         0.1000000E-01      :
          :   Hmax (freq-cutoff)         5.0000000          :
          :   S6 in model hess.         20.0000000          :
          ...................................................

generating ANC from exact Hessian ...
Using Lindh-Hessian (1995)
 Shifting diagonal of input Hessian by    0.0000000000000000     
 Lowest  eigenvalues of input Hessian
    0.000000    0.000000    0.000000    0.000000    0.000000    0.000000
    0.104791    0.125923    0.242647    0.352800    0.463309    0.636143
    0.637971    1.178421    1.321302    2.204451    3.550123    3.653399
 Highest eigenvalues
    0.637971    1.178421    1.321302    2.204451    3.550123    3.653399


........................................................................
.............................. CYCLE    1 ..............................
........................................................................

 iter      E             dE          RMSdq      gap      omega  full diag
   1    -20.3691645 -0.203692E+02  0.858E-05    8.51       0.0  T
   2    -20.3691645 -0.360956E-11  0.596E-05    8.51     685.2  T
   3    -20.3691645 -0.382272E-11  0.163E-05    8.51    2509.2  T
     SCC iter.                  ...        0 min,  0.001 sec
     gradient                   ...        0 min,  0.000 sec
 * total energy  :   -20.2907868 Eh     change       -0.6721734E-11 Eh
   gradient norm :     0.0483316 Eh/α   predicted     0.0000000E+00 (-100.00%)
   displ. norm   :     0.0849512 α      lambda       -0.3251095E-02
   maximum displ.:     0.0654141 α      in ANC's #5, #2, #9, ...

........................................................................
.............................. CYCLE    2 ..............................
........................................................................

 iter      E             dE          RMSdq      gap      omega  full diag
   1    -20.3732893 -0.203733E+02  0.212E-01    8.68       0.0  T
   2    -20.3733031 -0.138369E-04  0.107E-01    8.69       1.0  T
   3    -20.3733061 -0.294412E-05  0.322E-02    8.69       1.3  T
   4    -20.3733064 -0.313533E-06  0.189E-02    8.69       2.2  T
   5    -20.3733065 -0.117404E-06  0.353E-03    8.69      11.5  T
   6    -20.3733065 -0.256815E-08  0.174E-03    8.69      23.5  T
   7    -20.3733065 -0.740965E-09  0.206E-04    8.69     198.5  T
   8    -20.3733065 -0.519513E-10  0.608E-05    8.69     671.9  T
     SCC iter.                  ...        0 min,  0.001 sec
     gradient                   ...        0 min,  0.001 sec
 * total energy  :   -20.2932218 Eh     change       -0.2435037E-02 Eh
   gradient norm :     0.0265272 Eh/α   predicted    -0.1637279E-02 ( -32.76%)
   displ. norm   :     0.0879345 α      lambda       -0.1892049E-02
   maximum displ.:     0.0767249 α      in ANC's #5, #2, #7, ...

........................................................................
.............................. CYCLE    3 ..............................
........................................................................

 iter      E             dE          RMSdq      gap      omega  full diag
   1    -20.3752843 -0.203753E+02  0.218E-01    8.66       0.0  T
   2    -20.3753045 -0.201636E-04  0.114E-01    8.68       1.0  T
   3    -20.3753076 -0.317589E-05  0.302E-02    8.69       1.3  T
   4    -20.3753079 -0.269936E-06  0.185E-02    8.69       2.2  T
   5    -20.3753080 -0.112174E-06  0.370E-03    8.69      11.0  T
   6    -20.3753080 -0.420489E-08  0.183E-03    8.69      22.3  T
   7    -20.3753080 -0.109669E-08  0.267E-04    8.69     152.6  T
   8    -20.3753080 -0.741665E-10  0.768E-05    8.69     531.5  T
     SCC iter.                  ...        0 min,  0.001 sec
     gradient                   ...        0 min,  0.001 sec
 * total energy  :   -20.2943097 Eh     change       -0.1087866E-02 Eh
   gradient norm :     0.0130806 Eh/α   predicted    -0.9533415E-03 ( -12.37%)
   displ. norm   :     0.0277658 α      lambda       -0.2175737E-03
   maximum displ.:     0.0206714 α      in ANC's #5, #2, #10, ...

........................................................................
.............................. CYCLE    4 ..............................
........................................................................

 iter      E             dE          RMSdq      gap      omega  full diag
   1    -20.3750534 -0.203751E+02  0.446E-02    8.62       0.0  T
   2    -20.3750563 -0.292302E-05  0.308E-02    8.63       1.3  T
   3    -20.3750565 -0.191352E-06  0.156E-02    8.63       2.6  T
   4    -20.3750565 -0.412404E-07  0.385E-03    8.63      10.6  T
   5    -20.3750565 -0.349668E-08  0.825E-04    8.63      49.5  T
   6    -20.3750565 -0.427622E-09  0.466E-04    8.63      87.6  T
     SCC iter.                  ...        0 min,  0.001 sec
     gradient                   ...        0 min,  0.001 sec
 * total energy  :   -20.2944724 Eh     change       -0.1627598E-03 Eh
   gradient norm :     0.0080291 Eh/α   predicted    -0.1088717E-03 ( -33.11%)
   displ. norm   :     0.0460055 α      lambda       -0.1975137E-03
   maximum displ.:     0.0398127 α      in ANC's #2, #5, #10, ...

........................................................................
.............................. CYCLE    5 ..............................
........................................................................

 iter      E             dE          RMSdq      gap      omega  full diag
   1    -20.3747670 -0.203748E+02  0.477E-02    8.56       0.0  T
   2    -20.3747726 -0.561913E-05  0.376E-02    8.56       1.1  T
   3    -20.3747728 -0.186898E-06  0.277E-02    8.57       1.5  T
   4    -20.3747729 -0.117421E-06  0.444E-03    8.57       9.2  T
   5    -20.3747729 -0.547938E-08  0.100E-03    8.57      40.6  T
   6    -20.3747729 -0.643325E-09  0.574E-04    8.57      71.2  T
   7    -20.3747729 -0.444651E-09  0.164E-04    8.57     248.7  T
     SCC iter.                  ...        0 min,  0.001 sec
     gradient                   ...        0 min,  0.000 sec
 * total energy  :   -20.2945962 Eh     change       -0.1238024E-03 Eh
   gradient norm :     0.0041214 Eh/α   predicted    -0.9896773E-04 ( -20.06%)
   displ. norm   :     0.0297326 α      lambda       -0.5781491E-04
   maximum displ.:     0.0290675 α      in ANC's #2, #10, #5, ...

........................................................................
.............................. CYCLE    6 ..............................
........................................................................

 iter      E             dE          RMSdq      gap      omega  full diag
   1    -20.3749254 -0.203749E+02  0.323E-02    8.55       0.0  T
   2    -20.3749265 -0.108719E-05  0.185E-02    8.55       2.2  T
   3    -20.3749265 -0.384460E-07  0.125E-02    8.55       3.3  T
   4    -20.3749265 -0.200836E-07  0.143E-03    8.55      28.6  T
   5    -20.3749265 -0.103241E-08  0.339E-04    8.55     120.3  T
   6    -20.3749265 -0.138758E-09  0.134E-04    8.55     304.2  T
     SCC iter.                  ...        0 min,  0.001 sec
     gradient                   ...        0 min,  0.001 sec
 * total energy  :   -20.2946372 Eh     change       -0.4102179E-04 Eh
   gradient norm :     0.0037815 Eh/α   predicted    -0.2893261E-04 ( -29.47%)
   displ. norm   :     0.0265462 α      lambda       -0.3570631E-04
   maximum displ.:     0.0261311 α      in ANC's #2, #9, #3, ...

........................................................................
.............................. CYCLE    7 ..............................
........................................................................

 iter      E             dE          RMSdq      gap      omega  full diag
   1    -20.3752506 -0.203753E+02  0.294E-02    8.56       0.0  T
   2    -20.3752509 -0.286022E-06  0.139E-02    8.56       2.9  T
   3    -20.3752510 -0.313776E-07  0.673E-03    8.56       6.1  T
   4    -20.3752510 -0.101636E-07  0.182E-03    8.56      22.4  T
   5    -20.3752510 -0.117399E-08  0.575E-04    8.56      71.0  T
   6    -20.3752510 -0.221853E-09  0.236E-04    8.56     172.8  T
     SCC iter.                  ...        0 min,  0.001 sec
     gradient                   ...        0 min,  0.000 sec
 * total energy  :   -20.2946597 Eh     change       -0.2241260E-04 Eh
   gradient norm :     0.0030049 Eh/α   predicted    -0.1786487E-04 ( -20.29%)
   displ. norm   :     0.0120706 α      lambda       -0.9934109E-05
   maximum displ.:     0.0117668 α      in ANC's #2, #9, #3, ...

........................................................................
.............................. CYCLE    8 ..............................
........................................................................

 iter      E             dE          RMSdq      gap      omega  full diag
   1    -20.3753890 -0.203754E+02  0.121E-02    8.57       0.0  T
   2    -20.3753892 -0.131186E-06  0.817E-03    8.56       5.0  T
   3    -20.3753892 -0.120102E-07  0.314E-03    8.56      13.0  T
   4    -20.3753892 -0.213512E-08  0.962E-04    8.56      42.4  T
   5    -20.3753892 -0.373465E-09  0.375E-04    8.56     108.9  T
     SCC iter.                  ...        0 min,  0.001 sec
     gradient                   ...        0 min,  0.001 sec
 * total energy  :   -20.2946671 Eh     change       -0.7443256E-05 Eh
   gradient norm :     0.0023726 Eh/α   predicted    -0.4965960E-05 ( -33.28%)
   displ. norm   :     0.0145029 α      lambda       -0.1035559E-04
   maximum displ.:     0.0136841 α      in ANC's #2, #5, #10, ...

........................................................................
.............................. CYCLE    9 ..............................
........................................................................

 iter      E             dE          RMSdq      gap      omega  full diag
   1    -20.3754446 -0.203754E+02  0.185E-02    8.58       0.0  T
   2    -20.3754451 -0.506669E-06  0.144E-02    8.58       2.8  T
   3    -20.3754451 -0.217830E-07  0.844E-03    8.58       4.8  T
   4    -20.3754451 -0.795475E-08  0.149E-03    8.58      27.5  T
   5    -20.3754451 -0.613639E-09  0.599E-04    8.58      68.1  T
   6    -20.3754451 -0.222180E-09  0.242E-04    8.58     169.0  T
     SCC iter.                  ...        0 min,  0.001 sec
     gradient                   ...        0 min,  0.001 sec
 * total energy  :   -20.2946739 Eh     change       -0.6786967E-05 Eh
   gradient norm :     0.0014430 Eh/α   predicted    -0.5180293E-05 ( -23.67%)
   displ. norm   :     0.0086846 α      lambda       -0.3278864E-05
   maximum displ.:     0.0070656 α      in ANC's #2, #5, #10, ...

........................................................................
.............................. CYCLE   10 ..............................
........................................................................

 iter      E             dE          RMSdq      gap      omega  full diag
   1    -20.3753686 -0.203754E+02  0.190E-02    8.59       0.0  T
   2    -20.3753690 -0.447524E-06  0.135E-02    8.59       3.0  T
   3    -20.3753691 -0.139863E-07  0.822E-03    8.59       5.0  T
   4    -20.3753691 -0.429437E-08  0.120E-03    8.59      34.0  T
   5    -20.3753691 -0.278501E-09  0.434E-04    8.59      94.1  T
   6    -20.3753691 -0.859437E-10  0.160E-04    8.59     255.5  T
     SCC iter.                  ...        0 min,  0.001 sec
     gradient                   ...        0 min,  0.001 sec
 * total energy  :   -20.2946760 Eh     change       -0.2107613E-05 Eh
   gradient norm :     0.0006015 Eh/α   predicted    -0.1640617E-05 ( -22.16%)
   displ. norm   :     0.0039449 α      lambda       -0.3699736E-06
   maximum displ.:     0.0038233 α      in ANC's #2, #9, #5, ...

   *** GEOMETRY OPTIMIZATION CONVERGED AFTER 10 ITERATIONS ***

------------------------------------------------------------------------
 total energy gain   :        -0.0038892 Eh       -2.4405 kcal/mol
 total RMSD          :         0.0889571 a0        0.0471 Å
 total power (kW/mol):        -1.0211190 (step) -473.7935 (real)
------------------------------------------------------------------------

 ANCopt (total)                0 d,  0 h,  0 min,  0.022 sec
 optimizer setup                ...        0 min,  0.000 sec (  0.274%)
 model hessian                  ...        0 min,  0.000 sec (  0.975%)
 ANC generation                 ...        0 min,  0.000 sec (  0.330%)
 coordinate transformation      ...        0 min,  0.000 sec (  0.214%)
 single point calculation       ...        0 min,  0.020 sec ( 92.188%)
 optimization log               ...        0 min,  0.000 sec (  1.624%)
 hessian update                 ...        0 min,  0.000 sec (  0.586%)
 rational function              ...        0 min,  0.000 sec (  2.141%)

================
 final structure:
================
6
 xtb: 6.7.1 (edcfbbe)
S            1.09998328560810       -0.01287012586785       -0.08790894116702
O            0.51204537869358        1.11934593919760        0.61507006000401
O            0.51204247401307       -0.23841905181368       -1.40138378635859
O            0.57101551584150       -1.32349309802933        0.79459055583025
O            2.54349932213359       -0.07895291781027       -0.04341467025265
H           -0.34736597628985       -1.11955074567647        0.65726678194401

 Bond Distances (Angstroems)
 ---------------------------
S1-O2=1.4566         S1-O3=1.4566         S1-O4=1.6662         S1-O5=1.4457         O2-S1=1.4566         O3-S1=1.4566         
O4-S1=1.6662         O4-H6=0.9507         O5-S1=1.4457         H6-O4=0.9507         
 O  H  Rav=0.9507 sigma=0.0000  Rmin=0.9507  Rmax=0.9507     1
 S  O  Rav=1.5063 sigma=0.0924  Rmin=1.4457  Rmax=1.6662     4

 selected bond angles (degree)
 --------------------
O3-S1-O2=113.12                O4-S1-O2=103.16                O4-S1-O3=103.16                O5-S1-O2=115.07                
O5-S1-O3=115.07                O5-S1-O4=105.35                H6-O4-S1= 93.52                

 selected dihedral angles (degree)
 ---------------------------------
H6-O4-S1-O2= 58.98            H6-O4-S1-O3=301.02            H6-O4-S1-O5=180.00            
           -------------------------------------------------
          |                Final Singlepoint                |
           -------------------------------------------------

          ...................................................
          :                      SETUP                      :
          :.................................................:
          :  # basis functions                  27          :
          :  # atomic orbitals                  26          :
          :  # shells                           12          :
          :  # electrons                        32          :
          :  max. iterations                   250          :
          :  Hamiltonian                  GFN2-xTB          :
          :  restarted?                      false          :
          :  GBSA solvation                  false          :
          :  PC potential                    false          :
          :  electronic temp.          300.0000000     K    :
          :  accuracy                    1.0000000          :
          :  -> integral cutoff          0.2500000E+02      :
          :  -> integral neglect         0.1000000E-07      :
          :  -> SCF convergence          0.1000000E-05 Eh   :
          :  -> wf. convergence          0.1000000E-03 e    :
          :  Broyden damping             0.4000000          :
          :  net charge                         -1          :
          :  unpaired electrons                  0          :
          ...................................................

 iter      E             dE          RMSdq      gap      omega  full diag
   1    -20.3753691 -0.203754E+02  0.381E-05    8.59       0.0  T
   2    -20.3753691 -0.664357E-12  0.259E-05    8.59    1576.2  T
   3    -20.3753691 -0.685674E-12  0.883E-06    8.59    4621.4  T

   *** convergence criteria satisfied after 3 iterations ***

         #    Occupation            Energy/Eh            Energy/eV
      -------------------------------------------------------------
         1        2.0000           -0.5703465             -15.5199
       ...           ...                  ...                  ...
        10        2.0000           -0.2963017              -8.0628
        11        2.0000           -0.2564702              -6.9789
        12        2.0000           -0.2521065              -6.8602
        13        2.0000           -0.2502949              -6.8109
        14        2.0000           -0.2389408              -6.5019
        15        2.0000           -0.2361658              -6.4264
        16        2.0000           -0.2255154              -6.1366 (HOMO)
        17                          0.0901980               2.4544 (LUMO)
        18                          0.1512842               4.1167
        19                          0.2378004               6.4709
        20                          0.2422297               6.5914
        21                          0.3221618               8.7665
       ...                                ...                  ...
        26                          1.4093347              38.3499
      -------------------------------------------------------------
                  HL-Gap            0.3157134 Eh            8.5910 eV
             Fermi-level           -0.0676587 Eh           -1.8411 eV

 SCC (total)                   0 d,  0 h,  0 min,  0.002 sec
 SCC setup                      ...        0 min,  0.000 sec (  5.792%)
 Dispersion                     ...        0 min,  0.000 sec (  0.812%)
 classical contributions        ...        0 min,  0.000 sec (  0.326%)
 integral evaluation            ...        0 min,  0.000 sec ( 20.066%)
 iterations                     ...        0 min,  0.001 sec ( 32.796%)
 molecular gradient             ...        0 min,  0.001 sec ( 35.534%)
 printout                       ...        0 min,  0.000 sec (  3.850%)

         :::::::::::::::::::::::::::::::::::::::::::::::::::::
         ::                     SUMMARY                     ::
         :::::::::::::::::::::::::::::::::::::::::::::::::::::
         :: total energy             -20.294675997060 Eh    ::
         :: gradient norm              0.000601463443 Eh/a0 ::
         :: HOMO-LUMO gap              8.590997660267 eV    ::
         ::.................................................::
         :: SCC energy               -20.375368753046 Eh    ::
         :: -> isotropic ES            0.223934960842 Eh    ::
         :: -> anisotropic ES         -0.019612113823 Eh    ::
         :: -> anisotropic XC         -0.006960564899 Eh    ::
         :: -> dispersion             -0.004320851799 Eh    ::
         :: repulsion energy           0.080692755986 Eh    ::
         :: add. restraining           0.000000000000 Eh    ::
         :: total charge              -1.000000000000 e     ::
         :::::::::::::::::::::::::::::::::::::::::::::::::::::

           -------------------------------------------------
          |                Property Printout                |
           -------------------------------------------------

    * Orbital Energies and Occupations

         #    Occupation            Energy/Eh            Energy/eV
      -------------------------------------------------------------
         1        2.0000           -0.5703465             -15.5199
       ...           ...                  ...                  ...
         4        2.0000           -0.4673424             -12.7170
         5        2.0000           -0.4302350             -11.7073
         6        2.0000           -0.3975616             -10.8182
         7        2.0000           -0.3519093              -9.5759
         8        2.0000           -0.3350598              -9.1174
         9        2.0000           -0.3142436              -8.5510
        10        2.0000           -0.2963017              -8.0628
        11        2.0000           -0.2564702              -6.9789
        12        2.0000           -0.2521065              -6.8602
        13        2.0000           -0.2502949              -6.8109
        14        2.0000           -0.2389408              -6.5019
        15        2.0000           -0.2361658              -6.4264
        16        2.0000           -0.2255154              -6.1366 (HOMO)
        17                          0.0901980               2.4544 (LUMO)
        18                          0.1512842               4.1167
        19                          0.2378004               6.4709
        20                          0.2422297               6.5914
        21                          0.3221618               8.7665
        22                          0.4248020              11.5595
        23                          0.4378557              11.9147
        24                          0.9486888              25.8151
        25                          1.3775772              37.4858
        26                          1.4093347              38.3499
      -------------------------------------------------------------
                  HL-Gap            0.3157134 Eh            8.5910 eV
             Fermi-level           -0.0676587 Eh           -1.8411 eV

     #   Z          covCN         q      C6AA      α(0)
     1  16 S        3.564     1.413    95.587    16.455
     2   8 O        0.860    -0.715    29.107     7.233
     3   8 O        0.860    -0.715    29.107     7.233
     4   8 O        1.662    -0.608    25.346     6.796
     5   8 O        0.860    -0.680    28.155     7.114
     6   1 H        0.936     0.303     0.698     1.307

 Mol. C6AA /au·bohr⁶  :        995.461598
 Mol. C8AA /au·bohr⁸  :      27270.955223
 Mol. α(0) /au        :         46.139259


Wiberg/Mayer (AO) data.
largest (>0.10) Wiberg bond orders for each atom

 ---------------------------------------------------------------------------
     #   Z sym  total        # sym  WBO       # sym  WBO       # sym  WBO
 ---------------------------------------------------------------------------
     1  16 S    5.084 --     5 O    1.453     3 O    1.404     2 O    1.404
                             4 O    0.812
     2   8 O    1.720 --     1 S    1.404     5 O    0.120     3 O    0.118
     3   8 O    1.720 --     1 S    1.404     5 O    0.120     2 O    0.118
     4   8 O    1.923 --     6 H    0.891     1 S    0.812
     5   8 O    1.763 --     1 S    1.453     2 O    0.120     3 O    0.120
     6   1 H    0.908 --     4 O    0.891
 ---------------------------------------------------------------------------

Topologies differ in total number of bonds
Writing topology from bond orders to xtbtopo.mol

molecular dipole:
                 x           y           z       tot (Debye)
 q only:       -2.566      -0.244       0.347
   full:       -2.756      -0.358       0.423       7.146
molecular quadrupole (traceless):
                xx          xy          yy          xz          yz          zz
 q only:       -5.184       1.990       3.375      -0.637      -1.689       1.810
  q+dip:       -5.645       2.054       3.665      -0.629      -1.755       1.979
   full:       -5.496       2.285       3.706      -0.784      -2.038       1.790

           -------------------------------------------------
          |                Geometry Summary                 |
           -------------------------------------------------

      molecular mass/u    :       97.0703478
   center of mass at/Å    :        1.0418815      -0.1018346      -0.0280053
  moments of inertia/u·Å² :        0.9514644E+02   0.1003439E+03   0.1009401E+03
rotational constants/cm⁻¹ :        0.1771756E+00   0.1679985E+00   0.1670063E+00

 * 5 selected distances

     #   Z          #   Z                                           value/Å
     1  16 S        2   8 O                                       1.4566276
     1  16 S        3   8 O                                       1.4566274
     1  16 S        4   8 O                                       1.6662369 (max)
     1  16 S        5   8 O                                       1.4457128
     4   8 O        6   1 H                                       0.9507234 (min)

 * 2 distinct bonds (by element types)

   Z      Z             #   av. dist./Å        max./Å        min./Å
   1 H    8 O           1     0.9507234     0.9507234     0.9507234
   8 O   16 S           4     1.5063012     1.6662369     1.4457128


optimized geometry written to: xtbopt.xyz


           -------------------------------------------------
          | TOTAL ENERGY              -20.294675997060 Eh   |
          | GRADIENT NORM               0.000601463443 Eh/α |
          | HOMO-LUMO GAP               8.590997660267 eV   |
           -------------------------------------------------

------------------------------------------------------------------------
 * finished run on 2024/12/20 at 01:54:49.099     
------------------------------------------------------------------------
 total:
 * wall-time:     0 d,  0 h,  0 min,  0.042 sec
 *  cpu-time:     0 d,  0 h,  0 min,  0.317 sec
 * ratio c/w:     7.507 speedup
 SCF:
 * wall-time:     0 d,  0 h,  0 min,  0.005 sec
 *  cpu-time:     0 d,  0 h,  0 min,  0.040 sec
 * ratio c/w:     7.804 speedup
 ANC optimizer:
 * wall-time:     0 d,  0 h,  0 min,  0.024 sec
 *  cpu-time:     0 d,  0 h,  0 min,  0.186 sec
 * ratio c/w:     7.930 speedup

