      -----------------------------------------------------------      
     |                   =====================                   |     
     |                           x T B                           |     
     |                   =====================                   |     
     |                         S. Grimme                         |     
     |          Mulliken Center for Theoretical Chemistry        |     
     |                    University of Bonn                     |     
      -----------------------------------------------------------      

   * xtb version 6.7.1 (edcfbbe) compiled by 'conda@3ef47c1a292c' on 2024-11-25

   xtb is free software: you can redistribute it and/or modify it under
   the terms of the GNU Lesser General Public License as published by
   the Free Software Foundation, either version 3 of the License, or
   (at your option) any later version.
   
   xtb is distributed in the hope that it will be useful,
   but WITHOUT ANY WARRANTY; without even the implied warranty of
   MERCHANTABILITY or FITNESS FOR A PARTICULAR PURPOSE.  See the
   GNU Lesser General Public License for more details.
   
   Cite this work as:
   * C. Bannwarth, E. Caldeweyher, S. Ehlert, A. Hansen, P. Pracht,
     J. Seibert, S. Spicher, S. Grimme, WIREs Comput. Mol. Sci., 2020, 11,
     e01493. DOI: 10.1002/wcms.1493
   
   for GFN2-xTB:
   * C. Bannwarth, S. Ehlert and S. Grimme., J. Chem. Theory Comput., 2019,
     15, 1652-1671. DOI: 10.1021/acs.jctc.8b01176
   for GFN1-xTB:
   * S. Grimme, C. Bannwarth, P. Shushkov, J. Chem. Theory Comput., 2017,
     13, 1989-2009. DOI: 10.1021/acs.jctc.7b00118
   for GFN0-xTB:
   * P. Pracht, E. Caldeweyher, S. Ehlert, S. Grimme, ChemRxiv, 2019, preprint.
     DOI: 10.26434/chemrxiv.8326202.v1
   for GFN-FF:
   * S. Spicher and S. Grimme, Angew. Chem. Int. Ed., 2020, 59, 15665-15673.
     DOI: 10.1002/anie.202004239
   
   for ALPB and GBSA implicit solvation:
   * S. Ehlert, M. Stahn, S. Spicher, S. Grimme, J. Chem. Theory Comput.,
     2021, 17, 4250-4261. DOI: 10.1021/acs.jctc.1c00471
   
   for ddCOSMO and CPCM-X implicit solvation:
   * M. Stahn, S. Ehlert, S. Grimme, J. Phys. Chem. A,
     2023, XX, XXXX-XXXX. DOI: 10.1021/acs.jpca.3c04382
   
   for DFT-D4:
   * E. Caldeweyher, C. Bannwarth and S. Grimme, J. Chem. Phys., 2017,
     147, 034112. DOI: 10.1063/1.4993215
   * E. Caldeweyher, S. Ehlert, A. Hansen, H. Neugebauer, S. Spicher,
     C. Bannwarth and S. Grimme, J. Chem. Phys., 2019, 150, 154122.
     DOI: 10.1063/1.5090222
   * E. Caldeweyher, J.-M. Mewes, S. Ehlert and S. Grimme, Phys. Chem. Chem. Phys.
     2020, 22, 8499-8512. DOI: 10.1039/D0CP00502A
   
   for sTDA-xTB:
   * S. Grimme and C. Bannwarth, J. Chem. Phys., 2016, 145, 054103.
     DOI: 10.1063/1.4959605
   
   in the mass-spec context:
   * V. Asgeirsson, C. Bauer and S. Grimme, Chem. Sci., 2017, 8, 4879.
     DOI: 10.1039/c7sc00601b
   * J. Koopman and S. Grimme, ACS Omega 2019, 4, 12, 15120-15133.
     DOI: 10.1021/acsomega.9b02011
   
   for metadynamics refer to:
   * S. Grimme, J. Chem. Theory Comput., 2019, 155, 2847-2862
     DOI: 10.1021/acs.jctc.9b00143
   
   for SPH calculations refer to:
   * S. Spicher and S. Grimme, J. Chem. Theory Comput., 2021, 17, 1701-1714
     DOI: 10.1021/acs.jctc.0c01306
   
   for ONIOM refer to:
   * C. Plett, A. Katbashev, S. Ehlert, S. Grimme, M. Bursch,
     Phys. Chem. Chem. Phys., 2023, 25, 17860-17868. DOI: 10.1039/D3CP02178E
   
   for DIPRO refer to:
   * J. Kohn, N. Gildemeister, S. Grimme, D. Fazzi, A. Hansen,
     J. Chem. Phys., 2023, just accepted.
   
   for PTB refer to:
   * S. Grimme, M. Mueller, A. Hansen, J. Chem. Phys., 2023, 158, 124111.
     DOI: 10.1063/5.0137838
   
   with help from (in alphabetical order)
   P. Atkinson, C. Bannwarth, F. Bohle, G. Brandenburg, E. Caldeweyher
   M. Checinski, S. Dohm, S. Ehlert, S. Ehrlich, I. Gerasimov, C. Hölzer
   A. Katbashev, J. Kohn, J. Koopman, C. Lavigne, S. Lehtola, F. März, M. Müller,
   F. Musil, H. Neugebauer, J. Pisarek, C. Plett, P. Pracht, F. Pultar,
   J. Seibert, P. Shushkov, S. Spicher, M. Stahn, M. Steiner, T. Strunk,
   J. Stückrath, T. Rose, and J. Unsleber
   
 * started run on 2024/12/20 at 01:54:49.108     
   ID    Z sym.   atoms
    1    6 C      1-3, 5-10
    2    8 O      4
    3    9 F      11, 12, 14-18
    4    5 B      13
    5    1 H      19-25

           -------------------------------------------------
          |                Calculation Setup                |
           -------------------------------------------------

          program call               : xtb A130.xyz --opt --namespace A130 --charge -1
          calculation namespace      : A130
          coordinate file            : A130.xyz
          omp threads                :                     8


           -------------------------------------------------
          |                 G F N 2 - x T B                 |
           -------------------------------------------------

        Reference                      10.1021/acs.jctc.8b01176
      * Hamiltonian:
        H0-scaling (s, p, d)           1.850000    2.230000    2.230000
        zeta-weighting                 0.500000
      * Dispersion:
        s8                             2.700000
        a1                             0.520000
        a2                             5.000000
        s9                             5.000000
      * Repulsion:
        kExp                           1.500000    1.000000
        rExp                           1.000000
      * Coulomb:
        alpha                          2.000000
        third order                    shell-resolved
        anisotropic                    true
        a3                             3.000000
        a5                             4.000000
        cn-shift                       1.200000
        cn-exp                         4.000000
        max-rad                        5.000000


          ...................................................
          :                      SETUP                      :
          :.................................................:
          :  # basis functions                  79          :
          :  # atomic orbitals                  79          :
          :  # shells                           43          :
          :  # electrons                       102          :
          :  max. iterations                   250          :
          :  Hamiltonian                  GFN2-xTB          :
          :  restarted?                      false          :
          :  GBSA solvation                  false          :
          :  PC potential                    false          :
          :  electronic temp.          300.0000000     K    :
          :  accuracy                    1.0000000          :
          :  -> integral cutoff          0.2500000E+02      :
          :  -> integral neglect         0.1000000E-07      :
          :  -> SCF convergence          0.1000000E-05 Eh   :
          :  -> wf. convergence          0.1000000E-03 e    :
          :  Broyden damping             0.4000000          :
          :  net charge                         -1          :
          :  unpaired electrons                  0          :
          ...................................................

 iter      E             dE          RMSdq      gap      omega  full diag
   1    -61.8716868 -0.618717E+02  0.571E+00    4.02       0.0  T
   2    -62.0743077 -0.202621E+00  0.339E+00    3.72       1.0  T
   3    -62.0848221 -0.105144E-01  0.167E+00    3.66       1.0  T
   4    -62.1036665 -0.188445E-01  0.554E-01    3.07       1.0  T
   5    -62.1084577 -0.479119E-02  0.234E-01    3.25       1.0  T
   6    -62.1085217 -0.639810E-04  0.111E-01    3.26       1.0  T
   7    -62.1086884 -0.166690E-03  0.162E-02    3.30       1.2  T
   8    -62.1086897 -0.125922E-05  0.761E-03    3.31       2.6  T
   9    -62.1086901 -0.454610E-06  0.379E-03    3.30       5.3  T
  10    -62.1086903 -0.157119E-06  0.108E-03    3.30      18.6  T
  11    -62.1086903 -0.473253E-08  0.536E-04    3.30      37.3  T
  12    -62.1086903 -0.234792E-08  0.217E-04    3.30      92.1  T

   *** convergence criteria satisfied after 12 iterations ***

         #    Occupation            Energy/Eh            Energy/eV
      -------------------------------------------------------------
         1        2.0000           -0.7421490             -20.1949
       ...           ...                  ...                  ...
        45        2.0000           -0.3007239              -8.1831
        46        2.0000           -0.2964467              -8.0667
        47        2.0000           -0.2923552              -7.9554
        48        2.0000           -0.2907041              -7.9105
        49        2.0000           -0.2873028              -7.8179
        50        2.0000           -0.2869997              -7.8097
        51        2.0000           -0.2643513              -7.1934 (HOMO)
        52                         -0.1429506              -3.8899 (LUMO)
        53                         -0.1370221              -3.7286
        54                         -0.0095027              -0.2586
        55                          0.0419709               1.1421
        56                          0.1383133               3.7637
       ...                                ...                  ...
        79                          0.7631023              20.7651
      -------------------------------------------------------------
                  HL-Gap            0.1214007 Eh            3.3035 eV
             Fermi-level           -0.2036509 Eh           -5.5416 eV

 SCC (total)                   0 d,  0 h,  0 min,  0.019 sec
 SCC setup                      ...        0 min,  0.000 sec (  0.608%)
 Dispersion                     ...        0 min,  0.000 sec (  0.986%)
 classical contributions        ...        0 min,  0.000 sec (  0.235%)
 integral evaluation            ...        0 min,  0.001 sec (  7.669%)
 iterations                     ...        0 min,  0.013 sec ( 70.533%)
 molecular gradient             ...        0 min,  0.003 sec ( 17.429%)
 printout                       ...        0 min,  0.000 sec (  2.452%)

         :::::::::::::::::::::::::::::::::::::::::::::::::::::
         ::                     SUMMARY                     ::
         :::::::::::::::::::::::::::::::::::::::::::::::::::::
         :: total energy             -61.635087360492 Eh    ::
         :: gradient norm              0.085986681119 Eh/a0 ::
         :: HOMO-LUMO gap              3.303480949261 eV    ::
         ::.................................................::
         :: SCC energy               -62.108542678729 Eh    ::
         :: -> isotropic ES            0.240714216786 Eh    ::
         :: -> anisotropic ES          0.003954178258 Eh    ::
         :: -> anisotropic XC         -0.024438581125 Eh    ::
         :: -> dispersion             -0.025069694076 Eh    ::
         :: repulsion energy           0.473455318238 Eh    ::
         :: add. restraining           0.000000000000 Eh    ::
         :: total charge              -1.000000000000 e     ::
         :::::::::::::::::::::::::::::::::::::::::::::::::::::

      ----------------------------------------------------------- 
     |                   =====================                   |
     |                        A N C O P T                        |
     |                   =====================                   |
     |               Approximate Normal Coordinate               |
     |                Rational Function Optimizer                |
      ----------------------------------------------------------- 
      ----------------------------------------------------------- 
     |                   =====================                   |
     |                        A N C O P T                        |
     |                   =====================                   |
     |               Approximate Normal Coordinate               |
     |                Rational Function Optimizer                |
      ----------------------------------------------------------- 

          ...................................................
          :                      SETUP                      :
          :.................................................:
          :   optimization level            normal          :
          :   max. optcycles                   200          :
          :   ANC micro-cycles                  20          :
          :   degrees of freedom                69          :
          :.................................................:
          :   RF solver                   davidson          :
          :   write xtbopt.log                true          :
          :   linear?                        false          :
          :   energy convergence         0.5000000E-05 Eh   :
          :   grad. convergence          0.1000000E-02 Eh/α :
          :   maxmium RF displ.          1.0000000          :
          :   Hlow (freq-cutoff)         0.1000000E-01      :
          :   Hmax (freq-cutoff)         5.0000000          :
          :   S6 in model hess.         20.0000000          :
          ...................................................

generating ANC from exact Hessian ...
Using Lindh-Hessian (1995)
 Shifting diagonal of input Hessian by    8.9271626701397482E-003
 Lowest  eigenvalues of input Hessian
    0.000000    0.000000    0.000000    0.000000    0.000000    0.000000
    0.010000    0.010405    0.011742    0.013472    0.015366    0.017832
    0.023345    0.024261    0.026516    0.027448    0.028474    0.033975
 Highest eigenvalues
    1.763089    1.902463    1.978040    1.998525    2.227282    2.279788


........................................................................
.............................. CYCLE    1 ..............................
........................................................................

 iter      E             dE          RMSdq      gap      omega  full diag
   1    -62.1086903 -0.621087E+02  0.871E-05    3.30       0.0  T
   2    -62.1086903 -0.124764E-09  0.374E-05    3.30     534.1  T
   3    -62.1086903 -0.140687E-10  0.230E-05    3.30     868.6  T
     SCC iter.                  ...        0 min,  0.003 sec
     gradient                   ...        0 min,  0.003 sec
 * total energy  :   -61.6350874 Eh     change       -0.3419203E-09 Eh
   gradient norm :     0.0859840 Eh/α   predicted     0.0000000E+00 (-100.00%)
   displ. norm   :     0.5980395 α      lambda       -0.3091549E-01
   maximum displ.:     0.2643926 α      in ANC's #4, #12, #11, ...

........................................................................
.............................. CYCLE    2 ..............................
........................................................................

 iter      E             dE          RMSdq      gap      omega  full diag
   1    -62.0986123 -0.620986E+02  0.307E-01    3.28       0.0  T
   2    -62.0987705 -0.158166E-03  0.183E-01    3.32       1.0  T
   3    -62.0987302  0.403048E-04  0.750E-02    3.33       1.0  T
   4    -62.0987994 -0.692435E-04  0.176E-02    3.34       1.1  T
   5    -62.0988026 -0.319047E-05  0.711E-03    3.34       2.8  T
   6    -62.0988028 -0.159218E-06  0.346E-03    3.34       5.8  T
   7    -62.0988029 -0.766959E-07  0.134E-03    3.34      14.9  T
   8    -62.0988029 -0.712044E-08  0.594E-04    3.34      33.7  T
   9    -62.0988029 -0.207341E-08  0.232E-04    3.34      86.3  T
     SCC iter.                  ...        0 min,  0.008 sec
     gradient                   ...        0 min,  0.003 sec
 * total energy  :   -61.6555949 Eh     change       -0.2050754E-01 Eh
   gradient norm :     0.0372523 Eh/α   predicted    -0.2098798E-01 (   2.34%)
   displ. norm   :     0.4519752 α      lambda       -0.9278458E-02
   maximum displ.:     0.2145869 α      in ANC's #4, #11, #15, ...

........................................................................
.............................. CYCLE    3 ..............................
........................................................................

 iter      E             dE          RMSdq      gap      omega  full diag
   1    -62.0903971 -0.620904E+02  0.201E-01    3.32       0.0  T
   2    -62.0905176 -0.120550E-03  0.132E-01    3.36       1.0  T
   3    -62.0905157  0.195367E-05  0.664E-02    3.37       1.0  T
   4    -62.0905548 -0.391061E-04  0.161E-02    3.38       1.2  T
   5    -62.0905572 -0.237757E-05  0.557E-03    3.38       3.6  T
   6    -62.0905575 -0.363687E-06  0.268E-03    3.38       7.5  T
   7    -62.0905576 -0.397198E-07  0.876E-04    3.38      22.8  T
   8    -62.0905576 -0.337638E-08  0.437E-04    3.38      45.8  T
     SCC iter.                  ...        0 min,  0.007 sec
     gradient                   ...        0 min,  0.003 sec
 * total energy  :   -61.6619662 Eh     change       -0.6371283E-02 Eh
   gradient norm :     0.0165590 Eh/α   predicted    -0.5586945E-02 ( -12.31%)
   displ. norm   :     0.4116349 α      lambda       -0.3399981E-02
   maximum displ.:     0.2464953 α      in ANC's #4, #11, #8, ...

........................................................................
.............................. CYCLE    4 ..............................
........................................................................

 iter      E             dE          RMSdq      gap      omega  full diag
   1    -62.0914526 -0.620915E+02  0.112E-01    3.37       0.0  T
   2    -62.0914759 -0.232383E-04  0.700E-02    3.39       1.0  T
   3    -62.0914683  0.754620E-05  0.309E-02    3.40       1.0  T
   4    -62.0914816 -0.132962E-04  0.914E-03    3.40       2.2  T
   5    -62.0914824 -0.779693E-06  0.332E-03    3.41       6.0  T
   6    -62.0914825 -0.614598E-07  0.126E-03    3.40      15.9  T
   7    -62.0914825 -0.130190E-07  0.418E-04    3.40      47.8  T
   8    -62.0914825 -0.116406E-08  0.212E-04    3.40      94.4  T
     SCC iter.                  ...        0 min,  0.007 sec
     gradient                   ...        0 min,  0.003 sec
 * total energy  :   -61.6643518 Eh     change       -0.2385623E-02 Eh
   gradient norm :     0.0114007 Eh/α   predicted    -0.1988087E-02 ( -16.66%)
   displ. norm   :     0.3524653 α      lambda       -0.1486097E-02
   maximum displ.:     0.2343484 α      in ANC's #4, #11, #2, ...

........................................................................
.............................. CYCLE    5 ..............................
........................................................................

 iter      E             dE          RMSdq      gap      omega  full diag
   1    -62.0947500 -0.620947E+02  0.742E-02    3.40       0.0  T
   2    -62.0947547 -0.474169E-05  0.443E-02    3.41       1.0  T
   3    -62.0947536  0.117571E-05  0.129E-02    3.42       1.5  T
   4    -62.0947558 -0.226121E-05  0.390E-03    3.42       5.1  T
   5    -62.0947559 -0.563775E-07  0.163E-03    3.42      12.3  T
   6    -62.0947559 -0.189025E-07  0.463E-04    3.42      43.2  T
   7    -62.0947559 -0.139384E-08  0.242E-04    3.42      82.6  T
     SCC iter.                  ...        0 min,  0.007 sec
     gradient                   ...        0 min,  0.003 sec
 * total energy  :   -61.6654116 Eh     change       -0.1059773E-02 Eh
   gradient norm :     0.0081879 Eh/α   predicted    -0.8353595E-03 ( -21.18%)
   displ. norm   :     0.3162764 α      lambda       -0.7420522E-03
   maximum displ.:     0.2081194 α      in ANC's #4, #2, #1, ...

........................................................................
.............................. CYCLE    6 ..............................
........................................................................

 iter      E             dE          RMSdq      gap      omega  full diag
   1    -62.0970768 -0.620971E+02  0.677E-02    3.43       0.0  T
   2    -62.0970807 -0.385063E-05  0.411E-02    3.43       1.0  T
   3    -62.0970772  0.348184E-05  0.184E-02    3.43       1.1  T
   4    -62.0970823 -0.509614E-05  0.294E-03    3.43       6.8  T
   5    -62.0970823 -0.556158E-07  0.167E-03    3.43      12.0  T
   6    -62.0970824 -0.213359E-07  0.558E-04    3.43      35.8  T
   7    -62.0970824 -0.749459E-09  0.183E-04    3.43     109.6  T
     SCC iter.                  ...        0 min,  0.006 sec
     gradient                   ...        0 min,  0.003 sec
 * total energy  :   -61.6659465 Eh     change       -0.5349005E-03 Eh
   gradient norm :     0.0059243 Eh/α   predicted    -0.4081405E-03 ( -23.70%)
   displ. norm   :     0.3009179 α      lambda       -0.4153044E-03
   maximum displ.:     0.1755767 α      in ANC's #4, #2, #1, ...

........................................................................
.............................. CYCLE    7 ..............................
........................................................................

 iter      E             dE          RMSdq      gap      omega  full diag
   1    -62.0975843 -0.620976E+02  0.705E-02    3.43       0.0  T
   2    -62.0975865 -0.219721E-05  0.427E-02    3.43       1.0  T
   3    -62.0975821  0.432576E-05  0.172E-02    3.43       1.2  T
   4    -62.0975877 -0.555610E-05  0.237E-03    3.43       8.4  T
   5    -62.0975877 -0.268683E-07  0.133E-03    3.43      15.1  T
   6    -62.0975877 -0.135625E-07  0.437E-04    3.43      45.7  T
   7    -62.0975877 -0.238785E-09  0.143E-04    3.43     139.7  T
     SCC iter.                  ...        0 min,  0.006 sec
     gradient                   ...        0 min,  0.003 sec
 * total energy  :   -61.6662452 Eh     change       -0.2987573E-03 Eh
   gradient norm :     0.0047740 Eh/α   predicted    -0.2264558E-03 ( -24.20%)
   displ. norm   :     0.2520031 α      lambda       -0.2236303E-03
   maximum displ.:     0.1178415 α      in ANC's #4, #1, #2, ...

........................................................................
.............................. CYCLE    8 ..............................
........................................................................

 iter      E             dE          RMSdq      gap      omega  full diag
   1    -62.0976873 -0.620977E+02  0.619E-02    3.43       0.0  T
   2    -62.0976884 -0.108966E-05  0.372E-02    3.43       1.0  T
   3    -62.0976852  0.322831E-05  0.128E-02    3.42       1.6  T
   4    -62.0976891 -0.393228E-05  0.195E-03    3.43      10.2  T
   5    -62.0976891 -0.937194E-08  0.936E-04    3.43      21.4  T
   6    -62.0976891 -0.752934E-08  0.320E-04    3.43      62.6  T
     SCC iter.                  ...        0 min,  0.005 sec
     gradient                   ...        0 min,  0.003 sec
 * total energy  :   -61.6664003 Eh     change       -0.1550099E-03 Eh
   gradient norm :     0.0035206 Eh/α   predicted    -0.1189228E-03 ( -23.28%)
   displ. norm   :     0.1659392 α      lambda       -0.9879954E-04
   maximum displ.:     0.0860229 α      in ANC's #1, #3, #2, ...

........................................................................
.............................. CYCLE    9 ..............................
........................................................................

 iter      E             dE          RMSdq      gap      omega  full diag
   1    -62.0979758 -0.620980E+02  0.415E-02    3.43       0.0  T
   2    -62.0979763 -0.482538E-06  0.248E-02    3.43       1.0  T
   3    -62.0979748  0.146523E-05  0.758E-03    3.42       2.6  T
   4    -62.0979766 -0.177045E-05  0.136E-03    3.42      14.7  T
   5    -62.0979766 -0.904238E-08  0.622E-04    3.42      32.2  T
   6    -62.0979766 -0.263111E-08  0.207E-04    3.42      96.7  T
     SCC iter.                  ...        0 min,  0.006 sec
     gradient                   ...        0 min,  0.003 sec
 * total energy  :   -61.6664695 Eh     change       -0.6926011E-04 Eh
   gradient norm :     0.0026901 Eh/α   predicted    -0.5076141E-04 ( -26.71%)
   displ. norm   :     0.1145264 α      lambda       -0.5315158E-04
   maximum displ.:     0.0670264 α      in ANC's #1, #3, #2, ...

........................................................................
.............................. CYCLE   10 ..............................
........................................................................

 iter      E             dE          RMSdq      gap      omega  full diag
   1    -62.0984044 -0.620984E+02  0.276E-02    3.42       0.0  T
   2    -62.0984047 -0.317026E-06  0.165E-02    3.43       1.2  T
   3    -62.0984041  0.651158E-06  0.578E-03    3.42       3.5  T
   4    -62.0984049 -0.824953E-06  0.957E-04    3.42      20.9  T
   5    -62.0984049 -0.519908E-08  0.482E-04    3.42      41.5  T
     SCC iter.                  ...        0 min,  0.005 sec
     gradient                   ...        0 min,  0.005 sec
 * total energy  :   -61.6665086 Eh     change       -0.3913621E-04 Eh
   gradient norm :     0.0023637 Eh/α   predicted    -0.2692591E-04 ( -31.20%)
   displ. norm   :     0.1095168 α      lambda       -0.4292208E-04
   maximum displ.:     0.0665555 α      in ANC's #1, #3, #2, ...

........................................................................
.............................. CYCLE   11 ..............................
........................................................................

 iter      E             dE          RMSdq      gap      omega  full diag
   1    -62.0986235 -0.620986E+02  0.246E-02    3.42       0.0  T
   2    -62.0986237 -0.269691E-06  0.148E-02    3.43       1.4  T
   3    -62.0986233  0.454642E-06  0.511E-03    3.42       3.9  T
   4    -62.0986239 -0.588057E-06  0.856E-04    3.42      23.4  T
   5    -62.0986239 -0.210429E-08  0.414E-04    3.42      48.3  T
     SCC iter.                  ...        0 min,  0.005 sec
     gradient                   ...        0 min,  0.003 sec
 * total energy  :   -61.6665419 Eh     change       -0.3329507E-04 Eh
   gradient norm :     0.0022236 Eh/α   predicted    -0.2171916E-04 ( -34.77%)
   displ. norm   :     0.1340771 α      lambda       -0.4590447E-04
   maximum displ.:     0.0799857 α      in ANC's #1, #3, #2, ...

........................................................................
.............................. CYCLE   12 ..............................
........................................................................

 iter      E             dE          RMSdq      gap      omega  full diag
   1    -62.0986203 -0.620986E+02  0.284E-02    3.42       0.0  T
   2    -62.0986206 -0.286210E-06  0.172E-02    3.43       1.2  T
   3    -62.0986202  0.420131E-06  0.440E-03    3.43       4.6  T
   4    -62.0986207 -0.545307E-06  0.103E-03    3.43      19.4  T
   5    -62.0986207 -0.326607E-08  0.427E-04    3.43      46.9  T
   6    -62.0986207 -0.406452E-09  0.181E-04    3.43     110.3  T
     SCC iter.                  ...        0 min,  0.005 sec
     gradient                   ...        0 min,  0.003 sec
 * total energy  :   -61.6665774 Eh     change       -0.3544035E-04 Eh
   gradient norm :     0.0022788 Eh/α   predicted    -0.2336604E-04 ( -34.07%)
   displ. norm   :     0.1591508 α      lambda       -0.4496142E-04
   maximum displ.:     0.0953452 α      in ANC's #1, #2, #3, ...

........................................................................
.............................. CYCLE   13 ..............................
........................................................................

 iter      E             dE          RMSdq      gap      omega  full diag
   1    -62.0982442 -0.620982E+02  0.334E-02    3.42       0.0  T
   2    -62.0982446 -0.324400E-06  0.203E-02    3.43       1.0  T
   3    -62.0982442  0.375460E-06  0.480E-03    3.43       4.2  T
   4    -62.0982447 -0.516865E-06  0.121E-03    3.43      16.5  T
   5    -62.0982447 -0.347485E-08  0.531E-04    3.43      37.7  T
   6    -62.0982447 -0.874330E-09  0.230E-04    3.43      86.9  T
     SCC iter.                  ...        0 min,  0.005 sec
     gradient                   ...        0 min,  0.003 sec
 * total energy  :   -61.6666107 Eh     change       -0.3336794E-04 Eh
   gradient norm :     0.0024816 Eh/α   predicted    -0.2305113E-04 ( -30.92%)
   displ. norm   :     0.1505304 α      lambda       -0.3633559E-04
   maximum displ.:     0.0904259 α      in ANC's #1, #2, #3, ...

........................................................................
.............................. CYCLE   14 ..............................
........................................................................

 iter      E             dE          RMSdq      gap      omega  full diag
   1    -62.0979676 -0.620980E+02  0.320E-02    3.42       0.0  T
   2    -62.0979680 -0.384488E-06  0.196E-02    3.42       1.0  T
   3    -62.0979674  0.540157E-06  0.661E-03    3.43       3.0  T
   4    -62.0979682 -0.721045E-06  0.118E-03    3.43      16.9  T
   5    -62.0979682 -0.226091E-08  0.637E-04    3.43      31.4  T
   6    -62.0979682 -0.299234E-08  0.233E-04    3.43      86.0  T
     SCC iter.                  ...        0 min,  0.005 sec
     gradient                   ...        0 min,  0.003 sec
 * total energy  :   -61.6666375 Eh     change       -0.2676642E-04 Eh
   gradient norm :     0.0024085 Eh/α   predicted    -0.1858143E-04 ( -30.58%)
   displ. norm   :     0.1393480 α      lambda       -0.3111792E-04
   maximum displ.:     0.0841363 α      in ANC's #1, #2, #6, ...

........................................................................
.............................. CYCLE   15 ..............................
........................................................................

 iter      E             dE          RMSdq      gap      omega  full diag
   1    -62.0978685 -0.620979E+02  0.301E-02    3.42       0.0  T
   2    -62.0978690 -0.503592E-06  0.184E-02    3.42       1.1  T
   3    -62.0978683  0.685877E-06  0.755E-03    3.42       2.6  T
   4    -62.0978692 -0.927214E-06  0.117E-03    3.42      17.1  T
   5    -62.0978692 -0.440156E-08  0.645E-04    3.42      31.0  T
   6    -62.0978692 -0.309527E-08  0.235E-04    3.42      85.3  T
     SCC iter.                  ...        0 min,  0.005 sec
     gradient                   ...        0 min,  0.003 sec
 * total energy  :   -61.6666596 Eh     change       -0.2208299E-04 Eh
   gradient norm :     0.0019502 Eh/α   predicted    -0.1586151E-04 ( -28.17%)
   displ. norm   :     0.1453084 α      lambda       -0.1979788E-04
   maximum displ.:     0.0839126 α      in ANC's #1, #2, #6, ...

........................................................................
.............................. CYCLE   16 ..............................
........................................................................

 iter      E             dE          RMSdq      gap      omega  full diag
   1    -62.0983215 -0.620983E+02  0.321E-02    3.42       0.0  T
   2    -62.0983223 -0.824935E-06  0.196E-02    3.42       1.0  T
   3    -62.0983213  0.102338E-05  0.876E-03    3.42       2.3  T
   4    -62.0983227 -0.141439E-05  0.142E-03    3.42      14.1  T
   5    -62.0983227 -0.816463E-08  0.718E-04    3.42      27.9  T
   6    -62.0983227 -0.480934E-08  0.288E-04    3.42      69.5  T
     SCC iter.                  ...        0 min,  0.005 sec
     gradient                   ...        0 min,  0.003 sec
 * total energy  :   -61.6666746 Eh     change       -0.1504282E-04 Eh
   gradient norm :     0.0014560 Eh/α   predicted    -0.9993599E-05 ( -33.57%)
   displ. norm   :     0.0269451 α      lambda       -0.3801451E-05
   maximum displ.:     0.0154882 α      in ANC's #2, #1, #4, ...

........................................................................
.............................. CYCLE   17 ..............................
........................................................................

 iter      E             dE          RMSdq      gap      omega  full diag
   1    -62.0984568 -0.620985E+02  0.789E-03    3.42       0.0  T
   2    -62.0984569 -0.631775E-07  0.480E-03    3.42       4.2  T
   3    -62.0984568  0.562695E-07  0.212E-03    3.42       9.4  T
   4    -62.0984569 -0.855647E-07  0.418E-04    3.42      47.8  T
   5    -62.0984569 -0.142433E-08  0.190E-04    3.42     105.1  T
     SCC iter.                  ...        0 min,  0.006 sec
     gradient                   ...        0 min,  0.003 sec
 * total energy  :   -61.6666786 Eh     change       -0.3956412E-05 Eh
   gradient norm :     0.0007561 Eh/α   predicted    -0.1902075E-05 ( -51.92%)
   displ. norm   :     0.0349570 α      lambda       -0.2216990E-05
   maximum displ.:     0.0246788 α      in ANC's #2, #1, #6, ...

   *** GEOMETRY OPTIMIZATION CONVERGED AFTER 17 ITERATIONS ***

------------------------------------------------------------------------
 total energy gain   :        -0.0315912 Eh      -19.8238 kcal/mol
 total RMSD          :         0.5874936 a0        0.3109 Å
 total power (kW/mol):        -4.8789873 (step) -442.2460 (real)
------------------------------------------------------------------------

 ANCopt (total)                0 d,  0 h,  0 min,  0.188 sec
 optimizer setup                ...        0 min,  0.000 sec (  0.202%)
 model hessian                  ...        0 min,  0.012 sec (  6.245%)
 ANC generation                 ...        0 min,  0.000 sec (  0.251%)
 coordinate transformation      ...        0 min,  0.000 sec (  0.073%)
 single point calculation       ...        0 min,  0.171 sec ( 91.368%)
 optimization log               ...        0 min,  0.001 sec (  0.667%)
 hessian update                 ...        0 min,  0.000 sec (  0.134%)
 rational function              ...        0 min,  0.001 sec (  0.720%)

================
 final structure:
================
25
 xtb: 6.7.1 (edcfbbe)
C            1.10408175411095       -0.22700584072083        0.08704883236831
C            0.39403443099537       -1.06029937868147       -0.98564914218147
C            0.87829623723957       -2.50502790039103       -1.05283294607182
O            0.62035484317060       -0.47503714743275        1.39589532648354
C            0.95755240232797       -1.64836453757040        2.01445747344601
C           -0.05381545386446       -2.35693058129988        2.66417485612021
C            0.20409672507795       -3.52632010647282        3.36889041447587
C            1.47515135292111       -4.07653426152678        3.46116434671418
C            2.47484425426656       -3.36103724400692        2.81756574681687
C            2.24208513526533       -2.17568161570744        2.12836221410117
F            3.29559448594802       -1.53583483880393        1.55305801453376
F            3.74597812156912       -3.79199453912560        2.84058772300022
B            1.85412692586874       -5.51407250419846        4.24962162418813
F            2.31763386812559       -6.42439729054454        3.30044219615028
F            2.84748533410689       -5.26962630379052        5.19207776812992
F            0.75474742522611       -6.05762562666384        4.89087679833086
F           -0.85193698311376       -4.11784156523918        3.95000486004306
F           -1.31888993984205       -1.87830394703897        2.58469398915914
H            0.88420618928973        0.83366229142283       -0.06992185539957
H            2.18621300511004       -0.37112895871032        0.01965948187459
H           -0.67894792606791       -1.03908956467409       -0.78383687722483
H            0.56907750859346       -0.57482885184236       -1.94932974470579
H            0.60145055931700       -3.05609260503837       -0.15753530283430
H            0.43540080671737       -3.00773250428939       -1.91029219505557
H            1.96125893763975       -2.54105457765250       -1.15505360246172

 Bond Distances (Angstroems)
 ---------------------------
C1-C2=1.5327         C1-O4=1.4172         C1-H19=1.0945        C1-H20=1.0938        C2-C1=1.5327         C2-C3=1.5252         
C2-H21=1.0920        C2-H22=1.0932        C3-C2=1.5252         C3-H23=1.0871        C3-H24=1.0882        C3-H25=1.0884        
O4-C1=1.4172         O4-C5=1.3686         C5-O4=1.3686         C5-C6=1.3954         C5-C10=1.3932        C6-C5=1.3954         
C6-C7=1.3895         C6-F18=1.3549        C7-C6=1.3895         C7-C8=1.3881         C7-F17=1.3427        C8-C7=1.3881         
C8-C9=1.3876         C8-B13=1.6828        C9-C8=1.3876         C9-C10=1.3908        C9-F12=1.3424        C10-C5=1.3932        
C10-C9=1.3908        C10-F11=1.3602       F11-C10=1.3602       F12-C9=1.3424        B13-C8=1.6828        B13-F14=1.3944       
B13-F15=1.3909       B13-F16=1.3839       F14-B13=1.3944       F15-B13=1.3909       F16-B13=1.3839       F17-C7=1.3427        
F18-C6=1.3549        H19-C1=1.0945        H20-C1=1.0938        H21-C2=1.0920        H22-C2=1.0932        H23-C3=1.0871        
H24-C3=1.0882        H25-C3=1.0884        
 C  H  Rav=1.0910 sigma=0.0028  Rmin=1.0871  Rmax=1.0945     7
 C  B  Rav=1.6828 sigma=0.0000  Rmin=1.6828  Rmax=1.6828     1
 C  C  Rav=1.4253 sigma=0.0599  Rmin=1.3876  Rmax=1.5327     8
 O  C  Rav=1.3929 sigma=0.0243  Rmin=1.3686  Rmax=1.4172     2
 F  B  Rav=1.3898 sigma=0.0044  Rmin=1.3839  Rmax=1.3944     3
 F  C  Rav=1.3501 sigma=0.0078  Rmin=1.3424  Rmax=1.3602     4

 selected bond angles (degree)
 --------------------
O4-C1-C2=113.15                H19-C1-C2=109.48               H19-C1-O4=103.50               H20-C1-C2=110.09               
H20-C1-O4=111.81               H20-C1-H19=108.52              C3-C2-C1=113.50                H21-C2-C1=108.38               
H21-C2-C3=109.79               H22-C2-C1=107.54               H22-C2-C3=109.33               H22-C2-H21=108.16              
H23-C3-C2=111.29               H24-C3-C2=110.06               H24-C3-H23=108.13              H25-C3-C2=110.57               
H25-C3-H23=108.30              H25-C3-H24=108.40              C5-O4-C1=118.90                C6-C5-O4=117.85                
C10-C5-O4=126.06               C10-C5-C6=115.98               C7-C6-C5=121.94                F18-C6-C5=118.04               
F18-C6-C7=120.02               C8-C7-C6=122.50                F17-C7-C6=116.38               F17-C7-C8=121.12               
C9-C8-C7=115.12                B13-C8-C7=125.17               B13-C8-C9=119.71               C10-C9-C8=123.28               
F12-C9-C8=120.58               F12-C9-C10=116.14              C9-C10-C5=121.16               F11-C10-C5=120.10              
F11-C10-C9=118.74              

 selected dihedral angles (degree)
 ---------------------------------
C3-C2-C1-O4=281.87            C3-C2-C1-H19=167.00           C3-C2-C1-H20= 47.79           H21-C2-C1-O4= 44.11           
H21-C2-C1-H19=289.24          H21-C2-C1-H20=170.02          H22-C2-C1-O4=160.81           H22-C2-C1-H19= 45.94          
H22-C2-C1-H20=286.73          H23-C3-C2-C1= 67.46           H23-C3-C2-H21=306.01          H23-C3-C2-H22=187.51          
H24-C3-C2-C1=187.31           H24-C3-C2-H21= 65.86          H24-C3-C2-H22=307.36          H25-C3-C2-C1=307.05           
H25-C3-C2-H21=185.60          H25-C3-C2-H22= 67.10          C5-O4-C1-C2= 73.72            C5-O4-C1-H19=192.12           
C5-O4-C1-H20=308.73           C6-C5-O4-C1=225.71            C10-C5-O4-C1= 49.73           C7-C6-C5-O4=182.89            
C7-C6-C5-C10=359.28           F18-C6-C5-O4=  3.38           F18-C6-C5-C10=179.77          C8-C7-C6-C5=359.19            
C8-C7-C6-F18=178.69           F17-C7-C6-C5=180.07           F17-C7-C6-F18=359.57          C9-C8-C7-C6=  1.07            
C9-C8-C7-F17=180.16           B13-C8-C7-C6=182.24           B13-C8-C7-F17=  1.32          C10-C9-C8-C7=  0.17           
C10-C9-C8-B13=179.08          F12-C9-C8-C7=179.79           F12-C9-C8-B13=358.69          C9-C10-C5-O4=177.98           
C9-C10-C5-C6=  1.93           F11-C10-C5-O4=357.53          F11-C10-C5-C6=181.48          C5-C10-C9-C8=358.27           
C5-C10-C9-F12=178.64          F11-C10-C9-C8=178.71          F11-C10-C9-F12=359.08         
           -------------------------------------------------
          |                Final Singlepoint                |
           -------------------------------------------------

          ...................................................
          :                      SETUP                      :
          :.................................................:
          :  # basis functions                  79          :
          :  # atomic orbitals                  79          :
          :  # shells                           43          :
          :  # electrons                       102          :
          :  max. iterations                   250          :
          :  Hamiltonian                  GFN2-xTB          :
          :  restarted?                      false          :
          :  GBSA solvation                  false          :
          :  PC potential                    false          :
          :  electronic temp.          300.0000000     K    :
          :  accuracy                    1.0000000          :
          :  -> integral cutoff          0.2500000E+02      :
          :  -> integral neglect         0.1000000E-07      :
          :  -> SCF convergence          0.1000000E-05 Eh   :
          :  -> wf. convergence          0.1000000E-03 e    :
          :  Broyden damping             0.4000000          :
          :  net charge                         -1          :
          :  unpaired electrons                  0          :
          ...................................................

 iter      E             dE          RMSdq      gap      omega  full diag
   1    -62.0984569 -0.620985E+02  0.665E-05    3.42       0.0  T
   2    -62.0984569 -0.130527E-10  0.408E-05    3.42     490.0  T
   3    -62.0984569 -0.426326E-11  0.272E-05    3.42     736.1  T

   *** convergence criteria satisfied after 3 iterations ***

         #    Occupation            Energy/Eh            Energy/eV
      -------------------------------------------------------------
         1        2.0000           -0.7333414             -19.9552
       ...           ...                  ...                  ...
        45        2.0000           -0.3046810              -8.2908
        46        2.0000           -0.3015412              -8.2054
        47        2.0000           -0.2957649              -8.0482
        48        2.0000           -0.2938850              -7.9970
        49        2.0000           -0.2916979              -7.9375
        50        2.0000           -0.2908658              -7.9149
        51        2.0000           -0.2670583              -7.2670 (HOMO)
        52                         -0.1413530              -3.8464 (LUMO)
        53                         -0.1405038              -3.8233
        54                         -0.0146583              -0.3989
        55                          0.0790382               2.1507
        56                          0.1106033               3.0097
       ...                                ...                  ...
        79                          0.7239413              19.6994
      -------------------------------------------------------------
                  HL-Gap            0.1257053 Eh            3.4206 eV
             Fermi-level           -0.2042056 Eh           -5.5567 eV

 SCC (total)                   0 d,  0 h,  0 min,  0.007 sec
 SCC setup                      ...        0 min,  0.000 sec (  0.894%)
 Dispersion                     ...        0 min,  0.000 sec (  1.267%)
 classical contributions        ...        0 min,  0.000 sec (  0.223%)
 integral evaluation            ...        0 min,  0.001 sec ( 15.499%)
 iterations                     ...        0 min,  0.003 sec ( 39.934%)
 molecular gradient             ...        0 min,  0.003 sec ( 40.836%)
 printout                       ...        0 min,  0.000 sec (  1.143%)

         :::::::::::::::::::::::::::::::::::::::::::::::::::::
         ::                     SUMMARY                     ::
         :::::::::::::::::::::::::::::::::::::::::::::::::::::
         :: total energy             -61.666678599111 Eh    ::
         :: gradient norm              0.000758277563 Eh/a0 ::
         :: HOMO-LUMO gap              3.420615908436 eV    ::
         ::.................................................::
         :: SCC energy               -62.098273756645 Eh    ::
         :: -> isotropic ES            0.236340328319 Eh    ::
         :: -> anisotropic ES          0.003619181445 Eh    ::
         :: -> anisotropic XC         -0.022259851619 Eh    ::
         :: -> dispersion             -0.023835514588 Eh    ::
         :: repulsion energy           0.431595157533 Eh    ::
         :: add. restraining           0.000000000000 Eh    ::
         :: total charge              -1.000000000000 e     ::
         :::::::::::::::::::::::::::::::::::::::::::::::::::::

           -------------------------------------------------
          |                Property Printout                |
           -------------------------------------------------

    * Orbital Energies and Occupations

         #    Occupation            Energy/Eh            Energy/eV
      -------------------------------------------------------------
         1        2.0000           -0.7333414             -19.9552
       ...           ...                  ...                  ...
        39        2.0000           -0.3511522              -9.5553
        40        2.0000           -0.3447107              -9.3801
        41        2.0000           -0.3436153              -9.3502
        42        2.0000           -0.3387853              -9.2188
        43        2.0000           -0.3352418              -9.1224
        44        2.0000           -0.3050085              -8.2997
        45        2.0000           -0.3046810              -8.2908
        46        2.0000           -0.3015412              -8.2054
        47        2.0000           -0.2957649              -8.0482
        48        2.0000           -0.2938850              -7.9970
        49        2.0000           -0.2916979              -7.9375
        50        2.0000           -0.2908658              -7.9149
        51        2.0000           -0.2670583              -7.2670 (HOMO)
        52                         -0.1413530              -3.8464 (LUMO)
        53                         -0.1405038              -3.8233
        54                         -0.0146583              -0.3989
        55                          0.0790382               2.1507
        56                          0.1106033               3.0097
        57                          0.1444447               3.9305
        58                          0.1472913               4.0080
        59                          0.1593325               4.3357
        60                          0.1877187               5.1081
        61                          0.2027792               5.5179
        62                          0.2114376               5.7535
       ...                                ...                  ...
        79                          0.7239413              19.6994
      -------------------------------------------------------------
                  HL-Gap            0.1257053 Eh            3.4206 eV
             Fermi-level           -0.2042056 Eh           -5.5567 eV

     #   Z          covCN         q      C6AA      α(0)
     1   6 C        3.690     0.077    19.478     6.316
     2   6 C        3.798    -0.062    21.689     6.631
     3   6 C        3.751    -0.101    22.494     6.764
     4   8 O        1.703    -0.269    18.459     5.801
     5   6 C        2.855     0.104    25.690     8.307
     6   6 C        2.784     0.110    25.561     8.281
     7   6 C        2.790     0.146    24.818     8.160
     8   6 C        2.857    -0.121    31.069     9.136
     9   6 C        2.792     0.148    24.763     8.152
    10   6 C        2.782     0.104    25.691     8.302
    11   9 F        0.786    -0.219    11.433     3.994
    12   9 F        0.788    -0.186    11.092     3.934
    13   5 B        3.037     0.596    13.532     6.136
    14   9 F        0.721    -0.408    13.626     4.359
    15   9 F        0.721    -0.405    13.593     4.354
    16   9 F        0.721    -0.400    13.533     4.344
    17   9 F        0.788    -0.187    11.100     3.936
    18   9 F        0.786    -0.207    11.313     3.973
    19   1 H        0.924     0.042     2.418     2.432
    20   1 H        0.924     0.048     2.350     2.398
    21   1 H        0.924     0.048     2.346     2.395
    22   1 H        0.924     0.028     2.618     2.530
    23   1 H        0.925     0.042     2.420     2.433
    24   1 H        0.925     0.033     2.547     2.496
    25   1 H        0.925     0.039     2.460     2.453

 Mol. C6AA /au·bohr⁶  :       7613.547845
 Mol. C8AA /au·bohr⁸  :     174984.368767
 Mol. α(0) /au        :        128.016847


Wiberg/Mayer (AO) data.
largest (>0.10) Wiberg bond orders for each atom

 ---------------------------------------------------------------------------
     #   Z sym  total        # sym  WBO       # sym  WBO       # sym  WBO
 ---------------------------------------------------------------------------
     1   6 C    3.942 --     2 C    0.996    19 H    0.971    20 H    0.967
                             4 O    0.959
     2   6 C    3.996 --     3 C    1.021     1 C    0.996    22 H    0.977
                            21 H    0.977
     3   6 C    3.996 --     2 C    1.021    24 H    0.987    25 H    0.987
                            23 H    0.985
     4   8 O    2.186 --     5 C    1.049     1 C    0.959
     5   6 C    3.948 --    10 C    1.338     6 C    1.328     4 O    1.049
     6   6 C    3.883 --     7 C    1.353     5 C    1.328    18 F    0.963
     7   6 C    3.896 --     8 C    1.374     6 C    1.353    17 F    0.985
     8   6 C    3.846 --     9 C    1.378     7 C    1.374    13 B    0.778
     9   6 C    3.896 --     8 C    1.378    10 C    1.349    12 F    0.986
    10   6 C    3.877 --     9 C    1.349     5 C    1.338    11 F    0.951
    11   9 F    1.081 --    10 C    0.951
    12   9 F    1.128 --     9 C    0.986
    13   5 B    3.322 --    16 F    0.847    15 F    0.836    14 F    0.830
                             8 C    0.778
    14   9 F    0.919 --    13 B    0.830
    15   9 F    0.922 --    13 B    0.836
    16   9 F    0.929 --    13 B    0.847
    17   9 F    1.126 --     7 C    0.985
    18   9 F    1.091 --     6 C    0.963
    19   1 H    0.998 --     1 C    0.971
    20   1 H    0.998 --     1 C    0.967
    21   1 H    0.998 --     2 C    0.977
    22   1 H    0.999 --     2 C    0.977
    23   1 H    0.998 --     3 C    0.985
    24   1 H    0.999 --     3 C    0.987
    25   1 H    0.998 --     3 C    0.987
 ---------------------------------------------------------------------------

Topologies differ in total number of bonds
Writing topology from bond orders to xtbtopo.mol

molecular dipole:
                 x           y           z       tot (Debye)
 q only:       -3.191       9.386      -7.954
   full:       -3.151       9.654      -8.182      33.148
molecular quadrupole (traceless):
                xx          xy          yy          xz          yz          zz
 q only:       56.040      49.280     -56.800     -35.799     114.977       0.760
  q+dip:       57.400      50.662     -58.768     -35.661     120.085       1.368
   full:       56.900      51.047     -59.320     -35.670     121.343       2.420

           -------------------------------------------------
          |                Geometry Summary                 |
           -------------------------------------------------

      molecular mass/u    :      274.9514634
   center of mass at/Å    :        1.2991404      -3.2038693       2.5397227
  moments of inertia/u·Å² :        0.7513192E+03   0.1849162E+04   0.2210080E+04
rotational constants/cm⁻¹ :        0.2243738E-01   0.9116363E-02   0.7627612E-02

 * 20 selected distances

     #   Z          #   Z                                           value/Å
     1   6 C        2   6 C                                       1.5327187 (max)
     2   6 C        3   6 C                                       1.5252095
     1   6 C        4   8 O                                       1.4172476
     4   8 O        5   6 C                                       1.3685828
     5   6 C        6   6 C                                       1.3953723
     6   6 C        7   6 C                                       1.3894657
     7   6 C        8   6 C                                       1.3881031
     8   6 C        9   6 C                                       1.3876388
     5   6 C       10   6 C                                       1.3932201
     9   6 C       10   6 C                                       1.3907720
    13   5 B       14   9 F                                       1.3944432
    13   5 B       15   9 F                                       1.3909489
    13   5 B       16   9 F                                       1.3839414
     1   6 C       19   1 H                                       1.0945329
     1   6 C       20   1 H                                       1.0937646
     2   6 C       21   1 H                                       1.0920025
     2   6 C       22   1 H                                       1.0931616
     3   6 C       23   1 H                                       1.0871403 (min)
     3   6 C       24   1 H                                       1.0881658
     3   6 C       25   1 H                                       1.0883728

 * 4 distinct bonds (by element types)

   Z      Z             #   av. dist./Å        max./Å        min./Å
   1 H    6 C           7     1.0910201     1.0945329     1.0871403
   6 C    6 C           8     1.4253125     1.5327187     1.3876388
   6 C    8 O           2     1.3929152     1.4172476     1.3685828
   5 B    9 F           3     1.3897778     1.3944432     1.3839414


optimized geometry written to: xtbopt.xyz


           -------------------------------------------------
          | TOTAL ENERGY              -61.666678599111 Eh   |
          | GRADIENT NORM               0.000758277563 Eh/α |
          | HOMO-LUMO GAP               3.420615908436 eV   |
           -------------------------------------------------

------------------------------------------------------------------------
 * finished run on 2024/12/20 at 01:54:49.339     
------------------------------------------------------------------------
 total:
 * wall-time:     0 d,  0 h,  0 min,  0.231 sec
 *  cpu-time:     0 d,  0 h,  0 min,  1.818 sec
 * ratio c/w:     7.884 speedup
 SCF:
 * wall-time:     0 d,  0 h,  0 min,  0.019 sec
 *  cpu-time:     0 d,  0 h,  0 min,  0.150 sec
 * ratio c/w:     7.854 speedup
 ANC optimizer:
 * wall-time:     0 d,  0 h,  0 min,  0.196 sec
 *  cpu-time:     0 d,  0 h,  0 min,  1.552 sec
 * ratio c/w:     7.940 speedup

