11
 energy: -43.794427992099 gnorm: 0.084315595605 xtb: 6.7.1 (edcfbbe)
F            1.04815000000000       -0.07277000000000       -0.04885000000000
C            2.37815000000000       -0.07277000000000       -0.04885000000000
C            2.88482000000000        0.36511000000000       -1.41338000000000
F            2.44149000000000        1.59068000000000       -1.67855000000000
F            4.21482000000000        0.36510000000000       -1.41338000000000
F            2.44148000000000       -0.47733000000000       -2.34217000000000
F            2.82148000000000        0.76966000000000        0.87995000000000
B            2.91148000000000       -1.54715000000000        0.27016000000000
F            2.44147000000000       -1.95334000000000        1.53594000000000
F            2.44148000000000       -2.44026000000000       -0.71450000000000
F            4.32148000000000       -1.54715000000000        0.27016000000000
11
 energy: -43.802599007377 gnorm: 0.053653037674 xtb: 6.7.1 (edcfbbe)
F            1.02883745016605       -0.12365211793778       -0.05598142616039
C            2.38047492939686       -0.07044694901636       -0.03861679055888
C            2.87630130281647        0.38791612872892       -1.41806951881482
F            2.47970606458786        1.63119033072488       -1.73479585284305
F            4.20944315531161        0.38732615327528       -1.37435022979197
F            2.45923616212148       -0.42264805968271       -2.39124850739790
F            2.78950865690370        0.84629222005507        0.87203356629050
B            2.91720564110584       -1.59679629827961        0.29556787501854
F            2.49828544637238       -1.98553153811071        1.57386124757747
F            2.39058195409487       -2.48255710138426       -0.65659981534798
F            4.31671923712288       -1.59131276837272        0.22472945202849
11
 energy: -43.808065271330 gnorm: 0.021702431997 xtb: 6.7.1 (edcfbbe)
F            1.00293930028000       -0.08373310894768       -0.06598660837755
C            2.38368871217304       -0.08851732572988       -0.02795328881740
C            2.86547823920872        0.40512986657140       -1.41158468302538
F            2.48881933284696        1.66148820694139       -1.76675006867191
F            4.20361357186777        0.43871305940750       -1.43140546141259
F            2.45888167995537       -0.36079324010642       -2.43236846341723
F            2.75794514239293        0.91326972464160        0.85639076903338
B            2.94015564535673       -1.66215142497741        0.33263408362583
F            2.51291265351952       -2.03526945945314        1.59185252313606
F            2.40737392154740       -2.52623866797370       -0.61299735900657
F            4.32449180085155       -1.68211763037366        0.26469855693337
11
 energy: -43.809076393361 gnorm: 0.012227526445 xtb: 6.7.1 (edcfbbe)
F            1.00539197030182       -0.07122928692314       -0.07732341852818
C            2.38307510538512       -0.09281180155273       -0.04173478940261
C            2.87327278820131        0.40447831065552       -1.41296059956333
F            2.47598440127873        1.65843030876124       -1.74007584123869
F            4.21108967770237        0.44927278116891       -1.44349577450466
F            2.46708712200644       -0.35947021311106       -2.43310805201691
F            2.74967477547308        0.89482735939022        0.85120232941697
B            2.93926294299093       -1.66562357239570        0.33464275732380
F            2.52012131933300       -2.02061417510665        1.60062892020014
F            2.40047615454181       -2.53185482479146       -0.60203091104424
F            4.32086374278539       -1.68562488609515        0.26078537935772
11
 energy: -43.809742635391 gnorm: 0.005241754159 xtb: 6.7.1 (edcfbbe)
F            1.01096307434040       -0.03975481734782       -0.10064395768994
C            2.38502078176768       -0.10116574237081       -0.05914588807434
C            2.88251922596268        0.40379885833127       -1.41301377591250
F            2.45251185219989        1.65506681980657       -1.70151874054238
F            4.21895836976666        0.46925196781218       -1.46819696815715
F            2.48019194729089       -0.35548375188172       -2.43575979398800
F            2.73829419048367        0.86920302643870        0.84708035821340
B            2.93802388407684       -1.67510563953872        0.33874916663978
F            2.52901036532006       -2.00232735637821        1.61244198030170
F            2.39586366627237       -2.54892327440747       -0.58248407961204
F            4.31494264251885       -1.69478009046397        0.25902169882149
11
 energy: -43.809803585452 gnorm: 0.004296203355 xtb: 6.7.1 (edcfbbe)
F            1.01296272162724       -0.03063285451469       -0.10808129948572
C            2.38639629051468       -0.10396976928668       -0.06026628221467
C            2.88366392014632        0.40452182723423       -1.41260996811284
F            2.44560946546790        1.65432816647682       -1.69731818246485
F            4.21893336987864        0.47670460696683       -1.47470660700328
F            2.48387100026917       -0.35510177831401       -2.43608860162168
F            2.74019354141352        0.86158188854300        0.85033963432436
B            2.93667323117502       -1.67684050930133        0.33935713677884
F            2.52835439257324       -1.99876055994659        1.61429591644887
F            2.39577216239593       -2.55591006476358       -0.57760415689644
F            4.31386990453831       -1.69614095309401        0.25921241024741
11
 energy: -43.809853547620 gnorm: 0.002141979071 xtb: 6.7.1 (edcfbbe)
F            1.01548401585540       -0.01816632739365       -0.11658869015172
C            2.38797995190177       -0.10750687430079       -0.05992819418414
C            2.88523461913321        0.40555608615652       -1.41199544042626
F            2.43524709143101        1.65178683529625       -1.69669243897077
F            4.21835267215217        0.48867966655368       -1.48183248360244
F            2.48959852077285       -0.35751537249136       -2.43484678767533
F            2.74770191311544        0.84983134229666        0.85733779624714
B            2.93332050606667       -1.67721297812499        0.33942656866499
F            2.52528350795703       -1.99590552620301        1.61530988422346
F            2.39596147336059       -2.56424604566660       -0.57304186328250
F            4.31213572825385       -1.69552080612274        0.25938164915759
11
 energy: -43.809863544232 gnorm: 0.001383758212 xtb: 6.7.1 (edcfbbe)
F            1.01600162364391       -0.01425899685514       -0.11596463328810
C            2.38810968204327       -0.10790097644297       -0.05918215526712
C            2.88579127180066        0.40537833734861       -1.41181801037322
F            2.43131802599011        1.64940562797971       -1.69942731389154
F            4.21811651283761        0.49323827570197       -1.48182073317187
F            2.49212235255974       -0.36084043061948       -2.43341807783999
F            2.75265256392280        0.84692707332119        0.85950009461207
B            2.93161423691852       -1.67648774687247        0.33886215994833
F            2.52308870129383       -1.99702915751827        1.61423862454512
F            2.39625200023642       -2.56458797115979       -0.57414068625456
F            4.31123302875312       -1.69406403488335        0.25970073098091
11
 energy: -43.809875027400 gnorm: 0.001466507596 xtb: 6.7.1 (edcfbbe)
F            1.01702367575770       -0.00609465117888       -0.10903982469569
C            2.38828540739657       -0.10742236826847       -0.05747329999686
C            2.88637283501507        0.40420631796216       -1.41157681891617
F            2.42208626349860        1.64278905377693       -1.70756330322014
F            4.21729015769561        0.50298559773731       -1.47832804549272
F            2.49866998121439       -0.37032372837774       -2.43016821176360
F            2.76464896735115        0.84426675170322        0.86173804561629
B            2.92833260273716       -1.67535018213694        0.33711711188621
F            2.51712945593117       -2.00182727070266        1.61026348838170
F            2.39724485183416       -2.56208275868193       -0.58000106724243
F            4.30921580156841       -1.69136676183299        0.26156192544342
11
 energy: -43.809882294061 gnorm: 0.001109484425 xtb: 6.7.1 (edcfbbe)
F            1.01790740788937       -0.00262689683938       -0.10330007624173
C            2.38882103695106       -0.10645032060256       -0.05709722228462
C            2.88570242263333        0.40355759858851       -1.41171448087820
F            2.41727703842025        1.63976965720571       -1.71107637806162
F            4.21637249732439        0.50697880520101       -1.47551471792967
F            2.50253298206120       -0.37444720885853       -2.42961413897230
F            2.76949523021890        0.84566063819613        0.86046121496734
B            2.92784761482984       -1.67604974737485        0.33638651839184
F            2.51387574070077       -2.00444762979102        1.60806325706008
F            2.39787410322185       -2.56005235886295       -0.58369911173402
F            4.30859392574901       -1.69211253686208        0.26363513568292
11
 energy: -43.809888908334 gnorm: 0.000785735208 xtb: 6.7.1 (edcfbbe)
F            1.02044781904236        0.00503639868327       -0.09356864315243
C            2.39069277652113       -0.10491074245822       -0.05635796665808
C            2.88397193763073        0.40295295144942       -1.41226446193471
F            2.40602901374623        1.63416637402206       -1.71735794425556
F            4.21419412986207        0.51656005221536       -1.47189667353601
F            2.51138346519148       -0.38160423271611       -2.42908463444991
F            2.77980125285224        0.84665986446291        0.85855884553054
B            2.92686314326926       -1.67783058461522        0.33532150444003
F            2.50653055817123       -2.00848689476525        1.60430517213481
F            2.39904058466027       -2.55791567454512       -0.58951183152433
F            4.30734531905300       -1.69484751173311        0.26838663340567
11
 energy: -43.809889618630 gnorm: 0.000416945509 xtb: 6.7.1 (edcfbbe)
F            1.02101945047604        0.00585998752695       -0.09190290060749
C            2.39128630906679       -0.10461268830070       -0.05611353548516
C            2.88349639790716        0.40302615891014       -1.41256899756146
F            2.40383818827753        1.63318416894096       -1.71845134935658
F            4.21376512284344        0.51861831371715       -1.47176048699129
F            2.51321344418083       -0.38246355111784       -2.42907628907082
F            2.78189729200315        0.84655213626682        0.85816787922547
B            2.92667913713651       -1.67806228896029        0.33527891257690
F            2.50483920580177       -2.00900048744941        1.60374673012233
F            2.39918002474618       -2.55761040338092       -0.59030710286217
F            4.30708542756060       -1.69571134615286        0.26951714001028
