9
 energy: -31.349727381822 gnorm: 0.086877935997 xtb: 6.7.1 (edcfbbe)
N            0.85540000000000        0.03415000000000        0.05187000000000
S            0.50209000000000       -0.73273000000000        1.40883000000000
O            0.90368000000000       -2.14025000000000        1.40012000000000
O            0.90367000000000        0.00077000000000        2.61012000000000
C           -1.35154000000000       -0.71916000000000        1.38480000000000
F           -1.87277000000000        0.54535000000000        1.37160000000000
F           -1.87277000000000       -1.36013000000000        0.29471000000000
F           -1.88908000000000       -1.33815000000000        2.48006000000000
H            1.87874000000000        0.05508000000000        0.01485000000000
9
 energy: -31.355592219598 gnorm: 0.049101777904 xtb: 6.7.1 (edcfbbe)
N            0.82539747333824        0.02884270248237        0.06126173780268
S            0.52947216547424       -0.73295392717885        1.40922172713020
O            0.87965451574734       -2.15202230728622        1.41898408153500
O            0.87965263102095       -0.00931480350788        2.62993883211127
C           -1.33263195942391       -0.71349586185796        1.37477713885834
F           -1.84861580359462        0.53639610513354        1.36352315739498
F           -1.84861532778665       -1.34859344110515        0.29821162398152
F           -1.86137430747436       -1.32698262583731        2.46029989310047
H            1.83448061269876        0.06305415915746        0.00074180808554
9
 energy: -31.357807771542 gnorm: 0.012813120996 xtb: 6.7.1 (edcfbbe)
N            0.80642709396323        0.01901030243508        0.07674162278346
S            0.55803282084453       -0.73433180863458        1.40336236751375
O            0.86230966470224       -2.16076745690524        1.44086486784566
O            0.83949215355793       -0.02016416134278        2.64623267208307
C           -1.31790509403211       -0.71902976147788        1.36006871919670
F           -1.79854726107922        0.52827289148581        1.35294783483405
F           -1.86265943523011       -1.34226441536498        0.30707575282865
F           -1.83410575707223       -1.31518220747971        2.44629188848502
H            1.80437581434575        0.08938661728428       -0.01662572557035
9
 energy: -31.358065770604 gnorm: 0.008281738782 xtb: 6.7.1 (edcfbbe)
N            0.80403465914593        0.01355322826206        0.08278285782876
S            0.56093130278728       -0.73780908726950        1.40726820135155
O            0.86230170483415       -2.16356054833660        1.44658080562554
O            0.84033316526859       -0.02684027492116        2.64988053014916
C           -1.31700950459713       -0.71514330139280        1.36139479118856
F           -1.80541545312628        0.53191950514909        1.35106728745396
F           -1.85218067011302       -1.34038400656731        0.30286538460578
F           -1.83610719174184       -1.31397914161988        2.44661486217445
H            1.80053198754232        0.09717362669610       -0.03149472037775
9
 energy: -31.358271043483 gnorm: 0.005048278599 xtb: 6.7.1 (edcfbbe)
N            0.80140076168364        0.00521370631148        0.09426215360558
S            0.56540060574792       -0.74209597830370        1.41679752017201
O            0.85886061264011       -2.16750831922937        1.45790034153415
O            0.84692633421029       -0.03827869803016        2.65863784953710
C           -1.31428204820217       -0.70868381456243        1.36356064122483
F           -1.81796676277841        0.53719831551272        1.34819200883361
F           -1.83162169711691       -1.33775343315658        0.29424089538357
F           -1.84200609496807       -1.31292135889301        2.44500886321586
H            1.79070828878360        0.10975958035107       -0.06164027350671
9
 energy: -31.358293630561 gnorm: 0.003004701253 xtb: 6.7.1 (edcfbbe)
N            0.80135639782409        0.00466687135168        0.09625904231934
S            0.56575971188395       -0.74185886988227        1.41925008800861
O            0.85605589849292       -2.16792244721352        1.46021603980794
O            0.84964707090341       -0.03956246636560        2.66140241882364
C           -1.31303978440362       -0.70799312832993        1.36356957834062
F           -1.81890832057061        0.53711218011354        1.34777499232597
F           -1.82721904772808       -1.33747356200557        0.29286087684075
F           -1.84323119664272       -1.31316215944431        2.44334028773657
H            1.78699927024065        0.11112358177597       -0.06771332420344
9
 energy: -31.358306590308 gnorm: 0.001249149941 xtb: 6.7.1 (edcfbbe)
N            0.79974417284893        0.00416287283508        0.09860300334131
S            0.56580046910437       -0.74187662910176        1.42256857914340
O            0.85251072692230       -2.16891996522998        1.46306969051957
O            0.85315017143701       -0.04049974685533        2.66519291173183
C           -1.31118259602137       -0.70759007419130        1.36343230447847
F           -1.81772926784044        0.53668968019142        1.34686098064242
F           -1.82137570393919       -1.33696457947265        0.29148112841017
F           -1.84510995977012       -1.31323068383008        2.44064087060981
H            1.78161198725852        0.11315912565460       -0.07488946887698
9
 energy: -31.358308174558 gnorm: 0.000553187349 xtb: 6.7.1 (edcfbbe)
N            0.79825644320286        0.00377516137214        0.09935316626591
S            0.56544165060518       -0.74240364342546        1.42356263453177
O            0.85172942326201       -2.16969760040129        1.46384739594327
O            0.85446838497152       -0.04044349936034        2.66613820515698
C           -1.31055909961948       -0.70761892210499        1.36362169370950
F           -1.81616949566601        0.53663725750179        1.34634159730328
F           -1.81865896324917       -1.33667977939246        0.29116674143777
F           -1.84656068830383       -1.31304459682056        2.43972587001519
H            1.77947234479692        0.11440562263115       -0.07679730436367
