3
 energy: -8.895132482851 gnorm: 0.060446458520 xtb: 6.7.1 (edcfbbe)
N            1.21406000000000       -0.05550000000000        0.00232000000000
N            2.35406000000000       -0.05550000000000        0.00232000000000
N            3.49406000000000       -0.05550000000000        0.00232000000000
3
 energy: -8.896602809690 gnorm: 0.003138605823 xtb: 6.7.1 (edcfbbe)
N            1.19431962793241       -0.05549999999620        0.00231999999984
N            2.35406000322366       -0.05550000000759        0.00232000000032
N            3.51380036884393       -0.05549999999620        0.00231999999984
3
 energy: -8.896607172009 gnorm: 0.000214323566 xtb: 6.7.1 (edcfbbe)
N            1.19529406670617       -0.05549999999938        0.00231999999997
N            2.35405991147664       -0.05550000000124        0.00232000000005
N            3.51282602181719       -0.05549999999938        0.00231999999997
