      -----------------------------------------------------------      
     |                   =====================                   |     
     |                           x T B                           |     
     |                   =====================                   |     
     |                         S. Grimme                         |     
     |          Mulliken Center for Theoretical Chemistry        |     
     |                    University of Bonn                     |     
      -----------------------------------------------------------      

   * xtb version 6.7.1 (edcfbbe) compiled by 'conda@3ef47c1a292c' on 2024-11-25

   xtb is free software: you can redistribute it and/or modify it under
   the terms of the GNU Lesser General Public License as published by
   the Free Software Foundation, either version 3 of the License, or
   (at your option) any later version.
   
   xtb is distributed in the hope that it will be useful,
   but WITHOUT ANY WARRANTY; without even the implied warranty of
   MERCHANTABILITY or FITNESS FOR A PARTICULAR PURPOSE.  See the
   GNU Lesser General Public License for more details.
   
   Cite this work as:
   * C. Bannwarth, E. Caldeweyher, S. Ehlert, A. Hansen, P. Pracht,
     J. Seibert, S. Spicher, S. Grimme, WIREs Comput. Mol. Sci., 2020, 11,
     e01493. DOI: 10.1002/wcms.1493
   
   for GFN2-xTB:
   * C. Bannwarth, S. Ehlert and S. Grimme., J. Chem. Theory Comput., 2019,
     15, 1652-1671. DOI: 10.1021/acs.jctc.8b01176
   for GFN1-xTB:
   * S. Grimme, C. Bannwarth, P. Shushkov, J. Chem. Theory Comput., 2017,
     13, 1989-2009. DOI: 10.1021/acs.jctc.7b00118
   for GFN0-xTB:
   * P. Pracht, E. Caldeweyher, S. Ehlert, S. Grimme, ChemRxiv, 2019, preprint.
     DOI: 10.26434/chemrxiv.8326202.v1
   for GFN-FF:
   * S. Spicher and S. Grimme, Angew. Chem. Int. Ed., 2020, 59, 15665-15673.
     DOI: 10.1002/anie.202004239
   
   for ALPB and GBSA implicit solvation:
   * S. Ehlert, M. Stahn, S. Spicher, S. Grimme, J. Chem. Theory Comput.,
     2021, 17, 4250-4261. DOI: 10.1021/acs.jctc.1c00471
   
   for ddCOSMO and CPCM-X implicit solvation:
   * M. Stahn, S. Ehlert, S. Grimme, J. Phys. Chem. A,
     2023, XX, XXXX-XXXX. DOI: 10.1021/acs.jpca.3c04382
   
   for DFT-D4:
   * E. Caldeweyher, C. Bannwarth and S. Grimme, J. Chem. Phys., 2017,
     147, 034112. DOI: 10.1063/1.4993215
   * E. Caldeweyher, S. Ehlert, A. Hansen, H. Neugebauer, S. Spicher,
     C. Bannwarth and S. Grimme, J. Chem. Phys., 2019, 150, 154122.
     DOI: 10.1063/1.5090222
   * E. Caldeweyher, J.-M. Mewes, S. Ehlert and S. Grimme, Phys. Chem. Chem. Phys.
     2020, 22, 8499-8512. DOI: 10.1039/D0CP00502A
   
   for sTDA-xTB:
   * S. Grimme and C. Bannwarth, J. Chem. Phys., 2016, 145, 054103.
     DOI: 10.1063/1.4959605
   
   in the mass-spec context:
   * V. Asgeirsson, C. Bauer and S. Grimme, Chem. Sci., 2017, 8, 4879.
     DOI: 10.1039/c7sc00601b
   * J. Koopman and S. Grimme, ACS Omega 2019, 4, 12, 15120-15133.
     DOI: 10.1021/acsomega.9b02011
   
   for metadynamics refer to:
   * S. Grimme, J. Chem. Theory Comput., 2019, 155, 2847-2862
     DOI: 10.1021/acs.jctc.9b00143
   
   for SPH calculations refer to:
   * S. Spicher and S. Grimme, J. Chem. Theory Comput., 2021, 17, 1701-1714
     DOI: 10.1021/acs.jctc.0c01306
   
   for ONIOM refer to:
   * C. Plett, A. Katbashev, S. Ehlert, S. Grimme, M. Bursch,
     Phys. Chem. Chem. Phys., 2023, 25, 17860-17868. DOI: 10.1039/D3CP02178E
   
   for DIPRO refer to:
   * J. Kohn, N. Gildemeister, S. Grimme, D. Fazzi, A. Hansen,
     J. Chem. Phys., 2023, just accepted.
   
   for PTB refer to:
   * S. Grimme, M. Mueller, A. Hansen, J. Chem. Phys., 2023, 158, 124111.
     DOI: 10.1063/5.0137838
   
   with help from (in alphabetical order)
   P. Atkinson, C. Bannwarth, F. Bohle, G. Brandenburg, E. Caldeweyher
   M. Checinski, S. Dohm, S. Ehlert, S. Ehrlich, I. Gerasimov, C. Hölzer
   A. Katbashev, J. Kohn, J. Koopman, C. Lavigne, S. Lehtola, F. März, M. Müller,
   F. Musil, H. Neugebauer, J. Pisarek, C. Plett, P. Pracht, F. Pultar,
   J. Seibert, P. Shushkov, S. Spicher, M. Stahn, M. Steiner, T. Strunk,
   J. Stückrath, T. Rose, and J. Unsleber
   
 * started run on 2024/12/20 at 01:54:49.536     
   ID    Z sym.   atoms
    1    8 O      1, 3-5
    2   16 S      2
    3    6 C      6, 9
    4    9 F      7, 8, 10-12

           -------------------------------------------------
          |                Calculation Setup                |
           -------------------------------------------------

          program call               : xtb A134.xyz --opt --namespace A134 --charge -1
          calculation namespace      : A134
          coordinate file            : A134.xyz
          omp threads                :                     8


           -------------------------------------------------
          |                 G F N 2 - x T B                 |
           -------------------------------------------------

        Reference                      10.1021/acs.jctc.8b01176
      * Hamiltonian:
        H0-scaling (s, p, d)           1.850000    2.230000    2.230000
        zeta-weighting                 0.500000
      * Dispersion:
        s8                             2.700000
        a1                             0.520000
        a2                             5.000000
        s9                             5.000000
      * Repulsion:
        kExp                           1.500000    1.000000
        rExp                           1.000000
      * Coulomb:
        alpha                          2.000000
        third order                    shell-resolved
        anisotropic                    true
        a3                             3.000000
        a5                             4.000000
        cn-shift                       1.200000
        cn-exp                         4.000000
        max-rad                        5.000000


          ...................................................
          :                      SETUP                      :
          :.................................................:
          :  # basis functions                  54          :
          :  # atomic orbitals                  53          :
          :  # shells                           25          :
          :  # electrons                        74          :
          :  max. iterations                   250          :
          :  Hamiltonian                  GFN2-xTB          :
          :  restarted?                      false          :
          :  GBSA solvation                  false          :
          :  PC potential                    false          :
          :  electronic temp.          300.0000000     K    :
          :  accuracy                    1.0000000          :
          :  -> integral cutoff          0.2500000E+02      :
          :  -> integral neglect         0.1000000E-07      :
          :  -> SCF convergence          0.1000000E-05 Eh   :
          :  -> wf. convergence          0.1000000E-03 e    :
          :  Broyden damping             0.4000000          :
          :  net charge                         -1          :
          :  unpaired electrons                  0          :
          ...................................................

 iter      E             dE          RMSdq      gap      omega  full diag
   1    -47.7734529 -0.477735E+02  0.836E+00    9.21       0.0  T
   2    -47.8787070 -0.105254E+00  0.484E+00    8.65       1.0  T
   3    -47.8857236 -0.701660E-02  0.187E+00    8.03       1.0  T
   4    -47.8913640 -0.564047E-02  0.538E-01    7.41       1.0  T
   5    -47.8918560 -0.491931E-03  0.280E-01    7.54       1.0  T
   6    -47.8920459 -0.189893E-03  0.122E-01    7.59       1.0  T
   7    -47.8920863 -0.404004E-04  0.307E-02    7.60       1.0  T
   8    -47.8920885 -0.222479E-05  0.114E-02    7.60       2.5  T
   9    -47.8920887 -0.210824E-06  0.280E-03    7.60      10.3  T
  10    -47.8920887 -0.160670E-07  0.136E-03    7.60      21.2  T
  11    -47.8920887 -0.177880E-08  0.339E-04    7.60      85.1  T
  12    -47.8920887 -0.179917E-09  0.122E-04    7.60     236.4  T

   *** convergence criteria satisfied after 12 iterations ***

         #    Occupation            Energy/Eh            Energy/eV
      -------------------------------------------------------------
         1        2.0000           -0.8154155             -22.1886
       ...           ...                  ...                  ...
        31        2.0000           -0.3393743              -9.2348
        32        2.0000           -0.2949779              -8.0268
        33        2.0000           -0.2837252              -7.7206
        34        2.0000           -0.2826513              -7.6913
        35        2.0000           -0.2684732              -7.3055
        36        2.0000           -0.2682964              -7.3007
        37        2.0000           -0.2558969              -6.9633 (HOMO)
        38                          0.0232312               0.6322 (LUMO)
        39                          0.0356436               0.9699
        40                          0.0576728               1.5694
        41                          0.0729722               1.9857
        42                          0.1260131               3.4290
       ...                                ...                  ...
        53                          1.3422131              36.5235
      -------------------------------------------------------------
                  HL-Gap            0.2791281 Eh            7.5955 eV
             Fermi-level           -0.1163329 Eh           -3.1656 eV

 SCC (total)                   0 d,  0 h,  0 min,  0.012 sec
 SCC setup                      ...        0 min,  0.000 sec (  1.464%)
 Dispersion                     ...        0 min,  0.000 sec (  0.956%)
 classical contributions        ...        0 min,  0.000 sec (  0.499%)
 integral evaluation            ...        0 min,  0.003 sec ( 24.575%)
 iterations                     ...        0 min,  0.007 sec ( 59.213%)
 molecular gradient             ...        0 min,  0.001 sec ( 12.390%)
 printout                       ...        0 min,  0.000 sec (  0.750%)

         :::::::::::::::::::::::::::::::::::::::::::::::::::::
         ::                     SUMMARY                     ::
         :::::::::::::::::::::::::::::::::::::::::::::::::::::
         :: total energy             -47.763647660424 Eh    ::
         :: gradient norm              0.145103324524 Eh/a0 ::
         :: HOMO-LUMO gap              7.595463039562 eV    ::
         ::.................................................::
         :: SCC energy               -47.892069316961 Eh    ::
         :: -> isotropic ES            0.259055060893 Eh    ::
         :: -> anisotropic ES         -0.025320199285 Eh    ::
         :: -> anisotropic XC         -0.038402077714 Eh    ::
         :: -> dispersion             -0.011677247841 Eh    ::
         :: repulsion energy           0.128421656537 Eh    ::
         :: add. restraining           0.000000000000 Eh    ::
         :: total charge              -1.000000000000 e     ::
         :::::::::::::::::::::::::::::::::::::::::::::::::::::

      ----------------------------------------------------------- 
     |                   =====================                   |
     |                        A N C O P T                        |
     |                   =====================                   |
     |               Approximate Normal Coordinate               |
     |                Rational Function Optimizer                |
      ----------------------------------------------------------- 
      ----------------------------------------------------------- 
     |                   =====================                   |
     |                        A N C O P T                        |
     |                   =====================                   |
     |               Approximate Normal Coordinate               |
     |                Rational Function Optimizer                |
      ----------------------------------------------------------- 

          ...................................................
          :                      SETUP                      :
          :.................................................:
          :   optimization level            normal          :
          :   max. optcycles                   200          :
          :   ANC micro-cycles                  20          :
          :   degrees of freedom                30          :
          :.................................................:
          :   RF solver                   davidson          :
          :   write xtbopt.log                true          :
          :   linear?                        false          :
          :   energy convergence         0.5000000E-05 Eh   :
          :   grad. convergence          0.1000000E-02 Eh/α :
          :   maxmium RF displ.          1.0000000          :
          :   Hlow (freq-cutoff)         0.1000000E-01      :
          :   Hmax (freq-cutoff)         5.0000000          :
          :   S6 in model hess.         20.0000000          :
          ...................................................

generating ANC from exact Hessian ...
Using Lindh-Hessian (1995)
 Shifting diagonal of input Hessian by    3.5564107523010265E-003
 Lowest  eigenvalues of input Hessian
    0.000000    0.000000    0.000000    0.000000    0.000000    0.000000
    0.010000    0.016073    0.017037    0.039614    0.043888    0.064751
    0.080205    0.102624    0.106010    0.148792    0.176347    0.238242
 Highest eigenvalues
    1.586412    1.711428    1.727921    2.336961    3.531379    3.557952


........................................................................
.............................. CYCLE    1 ..............................
........................................................................

 iter      E             dE          RMSdq      gap      omega  full diag
   1    -47.8920887 -0.478921E+02  0.403E-05    7.60       0.0  T
   2    -47.8920887 -0.121503E-11  0.269E-05    7.60    1073.1  T
   3    -47.8920887 -0.767386E-12  0.791E-06    7.60    3648.5  T
     SCC iter.                  ...        0 min,  0.002 sec
     gradient                   ...        0 min,  0.002 sec
 * total energy  :   -47.7636477 Eh     change       -0.3900880E-10 Eh
   gradient norm :     0.1451019 Eh/α   predicted     0.0000000E+00 (-100.00%)
   displ. norm   :     0.1241946 α      lambda       -0.1314828E-01
   maximum displ.:     0.0588812 α      in ANC's #17, #28, #23, ...

........................................................................
.............................. CYCLE    2 ..............................
........................................................................

 iter      E             dE          RMSdq      gap      omega  full diag
   1    -47.9125249 -0.479125E+02  0.236E-01    8.04       0.0  T
   2    -47.9126607 -0.135875E-03  0.117E-01    8.06       1.0  T
   3    -47.9126725 -0.117440E-04  0.572E-02    8.09       1.0  T
   4    -47.9126755 -0.301401E-05  0.212E-02    8.10       1.4  T
   5    -47.9126759 -0.416460E-06  0.602E-03    8.10       4.8  T
   6    -47.9126760 -0.464563E-07  0.285E-03    8.10      10.1  T
   7    -47.9126760 -0.132699E-07  0.126E-03    8.10      23.0  T
   8    -47.9126760 -0.272004E-08  0.603E-04    8.10      47.9  T
   9    -47.9126760 -0.828017E-09  0.177E-04    8.10     162.7  T
     SCC iter.                  ...        0 min,  0.004 sec
     gradient                   ...        0 min,  0.002 sec
 * total energy  :   -47.7742582 Eh     change       -0.1061055E-01 Eh
   gradient norm :     0.0992959 Eh/α   predicted    -0.6675540E-02 ( -37.09%)
   displ. norm   :     0.2171379 α      lambda       -0.1473323E-01
   maximum displ.:     0.1151037 α      in ANC's #2, #28, #17, ...

........................................................................
.............................. CYCLE    3 ..............................
........................................................................

 iter      E             dE          RMSdq      gap      omega  full diag
   1    -47.9383574 -0.479384E+02  0.354E-01    7.70       0.0  T
   2    -47.9386866 -0.329155E-03  0.176E-01    7.76       1.0  T
   3    -47.9387297 -0.431396E-04  0.942E-02    7.80       1.0  T
   4    -47.9387381 -0.833021E-05  0.404E-02    7.81       1.0  T
   5    -47.9387395 -0.142357E-05  0.898E-03    7.82       3.2  T
   6    -47.9387396 -0.755034E-07  0.405E-03    7.81       7.1  T
   7    -47.9387396 -0.254728E-07  0.158E-03    7.81      18.3  T
   8    -47.9387396 -0.407587E-08  0.774E-04    7.81      37.3  T
   9    -47.9387396 -0.127076E-08  0.239E-04    7.81     120.9  T
     SCC iter.                  ...        0 min,  0.004 sec
     gradient                   ...        0 min,  0.002 sec
 * total energy  :   -47.7812271 Eh     change       -0.6968913E-02 Eh
   gradient norm :     0.0463866 Eh/α   predicted    -0.7713946E-02 (  10.69%)
   displ. norm   :     0.0998791 α      lambda       -0.1980844E-02
   maximum displ.:     0.0649214 α      in ANC's #3, #5, #10, ...

........................................................................
.............................. CYCLE    4 ..............................
........................................................................

 iter      E             dE          RMSdq      gap      omega  full diag
   1    -47.9362923 -0.479363E+02  0.135E-01    7.65       0.0  T
   2    -47.9363305 -0.381971E-04  0.855E-02    7.67       1.0  T
   3    -47.9363327 -0.224022E-05  0.414E-02    7.68       1.0  T
   4    -47.9363331 -0.352940E-06  0.122E-02    7.68       2.4  T
   5    -47.9363333 -0.243111E-06  0.404E-03    7.68       7.1  T
   6    -47.9363333 -0.963411E-08  0.970E-04    7.68      29.7  T
   7    -47.9363333 -0.229510E-08  0.419E-04    7.68      69.0  T
     SCC iter.                  ...        0 min,  0.003 sec
     gradient                   ...        0 min,  0.001 sec
 * total energy  :   -47.7827566 Eh     change       -0.1529522E-02 Eh
   gradient norm :     0.0304310 Eh/α   predicted    -0.1000301E-02 ( -34.60%)
   displ. norm   :     0.1735941 α      lambda       -0.2163767E-02
   maximum displ.:     0.1399572 α      in ANC's #3, #5, #28, ...

........................................................................
.............................. CYCLE    5 ..............................
........................................................................

 iter      E             dE          RMSdq      gap      omega  full diag
   1    -47.9346916 -0.479347E+02  0.218E-01    7.31       0.0  T
   2    -47.9348034 -0.111816E-03  0.139E-01    7.36       1.0  T
   3    -47.9348113 -0.790550E-05  0.761E-02    7.38       1.0  T
   4    -47.9348122 -0.908302E-06  0.190E-02    7.39       1.5  T
   5    -47.9348128 -0.596507E-06  0.649E-03    7.39       4.4  T
   6    -47.9348128 -0.351529E-07  0.163E-03    7.38      17.7  T
   7    -47.9348128 -0.712081E-08  0.766E-04    7.38      37.7  T
   8    -47.9348128 -0.728264E-09  0.239E-04    7.38     121.0  T
     SCC iter.                  ...        0 min,  0.004 sec
     gradient                   ...        0 min,  0.001 sec
 * total energy  :   -47.7840533 Eh     change       -0.1296641E-02 Eh
   gradient norm :     0.0122093 Eh/α   predicted    -0.1114488E-02 ( -14.05%)
   displ. norm   :     0.0631680 α      lambda       -0.2792851E-03
   maximum displ.:     0.0566535 α      in ANC's #3, #28, #22, ...

........................................................................
.............................. CYCLE    6 ..............................
........................................................................

 iter      E             dE          RMSdq      gap      omega  full diag
   1    -47.9347011 -0.479347E+02  0.817E-02    7.25       0.0  T
   2    -47.9347151 -0.139927E-04  0.471E-02    7.27       1.0  T
   3    -47.9347159 -0.851847E-06  0.258E-02    7.27       1.1  T
   4    -47.9347160 -0.115081E-06  0.509E-03    7.28       5.7  T
   5    -47.9347161 -0.256635E-07  0.197E-03    7.28      14.6  T
   6    -47.9347161 -0.825050E-08  0.512E-04    7.28      56.3  T
   7    -47.9347161 -0.247539E-09  0.241E-04    7.28     120.0  T
     SCC iter.                  ...        0 min,  0.003 sec
     gradient                   ...        0 min,  0.001 sec
 * total energy  :   -47.7842413 Eh     change       -0.1880327E-03 Eh
   gradient norm :     0.0065080 Eh/α   predicted    -0.1401983E-03 ( -25.44%)
   displ. norm   :     0.0365068 α      lambda       -0.9861590E-04
   maximum displ.:     0.0294067 α      in ANC's #3, #28, #2, ...

........................................................................
.............................. CYCLE    7 ..............................
........................................................................

 iter      E             dE          RMSdq      gap      omega  full diag
   1    -47.9350449 -0.479350E+02  0.474E-02    7.21       0.0  T
   2    -47.9350495 -0.461289E-05  0.258E-02    7.22       1.1  T
   3    -47.9350497 -0.211879E-06  0.130E-02    7.22       2.2  T
   4    -47.9350498 -0.244317E-07  0.299E-03    7.22       9.7  T
   5    -47.9350498 -0.100531E-07  0.112E-03    7.22      25.7  T
   6    -47.9350498 -0.134167E-08  0.263E-04    7.22     109.7  T
   7    -47.9350498 -0.138947E-09  0.128E-04    7.22     224.9  T
     SCC iter.                  ...        0 min,  0.003 sec
     gradient                   ...        0 min,  0.001 sec
 * total energy  :   -47.7843007 Eh     change       -0.5942274E-04 Eh
   gradient norm :     0.0025761 Eh/α   predicted    -0.4937368E-04 ( -16.91%)
   displ. norm   :     0.0133855 α      lambda       -0.1320363E-04
   maximum displ.:     0.0072862 α      in ANC's #3, #2, #5, ...

........................................................................
.............................. CYCLE    8 ..............................
........................................................................

 iter      E             dE          RMSdq      gap      omega  full diag
   1    -47.9352510 -0.479353E+02  0.138E-02    7.21       0.0  T
   2    -47.9352514 -0.340102E-06  0.741E-03    7.21       3.9  T
   3    -47.9352514 -0.159939E-07  0.261E-03    7.21      11.1  T
   4    -47.9352514 -0.501272E-08  0.103E-03    7.21      28.0  T
   5    -47.9352514 -0.574488E-09  0.325E-04    7.21      88.7  T
   6    -47.9352514 -0.646239E-10  0.730E-05    7.21     395.4  T
     SCC iter.                  ...        0 min,  0.003 sec
     gradient                   ...        0 min,  0.001 sec
 * total energy  :   -47.7843093 Eh     change       -0.8579203E-05 Eh
   gradient norm :     0.0013731 Eh/α   predicted    -0.6602867E-05 ( -23.04%)
   displ. norm   :     0.0171393 α      lambda       -0.4448641E-05
   maximum displ.:     0.0112077 α      in ANC's #2, #3, #5, ...

........................................................................
.............................. CYCLE    9 ..............................
........................................................................

 iter      E             dE          RMSdq      gap      omega  full diag
   1    -47.9353670 -0.479354E+02  0.151E-02    7.21       0.0  T
   2    -47.9353671 -0.173143E-06  0.809E-03    7.21       3.6  T
   3    -47.9353671 -0.219490E-07  0.224E-03    7.21      12.9  T
   4    -47.9353671 -0.401660E-08  0.115E-03    7.21      25.1  T
   5    -47.9353671 -0.562849E-09  0.194E-04    7.21     148.8  T
   6    -47.9353672 -0.962572E-10  0.932E-05    7.21     309.7  T
     SCC iter.                  ...        0 min,  0.003 sec
     gradient                   ...        0 min,  0.001 sec
 * total energy  :   -47.7843130 Eh     change       -0.3732844E-05 Eh
   gradient norm :     0.0009232 Eh/α   predicted    -0.2224707E-05 ( -40.40%)
   displ. norm   :     0.0124220 α      lambda       -0.1841716E-05
   maximum displ.:     0.0093428 α      in ANC's #2, #3, #4, ...

   *** GEOMETRY OPTIMIZATION CONVERGED AFTER 9 ITERATIONS ***

------------------------------------------------------------------------
 total energy gain   :        -0.0206654 Eh      -12.9677 kcal/mol
 total RMSD          :         0.1397900 a0        0.0740 Å
 total power (kW/mol):        -6.0285524 (step)-1058.8641 (real)
------------------------------------------------------------------------

 ANCopt (total)                0 d,  0 h,  0 min,  0.051 sec
 optimizer setup                ...        0 min,  0.000 sec (  0.129%)
 model hessian                  ...        0 min,  0.001 sec (  2.167%)
 ANC generation                 ...        0 min,  0.000 sec (  0.339%)
 coordinate transformation      ...        0 min,  0.000 sec (  0.084%)
 single point calculation       ...        0 min,  0.048 sec ( 94.461%)
 optimization log               ...        0 min,  0.000 sec (  0.788%)
 hessian update                 ...        0 min,  0.000 sec (  0.200%)
 rational function              ...        0 min,  0.001 sec (  1.168%)

================
 final structure:
================
12
 xtb: 6.7.1 (edcfbbe)
O            1.20457226162034        0.00973966834803       -0.12550078512472
S            2.60121936463893       -0.13834042581773        0.16726902941891
O            3.10492945542249        0.66774641215760        1.24119640187662
O            3.12166131822196       -1.47170985725955        0.07832472758874
O            3.29117082573189        0.66269493876370       -1.29495002867820
C            4.57022039899724        0.67518632279717       -1.30833982789328
F            5.17237585854226        1.33246758247734       -0.26596413261264
F            5.18010041808963       -0.55283101532356       -1.29544817167478
C            5.10706055214231        1.38013256466515       -2.59385074311175
F            4.67793181357574        0.77859995937966       -3.70570605246751
F            4.71410044085985        2.65417509518245       -2.66177460768357
F            6.44595729215738        1.39071875462974       -2.65833580963781

 Bond Distances (Angstroems)
 ---------------------------
O1-S2=1.4347         S2-O1=1.4347         S2-O3=1.4342         S2-O4=1.4341         S2-O5=1.8044         O3-S2=1.4342         
O4-S2=1.4341         O5-S2=1.8044         O5-C6=1.2792         C6-O5=1.2792         C6-F7=1.3716         C6-F8=1.3712         
C6-C9=1.5613         F7-C6=1.3716         F8-C6=1.3712         C9-C6=1.5613         C9-F10=1.3350        C9-F11=1.3350        
C9-F12=1.3405        F10-C9=1.3350        F11-C9=1.3350        F12-C9=1.3405        
 C  C  Rav=1.5613 sigma=0.0000  Rmin=1.5613  Rmax=1.5613     1
 O  C  Rav=1.2792 sigma=0.0000  Rmin=1.2792  Rmax=1.2792     1
 F  C  Rav=1.3506 sigma=0.0170  Rmin=1.3350  Rmax=1.3716     5
 S  O  Rav=1.5268 sigma=0.1602  Rmin=1.4341  Rmax=1.8044     4

 selected bond angles (degree)
 --------------------
O3-S2-O1=115.89                O4-S2-O1=115.89                O4-S2-O3=116.20                O5-S2-O1= 99.27                
O5-S2-O3=102.89                O5-S2-O4=102.93                C6-O5-S2=113.28                F7-C6-O5=115.83                
F8-C6-O5=115.84                F8-C6-F7=103.11                C9-C6-O5=110.91                C9-C6-F7=104.98                
C9-C6-F8=105.02                F10-C9-C6=111.82               F11-C9-C6=111.81               F11-C9-F10=107.04              
F12-C9-C6=112.74               F12-C9-F10=106.53              F12-C9-F11=106.50              

 selected dihedral angles (degree)
 ---------------------------------
C6-O5-S2-O1=180.22            C6-O5-S2-O3= 60.79            C6-O5-S2-O4=299.64            F7-C6-O5-S2=299.52            
F8-C6-O5-S2= 60.48            C9-C6-O5-S2=180.03            F10-C9-C6-O5=301.24           F10-C9-C6-F7=175.44           
F10-C9-C6-F8= 67.09           F11-C9-C6-O5= 61.26           F11-C9-C6-F7=295.45           F11-C9-C6-F8=187.10           
F12-C9-C6-O5=181.22           F12-C9-C6-F7= 55.42           F12-C9-C6-F8=307.07           
           -------------------------------------------------
          |                Final Singlepoint                |
           -------------------------------------------------

          ...................................................
          :                      SETUP                      :
          :.................................................:
          :  # basis functions                  54          :
          :  # atomic orbitals                  53          :
          :  # shells                           25          :
          :  # electrons                        74          :
          :  max. iterations                   250          :
          :  Hamiltonian                  GFN2-xTB          :
          :  restarted?                      false          :
          :  GBSA solvation                  false          :
          :  PC potential                    false          :
          :  electronic temp.          300.0000000     K    :
          :  accuracy                    1.0000000          :
          :  -> integral cutoff          0.2500000E+02      :
          :  -> integral neglect         0.1000000E-07      :
          :  -> SCF convergence          0.1000000E-05 Eh   :
          :  -> wf. convergence          0.1000000E-03 e    :
          :  Broyden damping             0.4000000          :
          :  net charge                         -1          :
          :  unpaired electrons                  0          :
          ...................................................

 iter      E             dE          RMSdq      gap      omega  full diag
   1    -47.9353672 -0.479354E+02  0.347E-05    7.21       0.0  T
   2    -47.9353672 -0.319034E-11  0.252E-05    7.21    1143.4  T
   3    -47.9353672 -0.101608E-11  0.167E-05    7.21    1725.7  T

   *** convergence criteria satisfied after 3 iterations ***

         #    Occupation            Energy/Eh            Energy/eV
      -------------------------------------------------------------
         1        2.0000           -0.8011879             -21.8014
       ...           ...                  ...                  ...
        31        2.0000           -0.3627577              -9.8711
        32        2.0000           -0.3168827              -8.6228
        33        2.0000           -0.3067017              -8.3458
        34        2.0000           -0.3059462              -8.3252
        35        2.0000           -0.2924920              -7.9591
        36        2.0000           -0.2923846              -7.9562
        37        2.0000           -0.2781352              -7.5684 (HOMO)
        38                         -0.0130599              -0.3554 (LUMO)
        39                          0.0661293               1.7995
        40                          0.0816159               2.2209
        41                          0.1078089               2.9336
        42                          0.1250622               3.4031
       ...                                ...                  ...
        53                          1.4359857              39.0752
      -------------------------------------------------------------
                  HL-Gap            0.2650754 Eh            7.2131 eV
             Fermi-level           -0.1455975 Eh           -3.9619 eV

 SCC (total)                   0 d,  0 h,  0 min,  0.004 sec
 SCC setup                      ...        0 min,  0.000 sec (  1.355%)
 Dispersion                     ...        0 min,  0.000 sec (  0.801%)
 classical contributions        ...        0 min,  0.000 sec (  0.190%)
 integral evaluation            ...        0 min,  0.001 sec ( 18.227%)
 iterations                     ...        0 min,  0.001 sec ( 38.683%)
 molecular gradient             ...        0 min,  0.001 sec ( 38.302%)
 printout                       ...        0 min,  0.000 sec (  2.055%)

         :::::::::::::::::::::::::::::::::::::::::::::::::::::
         ::                     SUMMARY                     ::
         :::::::::::::::::::::::::::::::::::::::::::::::::::::
         :: total energy             -47.784313049514 Eh    ::
         :: gradient norm              0.000923531967 Eh/a0 ::
         :: HOMO-LUMO gap              7.213067627955 eV    ::
         ::.................................................::
         :: SCC energy               -47.935348713447 Eh    ::
         :: -> isotropic ES            0.241338717655 Eh    ::
         :: -> anisotropic ES         -0.023035899028 Eh    ::
         :: -> anisotropic XC         -0.039889269455 Eh    ::
         :: -> dispersion             -0.011615587132 Eh    ::
         :: repulsion energy           0.151035663932 Eh    ::
         :: add. restraining           0.000000000000 Eh    ::
         :: total charge              -1.000000000000 e     ::
         :::::::::::::::::::::::::::::::::::::::::::::::::::::

           -------------------------------------------------
          |                Property Printout                |
           -------------------------------------------------

    * Orbital Energies and Occupations

         #    Occupation            Energy/Eh            Energy/eV
      -------------------------------------------------------------
         1        2.0000           -0.8011879             -21.8014
       ...           ...                  ...                  ...
        25        2.0000           -0.4182067             -11.3800
        26        2.0000           -0.4090407             -11.1306
        27        2.0000           -0.4021501             -10.9431
        28        2.0000           -0.3930426             -10.6952
        29        2.0000           -0.3767820             -10.2528
        30        2.0000           -0.3699326             -10.0664
        31        2.0000           -0.3627577              -9.8711
        32        2.0000           -0.3168827              -8.6228
        33        2.0000           -0.3067017              -8.3458
        34        2.0000           -0.3059462              -8.3252
        35        2.0000           -0.2924920              -7.9591
        36        2.0000           -0.2923846              -7.9562
        37        2.0000           -0.2781352              -7.5684 (HOMO)
        38                         -0.0130599              -0.3554 (LUMO)
        39                          0.0661293               1.7995
        40                          0.0816159               2.2209
        41                          0.1078089               2.9336
        42                          0.1250622               3.4031
        43                          0.1912633               5.2045
        44                          0.2020526               5.4981
        45                          0.2021099               5.4997
        46                          0.2251841               6.1276
        47                          0.2465965               6.7102
        48                          0.3576369               9.7318
       ...                                ...                  ...
        53                          1.4359857              39.0752
      -------------------------------------------------------------
                  HL-Gap            0.2650754 Eh            7.2131 eV
             Fermi-level           -0.1455975 Eh           -3.9619 eV

     #   Z          covCN         q      C6AA      α(0)
     1   8 O        0.860    -0.646    27.273     7.002
     2  16 S        3.560     1.514    93.122    16.242
     3   8 O        0.860    -0.653    27.464     7.026
     4   8 O        0.860    -0.653    27.464     7.026
     5   8 O        1.693    -0.484    22.542     6.410
     6   6 C        3.539     0.486    14.675     5.616
     7   9 F        0.789    -0.234    11.592     4.022
     8   9 F        0.789    -0.234    11.589     4.021
     9   6 C        3.330     0.469    17.603     6.659
    10   9 F        0.791    -0.187    11.101     3.936
    11   9 F        0.791    -0.187    11.101     3.936
    12   9 F        0.791    -0.191    11.140     3.943

 Mol. C6AA /au·bohr⁶  :       2974.252359
 Mol. C8AA /au·bohr⁸  :      72838.004548
 Mol. α(0) /au        :         75.838129


Wiberg/Mayer (AO) data.
largest (>0.10) Wiberg bond orders for each atom

 ---------------------------------------------------------------------------
     #   Z sym  total        # sym  WBO       # sym  WBO       # sym  WBO
 ---------------------------------------------------------------------------
     1   8 O    1.796 --     2 S    1.476     3 O    0.131     4 O    0.131
     2  16 S    4.989 --     1 O    1.476     4 O    1.473     3 O    1.473
                             5 O    0.542
     3   8 O    1.794 --     2 S    1.473     4 O    0.132     1 O    0.131
     4   8 O    1.794 --     2 S    1.473     3 O    0.132     1 O    0.131
     5   8 O    2.029 --     6 C    1.179     2 S    0.542
     6   6 C    3.906 --     5 O    1.179     8 F    0.897     7 F    0.896
                             9 C    0.865
     7   9 F    1.038 --     6 C    0.896
     8   9 F    1.039 --     6 C    0.897
     9   6 C    3.842 --    10 F    0.964    11 F    0.964    12 F    0.957
                             6 C    0.865
    10   9 F    1.087 --     9 C    0.964
    11   9 F    1.087 --     9 C    0.964
    12   9 F    1.081 --     9 C    0.957
 ---------------------------------------------------------------------------

Topologies differ in total number of bonds
Writing topology from bond orders to xtbtopo.mol

molecular dipole:
                 x           y           z       tot (Debye)
 q only:       -6.218      -0.237       0.584
   full:       -6.080      -0.113       0.358      15.482
molecular quadrupole (traceless):
                xx          xy          yy          xz          yz          zz
 q only:      -41.640      -4.441      21.865       9.471       1.542      19.775
  q+dip:      -41.500      -3.161      21.075       7.084       0.473      20.425
   full:      -41.332      -3.101      21.036       6.974       0.543      20.297

           -------------------------------------------------
          |                Geometry Summary                 |
           -------------------------------------------------

      molecular mass/u    :      215.0758947
   center of mass at/Å    :        4.0393503       0.5793127      -1.1356922
  moments of inertia/u·Å² :        0.2862391E+03   0.9396242E+03   0.9557659E+03
rotational constants/cm⁻¹ :        0.5889354E-01   0.1794082E-01   0.1763783E-01

 * 9 selected distances

     #   Z          #   Z                                           value/Å
     1   8 O        2  16 S                                       1.4346656 (max)
     2  16 S        3   8 O                                       1.4341619
     2  16 S        4   8 O                                       1.4341009
     5   8 O        6   6 C                                       1.2791808 (min)
     6   6 C        7   9 F                                       1.3715529
     6   6 C        8   9 F                                       1.3711844
     9   6 C       10   9 F                                       1.3349964
     9   6 C       11   9 F                                       1.3349966
     9   6 C       12   9 F                                       1.3404907

 * 3 distinct bonds (by element types)

   Z      Z             #   av. dist./Å        max./Å        min./Å
   6 C    8 O           1     1.2791808     1.2791808     1.2791808
   6 C    9 F           5     1.3506442     1.3715529     1.3349964
   8 O   16 S           3     1.4343094     1.4346656     1.4341009


optimized geometry written to: xtbopt.xyz


           -------------------------------------------------
          | TOTAL ENERGY              -47.784313049514 Eh   |
          | GRADIENT NORM               0.000923531967 Eh/α |
          | HOMO-LUMO GAP               7.213067627955 eV   |
           -------------------------------------------------

------------------------------------------------------------------------
 * finished run on 2024/12/20 at 01:54:49.619     
------------------------------------------------------------------------
 total:
 * wall-time:     0 d,  0 h,  0 min,  0.083 sec
 *  cpu-time:     0 d,  0 h,  0 min,  0.637 sec
 * ratio c/w:     7.715 speedup
 SCF:
 * wall-time:     0 d,  0 h,  0 min,  0.012 sec
 *  cpu-time:     0 d,  0 h,  0 min,  0.088 sec
 * ratio c/w:     7.383 speedup
 ANC optimizer:
 * wall-time:     0 d,  0 h,  0 min,  0.055 sec
 *  cpu-time:     0 d,  0 h,  0 min,  0.440 sec
 * ratio c/w:     7.965 speedup

