      -----------------------------------------------------------      
     |                   =====================                   |     
     |                           x T B                           |     
     |                   =====================                   |     
     |                         S. Grimme                         |     
     |          Mulliken Center for Theoretical Chemistry        |     
     |                    University of Bonn                     |     
      -----------------------------------------------------------      

   * xtb version 6.7.1 (edcfbbe) compiled by 'conda@3ef47c1a292c' on 2024-11-25

   xtb is free software: you can redistribute it and/or modify it under
   the terms of the GNU Lesser General Public License as published by
   the Free Software Foundation, either version 3 of the License, or
   (at your option) any later version.
   
   xtb is distributed in the hope that it will be useful,
   but WITHOUT ANY WARRANTY; without even the implied warranty of
   MERCHANTABILITY or FITNESS FOR A PARTICULAR PURPOSE.  See the
   GNU Lesser General Public License for more details.
   
   Cite this work as:
   * C. Bannwarth, E. Caldeweyher, S. Ehlert, A. Hansen, P. Pracht,
     J. Seibert, S. Spicher, S. Grimme, WIREs Comput. Mol. Sci., 2020, 11,
     e01493. DOI: 10.1002/wcms.1493
   
   for GFN2-xTB:
   * C. Bannwarth, S. Ehlert and S. Grimme., J. Chem. Theory Comput., 2019,
     15, 1652-1671. DOI: 10.1021/acs.jctc.8b01176
   for GFN1-xTB:
   * S. Grimme, C. Bannwarth, P. Shushkov, J. Chem. Theory Comput., 2017,
     13, 1989-2009. DOI: 10.1021/acs.jctc.7b00118
   for GFN0-xTB:
   * P. Pracht, E. Caldeweyher, S. Ehlert, S. Grimme, ChemRxiv, 2019, preprint.
     DOI: 10.26434/chemrxiv.8326202.v1
   for GFN-FF:
   * S. Spicher and S. Grimme, Angew. Chem. Int. Ed., 2020, 59, 15665-15673.
     DOI: 10.1002/anie.202004239
   
   for ALPB and GBSA implicit solvation:
   * S. Ehlert, M. Stahn, S. Spicher, S. Grimme, J. Chem. Theory Comput.,
     2021, 17, 4250-4261. DOI: 10.1021/acs.jctc.1c00471
   
   for ddCOSMO and CPCM-X implicit solvation:
   * M. Stahn, S. Ehlert, S. Grimme, J. Phys. Chem. A,
     2023, XX, XXXX-XXXX. DOI: 10.1021/acs.jpca.3c04382
   
   for DFT-D4:
   * E. Caldeweyher, C. Bannwarth and S. Grimme, J. Chem. Phys., 2017,
     147, 034112. DOI: 10.1063/1.4993215
   * E. Caldeweyher, S. Ehlert, A. Hansen, H. Neugebauer, S. Spicher,
     C. Bannwarth and S. Grimme, J. Chem. Phys., 2019, 150, 154122.
     DOI: 10.1063/1.5090222
   * E. Caldeweyher, J.-M. Mewes, S. Ehlert and S. Grimme, Phys. Chem. Chem. Phys.
     2020, 22, 8499-8512. DOI: 10.1039/D0CP00502A
   
   for sTDA-xTB:
   * S. Grimme and C. Bannwarth, J. Chem. Phys., 2016, 145, 054103.
     DOI: 10.1063/1.4959605
   
   in the mass-spec context:
   * V. Asgeirsson, C. Bauer and S. Grimme, Chem. Sci., 2017, 8, 4879.
     DOI: 10.1039/c7sc00601b
   * J. Koopman and S. Grimme, ACS Omega 2019, 4, 12, 15120-15133.
     DOI: 10.1021/acsomega.9b02011
   
   for metadynamics refer to:
   * S. Grimme, J. Chem. Theory Comput., 2019, 155, 2847-2862
     DOI: 10.1021/acs.jctc.9b00143
   
   for SPH calculations refer to:
   * S. Spicher and S. Grimme, J. Chem. Theory Comput., 2021, 17, 1701-1714
     DOI: 10.1021/acs.jctc.0c01306
   
   for ONIOM refer to:
   * C. Plett, A. Katbashev, S. Ehlert, S. Grimme, M. Bursch,
     Phys. Chem. Chem. Phys., 2023, 25, 17860-17868. DOI: 10.1039/D3CP02178E
   
   for DIPRO refer to:
   * J. Kohn, N. Gildemeister, S. Grimme, D. Fazzi, A. Hansen,
     J. Chem. Phys., 2023, just accepted.
   
   for PTB refer to:
   * S. Grimme, M. Mueller, A. Hansen, J. Chem. Phys., 2023, 158, 124111.
     DOI: 10.1063/5.0137838
   
   with help from (in alphabetical order)
   P. Atkinson, C. Bannwarth, F. Bohle, G. Brandenburg, E. Caldeweyher
   M. Checinski, S. Dohm, S. Ehlert, S. Ehrlich, I. Gerasimov, C. Hölzer
   A. Katbashev, J. Kohn, J. Koopman, C. Lavigne, S. Lehtola, F. März, M. Müller,
   F. Musil, H. Neugebauer, J. Pisarek, C. Plett, P. Pracht, F. Pultar,
   J. Seibert, P. Shushkov, S. Spicher, M. Stahn, M. Steiner, T. Strunk,
   J. Stückrath, T. Rose, and J. Unsleber
   
 * started run on 2024/12/20 at 01:54:49.642     
   ID    Z sym.   atoms
    1   35 Br     1
    2    6 C      2-6, 8, 10
    3    7 N      7, 9
    4    1 H      11-14

           -------------------------------------------------
          |                Calculation Setup                |
           -------------------------------------------------

          program call               : xtb A135.xyz --opt --namespace A135 --charge -1
          calculation namespace      : A135
          coordinate file            : A135.xyz
          omp threads                :                     8


           -------------------------------------------------
          |                 G F N 2 - x T B                 |
           -------------------------------------------------

        Reference                      10.1021/acs.jctc.8b01176
      * Hamiltonian:
        H0-scaling (s, p, d)           1.850000    2.230000    2.230000
        zeta-weighting                 0.500000
      * Dispersion:
        s8                             2.700000
        a1                             0.520000
        a2                             5.000000
        s9                             5.000000
      * Repulsion:
        kExp                           1.500000    1.000000
        rExp                           1.000000
      * Coulomb:
        alpha                          2.000000
        third order                    shell-resolved
        anisotropic                    true
        a3                             3.000000
        a5                             4.000000
        cn-shift                       1.200000
        cn-exp                         4.000000
        max-rad                        5.000000


          ...................................................
          :                      SETUP                      :
          :.................................................:
          :  # basis functions                  50          :
          :  # atomic orbitals                  49          :
          :  # shells                           25          :
          :  # electrons                        50          :
          :  max. iterations                   250          :
          :  Hamiltonian                  GFN2-xTB          :
          :  restarted?                      false          :
          :  GBSA solvation                  false          :
          :  PC potential                    false          :
          :  electronic temp.          300.0000000     K    :
          :  accuracy                    1.0000000          :
          :  -> integral cutoff          0.2500000E+02      :
          :  -> integral neglect         0.1000000E-07      :
          :  -> SCF convergence          0.1000000E-05 Eh   :
          :  -> wf. convergence          0.1000000E-03 e    :
          :  Broyden damping             0.4000000          :
          :  net charge                         -1          :
          :  unpaired electrons                  0          :
          ...................................................

 iter      E             dE          RMSdq      gap      omega  full diag
   1    -27.4921418 -0.274921E+02  0.542E+00    3.34       0.0  T
   2    -27.5195085 -0.273667E-01  0.368E+00    2.67       1.0  T
   3    -27.5147208  0.478770E-02  0.200E+00    3.10       1.0  T
   4    -27.5511165 -0.363957E-01  0.725E-01    2.72       1.0  T
   5    -27.5511544 -0.378827E-04  0.411E-01    2.62       1.0  T
   6    -27.5518610 -0.706591E-03  0.280E-01    2.64       1.0  T
   7    -27.5520025 -0.141549E-03  0.136E-01    2.66       1.0  T
   8    -27.5520707 -0.682170E-04  0.419E-02    2.64       1.0  T
   9    -27.5520772 -0.645070E-05  0.234E-02    2.64       1.1  T
  10    -27.5520796 -0.240869E-05  0.867E-03    2.65       3.1  T
  11    -27.5520797 -0.966417E-07  0.310E-03    2.64       8.6  T
  12    -27.5520797 -0.297999E-07  0.151E-03    2.64      17.7  T
  13    -27.5520797 -0.106499E-07  0.760E-04    2.64      35.2  T
  14    -27.5520797 -0.960387E-09  0.321E-04    2.64      83.4  T

   *** convergence criteria satisfied after 14 iterations ***

         #    Occupation            Energy/Eh            Energy/eV
      -------------------------------------------------------------
         1        2.0000           -0.7114973             -19.3608
       ...           ...                  ...                  ...
        19        2.0000           -0.2803677              -7.6292
        20        2.0000           -0.2787271              -7.5846
        21        2.0000           -0.2641950              -7.1891
        22        2.0000           -0.2178493              -5.9280
        23        2.0000           -0.2071108              -5.6358
        24        2.0000           -0.2067678              -5.6264
        25        2.0000           -0.1841856              -5.0119 (HOMO)
        26                         -0.0869988              -2.3674 (LUMO)
        27                         -0.0642012              -1.7470
        28                         -0.0548833              -1.4935
        29                          0.0064660               0.1759
        30                          0.0750402               2.0419
       ...                                ...                  ...
        49                          0.8352085              22.7272
      -------------------------------------------------------------
                  HL-Gap            0.0971868 Eh            2.6446 eV
             Fermi-level           -0.1355922 Eh           -3.6897 eV

 SCC (total)                   0 d,  0 h,  0 min,  0.011 sec
 SCC setup                      ...        0 min,  0.000 sec (  0.856%)
 Dispersion                     ...        0 min,  0.000 sec (  0.950%)
 classical contributions        ...        0 min,  0.000 sec (  0.286%)
 integral evaluation            ...        0 min,  0.002 sec ( 17.032%)
 iterations                     ...        0 min,  0.007 sec ( 67.342%)
 molecular gradient             ...        0 min,  0.001 sec ( 12.824%)
 printout                       ...        0 min,  0.000 sec (  0.578%)

         :::::::::::::::::::::::::::::::::::::::::::::::::::::
         ::                     SUMMARY                     ::
         :::::::::::::::::::::::::::::::::::::::::::::::::::::
         :: total energy             -27.192890396189 Eh    ::
         :: gradient norm              0.083579235880 Eh/a0 ::
         :: HOMO-LUMO gap              2.644587575728 eV    ::
         ::.................................................::
         :: SCC energy               -27.552071905810 Eh    ::
         :: -> isotropic ES            0.123307809891 Eh    ::
         :: -> anisotropic ES          0.003239964234 Eh    ::
         :: -> anisotropic XC          0.010246036385 Eh    ::
         :: -> dispersion             -0.015770575172 Eh    ::
         :: repulsion energy           0.359181509621 Eh    ::
         :: add. restraining           0.000000000000 Eh    ::
         :: total charge              -1.000000000000 e     ::
         :::::::::::::::::::::::::::::::::::::::::::::::::::::

      ----------------------------------------------------------- 
     |                   =====================                   |
     |                        A N C O P T                        |
     |                   =====================                   |
     |               Approximate Normal Coordinate               |
     |                Rational Function Optimizer                |
      ----------------------------------------------------------- 
      ----------------------------------------------------------- 
     |                   =====================                   |
     |                        A N C O P T                        |
     |                   =====================                   |
     |               Approximate Normal Coordinate               |
     |                Rational Function Optimizer                |
      ----------------------------------------------------------- 

          ...................................................
          :                      SETUP                      :
          :.................................................:
          :   optimization level            normal          :
          :   max. optcycles                   200          :
          :   ANC micro-cycles                  20          :
          :   degrees of freedom                36          :
          :.................................................:
          :   RF solver                   davidson          :
          :   write xtbopt.log                true          :
          :   linear?                        false          :
          :   energy convergence         0.5000000E-05 Eh   :
          :   grad. convergence          0.1000000E-02 Eh/α :
          :   maxmium RF displ.          1.0000000          :
          :   Hlow (freq-cutoff)         0.1000000E-01      :
          :   Hmax (freq-cutoff)         5.0000000          :
          :   S6 in model hess.         20.0000000          :
          ...................................................

generating ANC from exact Hessian ...
Using Lindh-Hessian (1995)
 Shifting diagonal of input Hessian by    5.2890188599211060E-003
 Lowest  eigenvalues of input Hessian
    0.000000    0.000000    0.000000    0.000000    0.000000    0.000000
    0.010000    0.016155    0.022994    0.030800    0.032535    0.037288
    0.059237    0.070913    0.079124    0.093674    0.099408    0.108724
 Highest eigenvalues
    1.592814    1.790606    1.854577    1.937656    1.965262    2.155551


........................................................................
.............................. CYCLE    1 ..............................
........................................................................

 iter      E             dE          RMSdq      gap      omega  full diag
   1    -27.5520797 -0.275521E+02  0.193E-04    2.64       0.0  T
   2    -27.5520797 -0.772005E-10  0.137E-04    2.64     194.4  T
   3    -27.5520797 -0.259703E-10  0.106E-04    2.64     251.4  T
     SCC iter.                  ...        0 min,  0.002 sec
     gradient                   ...        0 min,  0.001 sec
 * total energy  :   -27.1928904 Eh     change       -0.1839631E-09 Eh
   gradient norm :     0.0835797 Eh/α   predicted     0.0000000E+00 (-100.00%)
   displ. norm   :     0.2122069 α      lambda       -0.1292548E-01
   maximum displ.:     0.1210304 α      in ANC's #12, #21, #16, ...

........................................................................
.............................. CYCLE    2 ..............................
........................................................................

 iter      E             dE          RMSdq      gap      omega  full diag
   1    -27.5703253 -0.275703E+02  0.448E-01    3.06       0.0  T
   2    -27.5703981 -0.728181E-04  0.256E-01    3.09       1.0  T
   3    -27.5703607  0.373601E-04  0.709E-02    3.07       1.0  T
   4    -27.5704147 -0.539662E-04  0.195E-02    3.08       1.4  T
   5    -27.5704177 -0.299985E-05  0.767E-03    3.08       3.5  T
   6    -27.5704178 -0.165046E-06  0.447E-03    3.08       6.0  T
   7    -27.5704179 -0.444235E-07  0.195E-03    3.08      13.7  T
   8    -27.5704179 -0.182101E-07  0.120E-03    3.08      22.2  T
   9    -27.5704179 -0.126707E-08  0.833E-04    3.08      32.1  T
  10    -27.5704179 -0.248712E-08  0.375E-04    3.08      71.3  T
     SCC iter.                  ...        0 min,  0.005 sec
     gradient                   ...        0 min,  0.005 sec
 * total energy  :   -27.2008436 Eh     change       -0.7953245E-02 Eh
   gradient norm :     0.0310744 Eh/α   predicted    -0.6753764E-02 ( -15.08%)
   displ. norm   :     0.0708658 α      lambda       -0.1367900E-02
   maximum displ.:     0.0362325 α      in ANC's #21, #12, #16, ...

........................................................................
.............................. CYCLE    3 ..............................
........................................................................

 iter      E             dE          RMSdq      gap      omega  full diag
   1    -27.5751878 -0.275752E+02  0.147E-01    3.19       0.0  T
   2    -27.5752160 -0.281868E-04  0.887E-02    3.20       1.0  T
   3    -27.5752170 -0.965617E-06  0.492E-02    3.19       1.0  T
   4    -27.5752279 -0.108939E-04  0.120E-02    3.20       2.2  T
   5    -27.5752284 -0.541504E-06  0.630E-03    3.19       4.2  T
   6    -27.5752286 -0.162872E-06  0.465E-03    3.19       5.7  T
   7    -27.5752286 -0.377681E-07  0.255E-03    3.19      10.5  T
   8    -27.5752286 -0.238202E-07  0.160E-03    3.19      16.7  T
   9    -27.5752286 -0.464200E-08  0.657E-04    3.19      40.7  T
  10    -27.5752286 -0.245744E-08  0.128E-04    3.19     208.8  T
     SCC iter.                  ...        0 min,  0.004 sec
     gradient                   ...        0 min,  0.001 sec
 * total energy  :   -27.2016237 Eh     change       -0.7800586E-03 Eh
   gradient norm :     0.0103179 Eh/α   predicted    -0.6873850E-03 ( -11.88%)
   displ. norm   :     0.0208828 α      lambda       -0.1193955E-03
   maximum displ.:     0.0171374 α      in ANC's #10, #34, #21, ...

........................................................................
.............................. CYCLE    4 ..............................
........................................................................

 iter      E             dE          RMSdq      gap      omega  full diag
   1    -27.5752038 -0.275752E+02  0.398E-02    3.20       0.0  T
   2    -27.5752076 -0.371733E-05  0.229E-02    3.19       1.2  T
   3    -27.5752087 -0.113236E-05  0.144E-02    3.19       1.9  T
   4    -27.5752091 -0.380005E-06  0.601E-03    3.20       4.4  T
   5    -27.5752092 -0.831624E-07  0.384E-03    3.19       7.0  T
   6    -27.5752092 -0.279984E-07  0.292E-03    3.19       9.1  T
   7    -27.5752092 -0.217488E-07  0.137E-03    3.19      19.5  T
   8    -27.5752092 -0.930788E-08  0.478E-04    3.19      55.9  T
   9    -27.5752092 -0.503118E-09  0.260E-04    3.19     102.6  T
     SCC iter.                  ...        0 min,  0.004 sec
     gradient                   ...        0 min,  0.001 sec
 * total energy  :   -27.2016995 Eh     change       -0.7582757E-04 Eh
   gradient norm :     0.0036104 Eh/α   predicted    -0.5972319E-04 ( -21.24%)
   displ. norm   :     0.0097026 α      lambda       -0.1937984E-04
   maximum displ.:     0.0072766 α      in ANC's #10, #16, #34, ...

........................................................................
.............................. CYCLE    5 ..............................
........................................................................

 iter      E             dE          RMSdq      gap      omega  full diag
   1    -27.5748880 -0.275749E+02  0.187E-02    3.19       0.0  T
   2    -27.5748885 -0.438419E-06  0.102E-02    3.19       2.6  T
   3    -27.5748885 -0.386811E-07  0.647E-03    3.19       4.1  T
   4    -27.5748886 -0.115686E-06  0.275E-03    3.19       9.7  T
   5    -27.5748886 -0.186926E-07  0.189E-03    3.19      14.1  T
   6    -27.5748886 -0.462680E-08  0.135E-03    3.19      19.8  T
   7    -27.5748887 -0.609185E-08  0.636E-04    3.19      42.0  T
   8    -27.5748887 -0.181629E-08  0.203E-04    3.19     131.7  T
     SCC iter.                  ...        0 min,  0.004 sec
     gradient                   ...        0 min,  0.001 sec
 * total energy  :   -27.2017103 Eh     change       -0.1072375E-04 Eh
   gradient norm :     0.0011082 Eh/α   predicted    -0.9689526E-05 (  -9.64%)
   displ. norm   :     0.0024198 α      lambda       -0.1018170E-05
   maximum displ.:     0.0010534 α      in ANC's #7, #10, #32, ...

........................................................................
.............................. CYCLE    6 ..............................
........................................................................

 iter      E             dE          RMSdq      gap      omega  full diag
   1    -27.5748234 -0.275748E+02  0.578E-03    3.18       0.0  T
   2    -27.5748234 -0.247873E-07  0.319E-03    3.18       8.4  T
   3    -27.5748234  0.415351E-08  0.167E-03    3.18      16.0  T
   4    -27.5748234 -0.120562E-07  0.600E-04    3.18      44.5  T
   5    -27.5748234 -0.892339E-09  0.421E-04    3.18      63.6  T
     SCC iter.                  ...        0 min,  0.002 sec
     gradient                   ...        0 min,  0.001 sec
 * total energy  :   -27.2017110 Eh     change       -0.7740279E-06 Eh
   gradient norm :     0.0003282 Eh/α   predicted    -0.5093317E-06 ( -34.20%)
   displ. norm   :     0.0009559 α      lambda       -0.1242391E-06
   maximum displ.:     0.0005657 α      in ANC's #12, #16, #10, ...

   *** GEOMETRY OPTIMIZATION CONVERGED AFTER 6 ITERATIONS ***

------------------------------------------------------------------------
 total energy gain   :        -0.0088206 Eh       -5.5350 kcal/mol
 total RMSD          :         0.0741864 a0        0.0393 Å
 total power (kW/mol):        -3.8597600 (step) -584.9064 (real)
------------------------------------------------------------------------

 ANCopt (total)                0 d,  0 h,  0 min,  0.040 sec
 optimizer setup                ...        0 min,  0.000 sec (  0.191%)
 model hessian                  ...        0 min,  0.001 sec (  3.378%)
 ANC generation                 ...        0 min,  0.000 sec (  0.546%)
 coordinate transformation      ...        0 min,  0.000 sec (  0.080%)
 single point calculation       ...        0 min,  0.037 sec ( 92.497%)
 optimization log               ...        0 min,  0.000 sec (  0.748%)
 hessian update                 ...        0 min,  0.000 sec (  0.168%)
 rational function              ...        0 min,  0.001 sec (  1.775%)

================
 final structure:
================
14
 xtb: 6.7.1 (edcfbbe)
Br           1.00578167003018        0.04392965079127        0.06330716422725
C            2.93750630784556        0.03439665718456        0.07276484480629
C            3.58268303716522        1.26828722475342        0.07555808389031
C            4.96269441359750        1.31910880417494        0.08230746723800
C            5.67044131452636        0.12456256620216        0.08613369212590
C            4.97335963345650       -1.13708097016325        0.08310180765881
N            5.89618335968617       -2.13365346274161        0.08793780717815
C            7.04874860138966       -1.46414196760727        0.09335095832686
N            7.00489712913505       -0.13267924929400        0.09275136638780
C            3.58459963666969       -1.17909967997729        0.07630469337470
H            2.99764600105949        2.17882725765521        0.07241873190076
H            5.47593636091729        2.27199606613011        0.08453579479815
H            7.99422978495900       -1.98889318764661        0.09816169895471
H            3.04622274956234       -2.11653970946165        0.07395588913232

 Bond Distances (Angstroems)
 ---------------------------
Br1-C2=1.9318        C2-Br1=1.9318        C2-C3=1.3924         C2-C10=1.3753        C3-C2=1.3924         C3-C4=1.3810         
C3-H11=1.0823        C4-C3=1.3810         C4-C5=1.3885         C4-H12=1.0823        C5-C4=1.3885         C5-C6=1.4414         
C5-N9=1.3590         C6-C5=1.4414         C6-N7=1.3582         C6-C10=1.3894        N7-C6=1.3582         N7-C8=1.3329         
C8-N7=1.3329         C8-N9=1.3322         C8-H13=1.0814        N9-C5=1.3590         N9-C8=1.3322         C10-C2=1.3753        
C10-C6=1.3894        C10-H14=1.0810       H11-C3=1.0823        H12-C4=1.0823        H13-C8=1.0814        H14-C10=1.0810       
 C  H  Rav=1.0818 sigma=0.0006  Rmin=1.0810  Rmax=1.0823     4
 C  C  Rav=1.3947 sigma=0.0217  Rmin=1.3753  Rmax=1.4414     6
 N  C  Rav=1.3456 sigma=0.0130  Rmin=1.3322  Rmax=1.3590     4
 Br C  Rav=1.9318 sigma=0.0000  Rmin=1.9318  Rmax=1.9318     1

 selected bond angles (degree)
 --------------------
C3-C2-Br1=117.32               C10-C2-Br1=118.35              C10-C2-C3=124.33               C4-C3-C2=119.71                
H11-C3-C2=119.67               H11-C3-C4=120.61               C5-C4-C3=118.54                H12-C4-C3=120.42               
H12-C4-C5=121.05               C6-C5-C4=120.43                N9-C5-C4=131.56                N9-C5-C6=108.01                
N7-C6-C5=108.28                C10-C6-C5=120.65               C10-C6-N7=131.07               C8-N7-C6=102.65                
N9-C8-N7=118.27                H13-C8-N7=120.82               H13-C8-N9=120.92               C8-N9-C5=102.80                
C6-C10-C2=116.34               H14-C10-C2=122.06              H14-C10-C6=121.60              

 selected dihedral angles (degree)
 ---------------------------------
C4-C3-C2-Br1=180.00           C4-C3-C2-C10=  0.00           H11-C3-C2-Br1=  0.00          H11-C3-C2-C10=180.00          
C5-C4-C3-C2=  0.00            C5-C4-C3-H11=180.00           H12-C4-C3-C2=180.00           H12-C4-C3-H11=  0.00          
C6-C5-C4-C3=  0.00            C6-C5-C4-H12=180.00           N9-C5-C4-C3=180.00            N9-C5-C4-H12=  0.00           
N7-C6-C5-C4=180.00            N7-C6-C5-N9=  0.00            C10-C6-C5-C4=  0.00           C10-C6-C5-N9=180.00           
C8-N7-C6-C5=  0.00            C8-N7-C6-C10=180.00           N9-C8-N7-C6=  0.00            H13-C8-N7-C6=180.00           
C8-N9-C5-C4=180.00            C8-N9-C5-C6=  0.00            C5-N9-C8-N7=  0.00            C5-N9-C8-H13=180.00           
C6-C10-C2-Br1=180.00          C6-C10-C2-C3=  0.00           H14-C10-C2-Br1=  0.00         H14-C10-C2-C3=180.00          
C2-C10-C6-C5=  0.00           C2-C10-C6-N7=180.00           H14-C10-C6-C5=180.00          H14-C10-C6-N7=  0.00          
           -------------------------------------------------
          |                Final Singlepoint                |
           -------------------------------------------------

          ...................................................
          :                      SETUP                      :
          :.................................................:
          :  # basis functions                  50          :
          :  # atomic orbitals                  49          :
          :  # shells                           25          :
          :  # electrons                        50          :
          :  max. iterations                   250          :
          :  Hamiltonian                  GFN2-xTB          :
          :  restarted?                      false          :
          :  GBSA solvation                  false          :
          :  PC potential                    false          :
          :  electronic temp.          300.0000000     K    :
          :  accuracy                    1.0000000          :
          :  -> integral cutoff          0.2500000E+02      :
          :  -> integral neglect         0.1000000E-07      :
          :  -> SCF convergence          0.1000000E-05 Eh   :
          :  -> wf. convergence          0.1000000E-03 e    :
          :  Broyden damping             0.4000000          :
          :  net charge                         -1          :
          :  unpaired electrons                  0          :
          ...................................................

 iter      E             dE          RMSdq      gap      omega  full diag
   1    -27.5748234 -0.275748E+02  0.313E-04    3.18       0.0  T
   2    -27.5748234 -0.151758E-09  0.241E-04    3.18     110.9  T
   3    -27.5748234 -0.142681E-09  0.205E-04    3.18     130.2  T

   *** convergence criteria satisfied after 3 iterations ***

         #    Occupation            Energy/Eh            Energy/eV
      -------------------------------------------------------------
         1        2.0000           -0.7094528             -19.3052
       ...           ...                  ...                  ...
        19        2.0000           -0.2821054              -7.6765
        20        2.0000           -0.2775947              -7.5537
        21        2.0000           -0.2693436              -7.3292
        22        2.0000           -0.2192810              -5.9669
        23        2.0000           -0.2152689              -5.8578
        24        2.0000           -0.2131151              -5.7992
        25        2.0000           -0.1998413              -5.4380 (HOMO)
        26                         -0.0828127              -2.2534 (LUMO)
        27                         -0.0699913              -1.9046
        28                         -0.0550288              -1.4974
        29                          0.0056042               0.1525
        30                          0.0728928               1.9835
       ...                                ...                  ...
        49                          0.8431453              22.9432
      -------------------------------------------------------------
                  HL-Gap            0.1170286 Eh            3.1845 eV
             Fermi-level           -0.1413270 Eh           -3.8457 eV

 SCC (total)                   0 d,  0 h,  0 min,  0.004 sec
 SCC setup                      ...        0 min,  0.000 sec (  1.561%)
 Dispersion                     ...        0 min,  0.000 sec (  1.184%)
 classical contributions        ...        0 min,  0.000 sec (  0.215%)
 integral evaluation            ...        0 min,  0.001 sec ( 18.275%)
 iterations                     ...        0 min,  0.001 sec ( 39.020%)
 molecular gradient             ...        0 min,  0.001 sec ( 37.425%)
 printout                       ...        0 min,  0.000 sec (  1.923%)

         :::::::::::::::::::::::::::::::::::::::::::::::::::::
         ::                     SUMMARY                     ::
         :::::::::::::::::::::::::::::::::::::::::::::::::::::
         :: total energy             -27.201711026208 Eh    ::
         :: gradient norm              0.000328684890 Eh/a0 ::
         :: HOMO-LUMO gap              3.184510258460 eV    ::
         ::.................................................::
         :: SCC energy               -27.574814110576 Eh    ::
         :: -> isotropic ES            0.121429830370 Eh    ::
         :: -> anisotropic ES          0.003144369598 Eh    ::
         :: -> anisotropic XC          0.008873367381 Eh    ::
         :: -> dispersion             -0.015696455901 Eh    ::
         :: repulsion energy           0.373103084368 Eh    ::
         :: add. restraining           0.000000000000 Eh    ::
         :: total charge              -1.000000000000 e     ::
         :::::::::::::::::::::::::::::::::::::::::::::::::::::

           -------------------------------------------------
          |                Property Printout                |
           -------------------------------------------------

    * Orbital Energies and Occupations

         #    Occupation            Energy/Eh            Energy/eV
      -------------------------------------------------------------
         1        2.0000           -0.7094528             -19.3052
       ...           ...                  ...                  ...
        13        2.0000           -0.3484933              -9.4830
        14        2.0000           -0.3410506              -9.2805
        15        2.0000           -0.3185164              -8.6673
        16        2.0000           -0.3088109              -8.4032
        17        2.0000           -0.2956388              -8.0447
        18        2.0000           -0.2849719              -7.7545
        19        2.0000           -0.2821054              -7.6765
        20        2.0000           -0.2775947              -7.5537
        21        2.0000           -0.2693436              -7.3292
        22        2.0000           -0.2192810              -5.9669
        23        2.0000           -0.2152689              -5.8578
        24        2.0000           -0.2131151              -5.7992
        25        2.0000           -0.1998413              -5.4380 (HOMO)
        26                         -0.0828127              -2.2534 (LUMO)
        27                         -0.0699913              -1.9046
        28                         -0.0550288              -1.4974
        29                          0.0056042               0.1525
        30                          0.0728928               1.9835
        31                          0.1728078               4.7023
        32                          0.1741901               4.7400
        33                          0.1766775               4.8076
        34                          0.2135666               5.8114
        35                          0.2601102               7.0780
        36                          0.2794679               7.6047
       ...                                ...                  ...
        49                          0.8431453              22.9432
      -------------------------------------------------------------
                  HL-Gap            0.1170286 Eh            3.1845 eV
             Fermi-level           -0.1413270 Eh           -3.8457 eV

     #   Z          covCN         q      C6AA      α(0)
     1  35 Br       1.063    -0.278   192.850    22.391
     2   6 C        2.925     0.051    26.864     8.500
     3   6 C        2.990    -0.066    29.630     8.929
     4   6 C        2.912    -0.064    29.604     8.922
     5   6 C        3.220     0.051    26.156     8.315
     6   6 C        3.236     0.053    25.954     8.265
     7   7 N        1.870    -0.386    30.947     8.246
     8   6 C        3.322     0.136    23.064     7.639
     9   7 N        1.872    -0.386    30.947     8.246
    10   6 C        2.977    -0.068    29.679     8.936
    11   1 H        0.925    -0.002     3.095     2.751
    12   1 H        0.925    -0.004     3.136     2.769
    13   1 H        0.925    -0.045     3.979     3.119
    14   1 H        0.926     0.009     2.914     2.669

 Mol. C6AA /au·bohr⁶  :       4722.117909
 Mol. C8AA /au·bohr⁸  :     147445.420994
 Mol. α(0) /au        :        109.698969


Wiberg/Mayer (AO) data.
largest (>0.10) Wiberg bond orders for each atom

 ---------------------------------------------------------------------------
     #   Z sym  total        # sym  WBO       # sym  WBO       # sym  WBO
 ---------------------------------------------------------------------------
     1  35 Br   1.009 --     2 C    0.907
     2   6 C    3.885 --    10 C    1.454     3 C    1.357     1 Br   0.907
     3   6 C    3.981 --     4 C    1.464     2 C    1.357    11 H    0.971
     4   6 C    3.987 --     3 C    1.464     5 C    1.345    12 H    0.968
     5   6 C    3.980 --     4 C    1.345     9 N    1.280     6 C    1.154
     6   6 C    3.979 --    10 C    1.331     7 N    1.280     5 C    1.154
     7   7 N    2.954 --     8 C    1.421     6 C    1.280     9 N    0.117
     8   6 C    3.973 --     9 N    1.425     7 N    1.421    13 H    0.962
     9   7 N    2.959 --     8 C    1.425     5 C    1.280     7 N    0.117
    10   6 C    3.986 --     2 C    1.454     6 C    1.331    14 H    0.968
    11   1 H    1.000 --     3 C    0.971
    12   1 H    1.000 --     4 C    0.968
    13   1 H    0.997 --     8 C    0.962
    14   1 H    1.000 --    10 C    0.968
 ---------------------------------------------------------------------------

Topologies differ in total number of bonds
Writing topology from bond orders to xtbtopo.mol

molecular dipole:
                 x           y           z       tot (Debye)
 q only:       -8.996       1.094      -0.155
   full:       -8.407       1.201      -0.152      21.590
molecular quadrupole (traceless):
                xx          xy          yy          xz          yz          zz
 q only:      -99.262      19.804      44.591      -2.250       0.281      54.670
  q+dip:     -100.243      21.003      46.298      -2.154       0.304      53.944
   full:     -100.281      20.778      44.167      -2.165       0.304      56.115

           -------------------------------------------------
          |                Geometry Summary                 |
           -------------------------------------------------

      molecular mass/u    :      196.0238485
   center of mass at/Å    :        3.4394196      -0.2056091       0.0753040
  moments of inertia/u·Å² :        0.1474035E+03   0.1062574E+04   0.1209977E+04
rotational constants/cm⁻¹ :        0.1143639E+00   0.1586490E-01   0.1393219E-01

 * 14 selected distances

     #   Z          #   Z                                           value/Å
     2   6 C        3   6 C                                       1.3923890
     3   6 C        4   6 C                                       1.3809635
     4   6 C        5   6 C                                       1.3884745
     5   6 C        6   6 C                                       1.4414149 (max)
     6   6 C        7   7 N                                       1.3582283
     7   7 N        8   6 C                                       1.3329223
     5   6 C        9   7 N                                       1.3590400
     8   6 C        9   7 N                                       1.3321849
     2   6 C       10   6 C                                       1.3752513
     6   6 C       10   6 C                                       1.3894123
     3   6 C       11   1 H                                       1.0822946
     4   6 C       12   1 H                                       1.0823200
     8   6 C       13   1 H                                       1.0813519
    10   6 C       14   1 H                                       1.0810408 (min)

 * 3 distinct bonds (by element types)

   Z      Z             #   av. dist./Å        max./Å        min./Å
   1 H    6 C           4     1.0817518     1.0823200     1.0810408
   6 C    6 C           6     1.3946509     1.4414149     1.3752513
   6 C    7 N           4     1.3455939     1.3590400     1.3321849


optimized geometry written to: xtbopt.xyz


           -------------------------------------------------
          | TOTAL ENERGY              -27.201711026208 Eh   |
          | GRADIENT NORM               0.000328684890 Eh/α |
          | HOMO-LUMO GAP               3.184510258460 eV   |
           -------------------------------------------------

------------------------------------------------------------------------
 * finished run on 2024/12/20 at 01:54:49.712     
------------------------------------------------------------------------
 total:
 * wall-time:     0 d,  0 h,  0 min,  0.070 sec
 *  cpu-time:     0 d,  0 h,  0 min,  0.537 sec
 * ratio c/w:     7.674 speedup
 SCF:
 * wall-time:     0 d,  0 h,  0 min,  0.011 sec
 *  cpu-time:     0 d,  0 h,  0 min,  0.088 sec
 * ratio c/w:     7.914 speedup
 ANC optimizer:
 * wall-time:     0 d,  0 h,  0 min,  0.044 sec
 *  cpu-time:     0 d,  0 h,  0 min,  0.340 sec
 * ratio c/w:     7.777 speedup

