13
 energy: -42.674664737478 gnorm: 0.309948262450 xtb: 6.7.1 (edcfbbe)
O            1.07602000000000        0.00296000000000        0.06490000000000
C            2.34692000000000        0.00296000000000        0.06490000000000
O            3.11893000000000       -1.09312000000000       -0.03312000000000
B            4.49324000000000       -0.69711000000000       -0.49643000000000
O            4.46987000000000        0.83466000000000       -0.61320000000000
C            3.18546000000000        1.19350000000000        0.17137000000000
O            2.91988000000000        2.28075000000000        0.77347000000000
O            4.84998000000000       -1.34080000000000       -1.80733000000000
C            5.99452000000000       -2.03188000000000       -1.66887000000000
O            6.75967000000000       -2.37557000000000       -2.62365000000000
C            6.22802000000000       -2.32895000000000       -0.25898000000000
O            6.83392000000000       -3.33155000000000        0.23385000000000
O            5.57351000000000       -1.15124000000000        0.50195000000000
13
 energy: -42.743106405650 gnorm: 0.141349489570 xtb: 6.7.1 (edcfbbe)
O            1.12963216433722        0.00724570859392        0.06057752753498
C            2.35136312018849       -0.02469416233664        0.08951880520024
O            3.11165040008940       -1.10073547711303       -0.06478312205520
B            4.49775784228890       -0.69390422358286       -0.48609163724916
O            4.42641568647413        0.82403811317664       -0.53036834655574
C            3.20599254579649        1.18821840927708        0.14987811211783
O            2.97585411076491        2.23430336521895        0.70803418315288
O            4.86720049823257       -1.30694883465126       -1.80668389530080
C            5.97498615909026       -2.02706593504133       -1.68056699343237
O            6.70935698343285       -2.36580891593886       -2.59635103320116
C            6.23463332966351       -2.29635828698007       -0.24463447435896
O            6.80260969061555       -3.24152428472217        0.24769699275636
O            5.56248746902574       -1.23215547590038        0.46263388139111
13
 energy: -42.765130656364 gnorm: 0.094476480334 xtb: 6.7.1 (edcfbbe)
O            1.16847643688485       -0.03418449817254        0.10523116553850
C            2.35826696905207       -0.05608581697843        0.04325441253198
O            3.11628100452117       -1.11414137099606       -0.09271977159079
B            4.50557794134419       -0.68899576024617       -0.47910784467854
O            4.39761465830091        0.81198733205211       -0.44578073795099
C            3.26880538027655        1.16280109018190        0.13690729427936
O            3.04081371576688        2.20163208277942        0.64168454128964
O            4.87974604315541       -1.25021096193041       -1.81837036535006
C            5.95472210852796       -1.99531468014473       -1.69701744106504
O            6.66521115903113       -2.36378035714791       -2.57889569013620
C            6.17297811182023       -2.26317721799963       -0.21306469699344
O            6.76777143942573       -3.15062353634165        0.28269410390816
O            5.55367503189292       -1.29529630505590        0.42404503021740
13
 energy: -42.773900422407 gnorm: 0.033318708708 xtb: 6.7.1 (edcfbbe)
O            1.15711901613466       -0.04085220131830        0.13535338708092
C            2.35490389649734       -0.07084455657643        0.07044768786575
O            3.09653304329759       -1.13615493111069       -0.14219306439359
B            4.49107421544861       -0.70732667799359       -0.47804193459923
O            4.47457345208364        0.78082489840502       -0.36082916381431
C            3.28833678690377        1.15340708366728        0.11328595467106
O            3.05140770558152        2.23361539282736        0.57846034781064
O            4.89447380471036       -1.19401111464436       -1.83302744253348
C            5.93875672806156       -1.99237963204421       -1.71220073397751
O            6.63616828285802       -2.38457467743831       -2.60695371975359
C            6.17957731406825       -2.22979796103267       -0.21092059309629
O            6.81923516133091       -3.10933829050380        0.29381620653603
O            5.46778059302379       -1.33795733223733        0.46166306820360
13
 energy: -42.776903965011 gnorm: 0.042475726854 xtb: 6.7.1 (edcfbbe)
O            1.14680576463641       -0.02329025429978        0.16646561918808
C            2.34702761779622       -0.06462443686650        0.06322138645150
O            3.07191534748131       -1.13760338877011       -0.18710675790200
B            4.47667850492544       -0.72552453864533       -0.47080677418373
O            4.48851236447023        0.74352045971519       -0.31393484859937
C            3.31502532046940        1.14618202115796        0.13012054055532
O            3.04805102901892        2.26331069618471        0.52612857904049
O            4.91160944079990       -1.16322909761279       -1.82490671711500
C            5.94810375200083       -1.97129574535978       -1.71169669349930
O            6.61256725204183       -2.40413602684916       -2.62059458992981
C            6.17535138522010       -2.23242534355611       -0.20127728319484
O            6.89543377008363       -3.08125470622133        0.28449855110594
O            5.41285845105579       -1.38501963887696        0.46874898808274
13
 energy: -42.778441257255 gnorm: 0.031399730544 xtb: 6.7.1 (edcfbbe)
O            1.13978231214728       -0.03396186147640        0.22433160391857
C            2.33696629502242       -0.05552045793264        0.04307086305008
O            3.06349831645540       -1.12169735061886       -0.23166998895231
B            4.47895085252458       -0.72673227565060       -0.46426962550339
O            4.50761281902267        0.73071522616583       -0.26110106177906
C            3.31077542277540        1.15904225060396        0.10443256870655
O            3.03779271315183        2.26578569789127        0.49667296488137
O            4.94092131582418       -1.12730515219523       -1.81469689535101
C            5.95693325019572       -1.96581888255971       -1.71199560801032
O            6.58713131679480       -2.43549285513096       -2.62952675585380
C            6.18469989433360       -2.23119672354503       -0.19538066304842
O            6.92319898858628       -3.06416690913814        0.27739918373087
O            5.38167650316587       -1.42904070641351        0.47159341421089
13
 energy: -42.779460181089 gnorm: 0.022420083492 xtb: 6.7.1 (edcfbbe)
O            1.15097584740436       -0.03695210212528        0.23192743657353
C            2.33635151968113       -0.05105239321622        0.05056343569745
O            3.05723844818921       -1.11194945510647       -0.25638783612071
B            4.47774492564804       -0.73184759794701       -0.45598847580689
O            4.50711503636340        0.71857036083414       -0.22225274630386
C            3.31691704034120        1.16003955182854        0.11479605167709
O            3.02908616314050        2.28371538791524        0.45036823437936
O            4.95652821268909       -1.10580556942929       -1.80301425808405
C            5.95214862859064       -1.97115393414531       -1.71347494365257
O            6.56635482567083       -2.43604555627801       -2.63280608461487
C            6.18571723196014       -2.23898954937122       -0.19596661053345
O            6.95537949263964       -3.04134081264789        0.26883149189734
O            5.35838262768185       -1.47257833031124        0.47226430489165
13
 energy: -42.779931462702 gnorm: 0.014197317080 xtb: 6.7.1 (edcfbbe)
O            1.15204374435630       -0.02806205186591        0.25376167466811
C            2.33338292960871       -0.04593670567341        0.04299615816709
O            3.04310016093773       -1.10763780841594       -0.28521803962901
B            4.46826446344330       -0.73927835870206       -0.45917483939986
O            4.51105424512904        0.71117991224333       -0.20050131793645
C            3.31868371169845        1.15544340451500        0.11925697003348
O            3.04145023131085        2.28116061966673        0.43377472066244
O            4.96709075708879       -1.09881989097669       -1.79983165554436
C            5.95669000655552       -1.96437669170305       -1.71021391937126
O            6.55513394828641       -2.44629408982249       -2.63177961298443
C            6.18469377745689       -2.24258036675648       -0.19751412196318
O            6.98626101173016       -3.01321351387185        0.26927400904130
O            5.33209101239787       -1.49697445863718        0.47402997425615
13
 energy: -42.779918770460 gnorm: 0.017664463341 xtb: 6.7.1 (edcfbbe)
O            1.15748184122333       -0.03316861432099        0.27259921833299
C            2.33715203612629       -0.04733786686968        0.04583482300748
O            3.04327688634257       -1.10480800665481       -0.29643987650102
B            4.47027760922348       -0.74515547827161       -0.45076436046975
O            4.52207917899045        0.70512907100160       -0.16575421379148
C            3.31121179245917        1.15434790579195        0.12151826698727
O            3.02500909577769        2.29555448578170        0.38950660712840
O            4.98262408080716       -1.07511206398770       -1.79529402568009
C            5.95967812388568       -1.95434676580498       -1.70897355498548
O            6.54262247909558       -2.45463995472925       -2.63509022341441
C            6.18148825079716       -2.25209202863358       -0.20521085693259
O            6.98464267445391       -3.00596591671836        0.26289934738768
O            5.33239595081757       -1.51779476658428        0.47402884893102
13
 energy: -42.780124346488 gnorm: 0.006384649133 xtb: 6.7.1 (edcfbbe)
O            1.15485622875132       -0.02198890091781        0.26918359329007
C            2.33582302802683       -0.04420729727574        0.04519340382318
O            3.03641606833083       -1.10524617575389       -0.30041289392551
B            4.46445865349228       -0.74860863482470       -0.45448240462322
O            4.51472032849821        0.70156210950157       -0.17961450427181
C            3.31423547378047        1.15325301366923        0.12219885127492
O            3.04053072308448        2.28843104466168        0.40500637810539
O            4.97692924332547       -1.08239614669346       -1.79779192790083
C            5.95309138583135       -1.96404819369279       -1.70803716689264
O            6.55062543864701       -2.44425932310421       -2.63037604542533
C            6.18383199308194       -2.25084061080662       -0.20389495588676
O            7.00067464455300       -2.99735758223297        0.26819200780771
O            5.32374679059685       -1.51968330253028        0.47369566462486
13
 energy: -42.780126534671 gnorm: 0.006388833971 xtb: 6.7.1 (edcfbbe)
O            1.15544041232163       -0.02095169876149        0.25552483951746
C            2.33678830683976       -0.04518920673460        0.04691675649214
O            3.03759472883264       -1.10610362606817       -0.29423246535637
B            4.46435137610431       -0.74742949147239       -0.45284204693146
O            4.51355812801537        0.70257020376027       -0.18274959454686
C            3.31632781580522        1.15186996907653        0.12446965580332
O            3.04196001691882        2.28606979714466        0.41018521017106
O            4.97183585398068       -1.08819087293329       -1.79513511369001
C            5.95371170453069       -1.96105564891654       -1.70790621847333
O            6.54799021198253       -2.44758041988055       -2.63393615892130
C            6.18823795621679       -2.24518983730031       -0.20360690870458
O            6.99838731585739       -2.99759554346563        0.26672135606726
O            5.32375617259420       -1.51661362444849        0.47545068857270
13
 energy: -42.780153341311 gnorm: 0.003784104212 xtb: 6.7.1 (edcfbbe)
O            1.15456378947480       -0.01959441650277        0.25753509994079
C            2.33669597136392       -0.04477424855972        0.04743432359636
O            3.03673718062811       -1.10591573504088       -0.29235471232803
B            4.46370974688474       -0.74975727150563       -0.45113915058045
O            4.51706780095729        0.70010812165817       -0.17828210424062
C            3.31638368588337        1.15227055333497        0.12218110346398
O            3.04137457319771        2.28837005435958        0.40353238352168
O            4.97001962453302       -1.08906480298840       -1.79447445129496
C            5.95212317672487       -1.96097838216882       -1.70786318762725
O            6.55030662952407       -2.44062493265664       -2.63297849007008
C            6.18481878587884       -2.24868516337020       -0.20427933456513
O            7.00213806684291       -2.99649549692618        0.26500694232791
O            5.32400096810639       -1.52024827963348        0.47454157785583
13
 energy: -42.780157629715 gnorm: 0.003485720348 xtb: 6.7.1 (edcfbbe)
O            1.15323007857748       -0.01702708675475        0.26363408308331
C            2.33640032239985       -0.04436710992462        0.04759755247125
O            3.03484665179156       -1.10639914741662       -0.29426934991598
B            4.46239612651021       -0.75200935289941       -0.45141720492338
O            4.51606269774660        0.69767128296009       -0.17859844682369
C            3.31709048452681        1.15132361003263        0.12223763003784
O            3.04390861229691        2.28880518550018        0.39992307109117
O            4.97104728633872       -1.08805394418982       -1.79568856188676
C            5.95271428903502       -1.96093632210301       -1.70794399437444
O            6.55388887873159       -2.43770475697669       -2.63180100001394
C            6.18530693174136       -2.24866159626397       -0.20472957658048
O            7.00188888245662       -2.99417984216227        0.26558434155216
O            5.32115875784733       -1.52385091980172        0.47433145628296
13
 energy: -42.780167627306 gnorm: 0.001608644504 xtb: 6.7.1 (edcfbbe)
O            1.15276241459018       -0.01451188413112        0.25908557423216
C            2.33588316231684       -0.04344062507057        0.04759815966405
O            3.03334216002588       -1.10628002943533       -0.29209462780847
B            4.46139290117276       -0.75369569488134       -0.44924981283975
O            4.51710114945772        0.69599969949256       -0.17589291350890
C            3.31742615718303        1.15155202848379        0.12220715490422
O            3.04471056433516        2.28914057551661        0.39872702646541
O            4.96840662562176       -1.08966928942146       -1.79433781266158
C            5.95187108997070       -1.96071710906133       -1.70807923059775
O            6.55321659349124       -2.43679310829189       -2.63310750169902
C            6.18673391096508       -2.24846749513195       -0.20518158322976
O            7.00683589351232       -2.99177184488869        0.26424361200714
O            5.32025737735737       -1.52673522317929        0.47494195507228
13
 energy: -42.780176542414 gnorm: 0.003035974374 xtb: 6.7.1 (edcfbbe)
O            1.15070764583012       -0.00717513282708        0.25021359843971
C            2.33456969951123       -0.04170837882412        0.04863177197980
O            3.02954232708812       -1.10765111847083       -0.28433668411043
B            4.45795421404554       -0.75904662938810       -0.44511165406469
O            4.51829431651438        0.69081423792124       -0.17350129889465
C            3.31979631673824        1.15077092446338        0.12142103331246
O            3.05080931717875        2.28885826908935        0.39588429025877
O            4.95948837541104       -1.09748674500284       -1.79231267338018
C            5.95114634986941       -1.95834848710890       -1.70832674206736
O            6.55695809550717       -2.42864194565913       -2.63441409137428
C            6.18824380286061       -2.24763367966769       -0.20592295377246
O            7.01379382246325       -2.98610361435258        0.26187642969774
O            5.31863571698221       -1.53203770017270        0.47475897397560
13
 energy: -42.780181723914 gnorm: 0.003346849007 xtb: 6.7.1 (edcfbbe)
O            1.14790135453632        0.00172881031480        0.24598775494420
C            2.33244018275887       -0.03867414234752        0.04830131949183
O            3.02383080033247       -1.10868591002494       -0.27801607302581
B            4.45366614329953       -0.76639736454969       -0.43969269220320
O            4.52074907948314        0.68345893392019       -0.16792690868430
C            3.32240614817500        1.15042398964024        0.12016597349560
O            3.05589194742134        2.29183713102037        0.38703614228733
O            4.95187349281386       -1.10375931468383       -1.78950691126092
C            5.95098216006540       -1.95591103762682       -1.70876338785920
O            6.56025188521258       -2.41863668872253       -2.63641478169948
C            6.19214489150595       -2.24730109481710       -0.20717402472620
O            7.02516369308894       -2.97978615672399        0.25736895766524
O            5.31263822130667       -1.54368715539918        0.47749463157494
13
 energy: -42.780188710941 gnorm: 0.001549258012 xtb: 6.7.1 (edcfbbe)
O            1.14753238400770        0.00248239217445        0.24719174157147
C            2.33203907225255       -0.03834973341606        0.04749889323086
O            3.02336970844891       -1.10926002509146       -0.27802101937213
B            4.45319470540654       -0.76714762607418       -0.43970369992570
O            4.52039502489914        0.68296708638311       -0.16778805222495
C            3.32268346951767        1.14991896746158        0.12014659712839
O            3.05714441797232        2.29123061747263        0.38686295378263
O            4.95153854579473       -1.10321851989724       -1.79020907286751
C            5.95104239620748       -1.95605772732997       -1.70889889064575
O            6.56124276206952       -2.41801186413794       -2.63606265515487
C            6.19188640422446       -2.24731627914097       -0.20717655463553
O            7.02477383158862       -2.97858592632980        0.25829985813860
O            5.31309727761040       -1.54404136207415        0.47671990097451
13
 energy: -42.780190758634 gnorm: 0.001316144030 xtb: 6.7.1 (edcfbbe)
O            1.14659663342503        0.00533760846485        0.24807052260589
C            2.33103421155967       -0.03699551642638        0.04722320788605
O            3.02169432166761       -1.11042549917785       -0.27549097650024
B            4.45126598228499       -0.77031527313770       -0.43882706898889
O            4.52014542667492        0.68010803953697       -0.16757316480705
C            3.32365997457421        1.14959729355509        0.11850918186204
O            3.06060477016549        2.29163872658079        0.38434298140449
O            4.94869851106194       -1.10607477119093       -1.78991362618277
C            5.95224969777346       -1.95424986559046       -1.70879228924546
O            6.56401354581778       -2.41252739241741       -2.63591113582559
C            6.19218100269873       -2.24734406218420       -0.20726225704098
O            7.02593263767738       -2.97700878367200        0.25750179423481
O            5.31186328461884       -1.54713050434078        0.47698283059772
13
 energy: -42.780191631151 gnorm: 0.000468023502 xtb: 6.7.1 (edcfbbe)
O            1.14612430924527        0.00710498600407        0.24622694332361
C            2.33061088092971       -0.03623774359675        0.04653161727454
O            3.02059249015146       -1.11061533814094       -0.27427608341856
B            4.45020610206591       -0.77163777459347       -0.43766019330051
O            4.52097952315469        0.67896317029440       -0.16571581646537
C            3.32444216414456        1.14919915908952        0.11851741178017
O            3.06145012117026        2.29175033061301        0.38301570156060
O            4.94700770022617       -1.10684220814181       -1.78902904624646
C            5.95166271486671       -1.95423378044520       -1.70877101936493
O            6.56376393888359       -2.41124628565451       -2.63663051011139
C            6.19303635593369       -2.24711399143199       -0.20743944565735
O            7.02900340785969       -2.97517753914573        0.25688792334189
O            5.31106029136833       -1.54930298485061        0.47720251728378
