      -----------------------------------------------------------      
     |                   =====================                   |     
     |                           x T B                           |     
     |                   =====================                   |     
     |                         S. Grimme                         |     
     |          Mulliken Center for Theoretical Chemistry        |     
     |                    University of Bonn                     |     
      -----------------------------------------------------------      

   * xtb version 6.7.1 (edcfbbe) compiled by 'conda@3ef47c1a292c' on 2024-11-25

   xtb is free software: you can redistribute it and/or modify it under
   the terms of the GNU Lesser General Public License as published by
   the Free Software Foundation, either version 3 of the License, or
   (at your option) any later version.
   
   xtb is distributed in the hope that it will be useful,
   but WITHOUT ANY WARRANTY; without even the implied warranty of
   MERCHANTABILITY or FITNESS FOR A PARTICULAR PURPOSE.  See the
   GNU Lesser General Public License for more details.
   
   Cite this work as:
   * C. Bannwarth, E. Caldeweyher, S. Ehlert, A. Hansen, P. Pracht,
     J. Seibert, S. Spicher, S. Grimme, WIREs Comput. Mol. Sci., 2020, 11,
     e01493. DOI: 10.1002/wcms.1493
   
   for GFN2-xTB:
   * C. Bannwarth, S. Ehlert and S. Grimme., J. Chem. Theory Comput., 2019,
     15, 1652-1671. DOI: 10.1021/acs.jctc.8b01176
   for GFN1-xTB:
   * S. Grimme, C. Bannwarth, P. Shushkov, J. Chem. Theory Comput., 2017,
     13, 1989-2009. DOI: 10.1021/acs.jctc.7b00118
   for GFN0-xTB:
   * P. Pracht, E. Caldeweyher, S. Ehlert, S. Grimme, ChemRxiv, 2019, preprint.
     DOI: 10.26434/chemrxiv.8326202.v1
   for GFN-FF:
   * S. Spicher and S. Grimme, Angew. Chem. Int. Ed., 2020, 59, 15665-15673.
     DOI: 10.1002/anie.202004239
   
   for ALPB and GBSA implicit solvation:
   * S. Ehlert, M. Stahn, S. Spicher, S. Grimme, J. Chem. Theory Comput.,
     2021, 17, 4250-4261. DOI: 10.1021/acs.jctc.1c00471
   
   for ddCOSMO and CPCM-X implicit solvation:
   * M. Stahn, S. Ehlert, S. Grimme, J. Phys. Chem. A,
     2023, XX, XXXX-XXXX. DOI: 10.1021/acs.jpca.3c04382
   
   for DFT-D4:
   * E. Caldeweyher, C. Bannwarth and S. Grimme, J. Chem. Phys., 2017,
     147, 034112. DOI: 10.1063/1.4993215
   * E. Caldeweyher, S. Ehlert, A. Hansen, H. Neugebauer, S. Spicher,
     C. Bannwarth and S. Grimme, J. Chem. Phys., 2019, 150, 154122.
     DOI: 10.1063/1.5090222
   * E. Caldeweyher, J.-M. Mewes, S. Ehlert and S. Grimme, Phys. Chem. Chem. Phys.
     2020, 22, 8499-8512. DOI: 10.1039/D0CP00502A
   
   for sTDA-xTB:
   * S. Grimme and C. Bannwarth, J. Chem. Phys., 2016, 145, 054103.
     DOI: 10.1063/1.4959605
   
   in the mass-spec context:
   * V. Asgeirsson, C. Bauer and S. Grimme, Chem. Sci., 2017, 8, 4879.
     DOI: 10.1039/c7sc00601b
   * J. Koopman and S. Grimme, ACS Omega 2019, 4, 12, 15120-15133.
     DOI: 10.1021/acsomega.9b02011
   
   for metadynamics refer to:
   * S. Grimme, J. Chem. Theory Comput., 2019, 155, 2847-2862
     DOI: 10.1021/acs.jctc.9b00143
   
   for SPH calculations refer to:
   * S. Spicher and S. Grimme, J. Chem. Theory Comput., 2021, 17, 1701-1714
     DOI: 10.1021/acs.jctc.0c01306
   
   for ONIOM refer to:
   * C. Plett, A. Katbashev, S. Ehlert, S. Grimme, M. Bursch,
     Phys. Chem. Chem. Phys., 2023, 25, 17860-17868. DOI: 10.1039/D3CP02178E
   
   for DIPRO refer to:
   * J. Kohn, N. Gildemeister, S. Grimme, D. Fazzi, A. Hansen,
     J. Chem. Phys., 2023, just accepted.
   
   for PTB refer to:
   * S. Grimme, M. Mueller, A. Hansen, J. Chem. Phys., 2023, 158, 124111.
     DOI: 10.1063/5.0137838
   
   with help from (in alphabetical order)
   P. Atkinson, C. Bannwarth, F. Bohle, G. Brandenburg, E. Caldeweyher
   M. Checinski, S. Dohm, S. Ehlert, S. Ehrlich, I. Gerasimov, C. Hölzer
   A. Katbashev, J. Kohn, J. Koopman, C. Lavigne, S. Lehtola, F. März, M. Müller,
   F. Musil, H. Neugebauer, J. Pisarek, C. Plett, P. Pracht, F. Pultar,
   J. Seibert, P. Shushkov, S. Spicher, M. Stahn, M. Steiner, T. Strunk,
   J. Stückrath, T. Rose, and J. Unsleber
   
 * started run on 2024/12/20 at 01:54:49.724     
   ID    Z sym.   atoms
    1    8 O      1, 3, 5, 7, 8, 10, 12, 13
    2    6 C      2, 6, 9, 11
    3    5 B      4

           -------------------------------------------------
          |                Calculation Setup                |
           -------------------------------------------------

          program call               : xtb A136.xyz --opt --namespace A136 --charge -1
          calculation namespace      : A136
          coordinate file            : A136.xyz
          omp threads                :                     8


           -------------------------------------------------
          |                 G F N 2 - x T B                 |
           -------------------------------------------------

        Reference                      10.1021/acs.jctc.8b01176
      * Hamiltonian:
        H0-scaling (s, p, d)           1.850000    2.230000    2.230000
        zeta-weighting                 0.500000
      * Dispersion:
        s8                             2.700000
        a1                             0.520000
        a2                             5.000000
        s9                             5.000000
      * Repulsion:
        kExp                           1.500000    1.000000
        rExp                           1.000000
      * Coulomb:
        alpha                          2.000000
        third order                    shell-resolved
        anisotropic                    true
        a3                             3.000000
        a5                             4.000000
        cn-shift                       1.200000
        cn-exp                         4.000000
        max-rad                        5.000000


          ...................................................
          :                      SETUP                      :
          :.................................................:
          :  # basis functions                  52          :
          :  # atomic orbitals                  52          :
          :  # shells                           26          :
          :  # electrons                        68          :
          :  max. iterations                   250          :
          :  Hamiltonian                  GFN2-xTB          :
          :  restarted?                      false          :
          :  GBSA solvation                  false          :
          :  PC potential                    false          :
          :  electronic temp.          300.0000000     K    :
          :  accuracy                    1.0000000          :
          :  -> integral cutoff          0.2500000E+02      :
          :  -> integral neglect         0.1000000E-07      :
          :  -> SCF convergence          0.1000000E-05 Eh   :
          :  -> wf. convergence          0.1000000E-03 e    :
          :  Broyden damping             0.4000000          :
          :  net charge                         -1          :
          :  unpaired electrons                  0          :
          ...................................................

 iter      E             dE          RMSdq      gap      omega  full diag
   1    -42.5667537 -0.425668E+02  0.871E+00    2.82       0.0  T
   2    -42.7951319 -0.228378E+00  0.443E+00    2.10       1.0  T
   3    -42.8117738 -0.166419E-01  0.293E+00    2.55       1.0  T
   4    -42.8468242 -0.350504E-01  0.559E-01    2.30       1.0  T
   5    -42.8496700 -0.284580E-02  0.224E-01    2.35       1.0  T
   6    -42.8496811 -0.110618E-04  0.118E-01    2.35       1.0  T
   7    -42.8497477 -0.666541E-04  0.175E-02    2.35       1.6  T
   8    -42.8497500 -0.227278E-05  0.723E-03    2.35       3.8  T
   9    -42.8497500  0.705418E-07  0.479E-03    2.35       5.8  T
  10    -42.8497501 -0.147527E-06  0.165E-03    2.35      16.8  T
  11    -42.8497501 -0.331146E-07  0.497E-04    2.35      55.8  T
  12    -42.8497501 -0.116300E-08  0.189E-04    2.35     146.5  T

   *** convergence criteria satisfied after 12 iterations ***

         #    Occupation            Energy/Eh            Energy/eV
      -------------------------------------------------------------
         1        2.0000           -0.6377797             -17.3549
       ...           ...                  ...                  ...
        28        2.0000           -0.3728605             -10.1461
        29        2.0000           -0.3680135             -10.0142
        30        2.0000           -0.3580479              -9.7430
        31        2.0000           -0.3518045              -9.5731
        32        2.0000           -0.3498076              -9.5187
        33        2.0000           -0.3193190              -8.6891
        34        2.0000           -0.3163698              -8.6089 (HOMO)
        35                         -0.2301228              -6.2620 (LUMO)
        36                         -0.2300673              -6.2605
        37                         -0.1241392              -3.3780
        38                         -0.1223261              -3.3287
        39                          0.0006398               0.0174
       ...                                ...                  ...
        52                          0.6323446              17.2070
      -------------------------------------------------------------
                  HL-Gap            0.0862470 Eh            2.3469 eV
             Fermi-level           -0.2732463 Eh           -7.4354 eV

 SCC (total)                   0 d,  0 h,  0 min,  0.010 sec
 SCC setup                      ...        0 min,  0.000 sec (  0.964%)
 Dispersion                     ...        0 min,  0.000 sec (  1.095%)
 classical contributions        ...        0 min,  0.000 sec (  0.313%)
 integral evaluation            ...        0 min,  0.001 sec (  7.720%)
 iterations                     ...        0 min,  0.007 sec ( 71.116%)
 molecular gradient             ...        0 min,  0.002 sec ( 17.705%)
 printout                       ...        0 min,  0.000 sec (  0.941%)

         :::::::::::::::::::::::::::::::::::::::::::::::::::::
         ::                     SUMMARY                     ::
         :::::::::::::::::::::::::::::::::::::::::::::::::::::
         :: total energy             -42.674664737217 Eh    ::
         :: gradient norm              0.309948047126 Eh/a0 ::
         :: HOMO-LUMO gap              2.346899841833 eV    ::
         ::.................................................::
         :: SCC energy               -42.849748457561 Eh    ::
         :: -> isotropic ES            0.276461515822 Eh    ::
         :: -> anisotropic ES         -0.003758296329 Eh    ::
         :: -> anisotropic XC         -0.008077016381 Eh    ::
         :: -> dispersion             -0.012016485166 Eh    ::
         :: repulsion energy           0.175083720344 Eh    ::
         :: add. restraining           0.000000000000 Eh    ::
         :: total charge              -1.000000000000 e     ::
         :::::::::::::::::::::::::::::::::::::::::::::::::::::

      ----------------------------------------------------------- 
     |                   =====================                   |
     |                        A N C O P T                        |
     |                   =====================                   |
     |               Approximate Normal Coordinate               |
     |                Rational Function Optimizer                |
      ----------------------------------------------------------- 
      ----------------------------------------------------------- 
     |                   =====================                   |
     |                        A N C O P T                        |
     |                   =====================                   |
     |               Approximate Normal Coordinate               |
     |                Rational Function Optimizer                |
      ----------------------------------------------------------- 

          ...................................................
          :                      SETUP                      :
          :.................................................:
          :   optimization level            normal          :
          :   max. optcycles                   200          :
          :   ANC micro-cycles                  20          :
          :   degrees of freedom                33          :
          :.................................................:
          :   RF solver                   davidson          :
          :   write xtbopt.log                true          :
          :   linear?                        false          :
          :   energy convergence         0.5000000E-05 Eh   :
          :   grad. convergence          0.1000000E-02 Eh/α :
          :   maxmium RF displ.          1.0000000          :
          :   Hlow (freq-cutoff)         0.1000000E-01      :
          :   Hmax (freq-cutoff)         5.0000000          :
          :   S6 in model hess.         20.0000000          :
          ...................................................

generating ANC from exact Hessian ...
Using Lindh-Hessian (1995)
 Shifting diagonal of input Hessian by    4.6637576425768365E-003
 Lowest  eigenvalues of input Hessian
    0.000000    0.000000    0.000000    0.000000    0.000000    0.000000
    0.010000    0.010037    0.012707    0.031408    0.049329    0.052059
    0.054874    0.067192    0.083257    0.093492    0.113662    0.119028
 Highest eigenvalues
    1.523017    1.532740    2.012379    2.013253    2.141752    2.142412


........................................................................
.............................. CYCLE    1 ..............................
........................................................................

 iter      E             dE          RMSdq      gap      omega  full diag
   1    -42.8497501 -0.428498E+02  0.198E-05    2.35       0.0  T
   2    -42.8497501 -0.163425E-11  0.121E-05    2.35    2297.1  T
   3    -42.8497501 -0.137135E-11  0.602E-06    2.35    4608.6  T
     SCC iter.                  ...        0 min,  0.002 sec
     gradient                   ...        0 min,  0.001 sec
 * total energy  :   -42.6746647 Eh     change       -0.2612879E-09 Eh
   gradient norm :     0.3099409 Eh/α   predicted     0.0000000E+00 (-100.00%)
   displ. norm   :     0.4185569 α      lambda       -0.9344586E-01
   maximum displ.:     0.1915298 α      in ANC's #20, #7, #18, ...

........................................................................
.............................. CYCLE    2 ..............................
........................................................................

 iter      E             dE          RMSdq      gap      omega  full diag
   1    -42.9717151 -0.429717E+02  0.675E-01    2.73       0.0  T
   2    -42.9729472 -0.123211E-02  0.410E-01    2.68       1.0  T
   3    -42.9732200 -0.272790E-03  0.239E-01    2.70       1.0  T
   4    -42.9733080 -0.880018E-04  0.309E-02    2.69       1.0  T
   5    -42.9733111 -0.302506E-05  0.187E-02    2.69       1.5  T
   6    -42.9733115 -0.402951E-06  0.819E-03    2.69       3.4  T
   7    -42.9733116 -0.153482E-06  0.207E-03    2.69      13.4  T
   8    -42.9733116 -0.145926E-07  0.625E-04    2.69      44.4  T
   9    -42.9733116 -0.322736E-09  0.168E-04    2.69     165.4  T
     SCC iter.                  ...        0 min,  0.004 sec
     gradient                   ...        0 min,  0.001 sec
 * total energy  :   -42.7431064 Eh     change       -0.6844167E-01 Eh
   gradient norm :     0.1413414 Eh/α   predicted    -0.5490830E-01 ( -19.77%)
   displ. norm   :     0.4694041 α      lambda       -0.4751038E-01
   maximum displ.:     0.2245603 α      in ANC's #7, #5, #20, ...

........................................................................
.............................. CYCLE    3 ..............................
........................................................................

 iter      E             dE          RMSdq      gap      omega  full diag
   1    -43.0454169 -0.430454E+02  0.884E-01    3.01       0.0  T
   2    -43.0498781 -0.446117E-02  0.506E-01    2.96       1.0  T
   3    -43.0502493 -0.371177E-03  0.292E-01    2.98       1.0  T
   4    -43.0502618 -0.125147E-04  0.670E-02    2.97       1.0  T
   5    -43.0502873 -0.255361E-04  0.194E-02    2.98       1.4  T
   6    -43.0502877 -0.381786E-06  0.101E-02    2.98       2.7  T
   7    -43.0502879 -0.189237E-06  0.213E-03    2.98      13.0  T
   8    -43.0502879 -0.103939E-07  0.671E-04    2.98      41.3  T
   9    -43.0502879 -0.477669E-09  0.302E-04    2.98      91.9  T
     SCC iter.                  ...        0 min,  0.004 sec
     gradient                   ...        0 min,  0.001 sec
 * total energy  :   -42.7651307 Eh     change       -0.2202425E-01 Eh
   gradient norm :     0.0944651 Eh/α   predicted    -0.2898944E-01 (  31.63%)
   displ. norm   :     0.4165510 α      lambda       -0.1512954E-01
   maximum displ.:     0.2427357 α      in ANC's #7, #4, #5, ...

........................................................................
.............................. CYCLE    4 ..............................
........................................................................

 iter      E             dE          RMSdq      gap      omega  full diag
   1    -43.0323537 -0.430324E+02  0.481E-01    2.90       0.0  T
   2    -43.0326927 -0.339034E-03  0.289E-01    2.92       1.0  T
   3    -43.0326913  0.143925E-05  0.105E-01    2.91       1.0  T
   4    -43.0327171 -0.258349E-04  0.219E-02    2.91       1.3  T
   5    -43.0327197 -0.255040E-05  0.113E-02    2.91       2.5  T
   6    -43.0327197 -0.753456E-07  0.341E-03    2.91       8.1  T
   7    -43.0327198 -0.375001E-07  0.118E-03    2.91      23.6  T
   8    -43.0327198 -0.923337E-08  0.295E-04    2.91      93.9  T
   9    -43.0327198 -0.631744E-10  0.158E-04    2.91     175.3  T
     SCC iter.                  ...        0 min,  0.004 sec
     gradient                   ...        0 min,  0.001 sec
 * total energy  :   -42.7739004 Eh     change       -0.8769766E-02 Eh
   gradient norm :     0.0332263 Eh/α   predicted    -0.8877384E-02 (   1.23%)
   displ. norm   :     0.3176897 α      lambda       -0.5315127E-02
   maximum displ.:     0.1955109 α      in ANC's #4, #2, #14, ...

........................................................................
.............................. CYCLE    5 ..............................
........................................................................

 iter      E             dE          RMSdq      gap      omega  full diag
   1    -43.0242170 -0.430242E+02  0.392E-01    2.86       0.0  T
   2    -43.0245563 -0.339356E-03  0.238E-01    2.85       1.0  T
   3    -43.0245622 -0.589264E-05  0.102E-01    2.85       1.0  T
   4    -43.0245768 -0.146022E-04  0.212E-02    2.85       1.3  T
   5    -43.0245812 -0.434933E-05  0.675E-03    2.85       4.1  T
   6    -43.0245812 -0.943438E-08  0.308E-03    2.85       9.0  T
   7    -43.0245812 -0.309221E-07  0.457E-04    2.85      60.7  T
   8    -43.0245812 -0.494992E-09  0.215E-04    2.85     129.2  T
     SCC iter.                  ...        0 min,  0.003 sec
     gradient                   ...        0 min,  0.002 sec
 * total energy  :   -42.7769040 Eh     change       -0.3003543E-02 Eh
   gradient norm :     0.0424738 Eh/α   predicted    -0.2925775E-02 (  -2.59%)
   displ. norm   :     0.2661141 α      lambda       -0.2710733E-02
   maximum displ.:     0.2273045 α      in ANC's #4, #5, #20, ...

........................................................................
.............................. CYCLE    6 ..............................
........................................................................

 iter      E             dE          RMSdq      gap      omega  full diag
   1    -43.0274891 -0.430275E+02  0.317E-01    2.86       0.0  T
   2    -43.0275527 -0.635906E-04  0.188E-01    2.86       1.0  T
   3    -43.0275493  0.340542E-05  0.467E-02    2.85       1.0  T
   4    -43.0275582 -0.886150E-05  0.992E-03    2.86       2.8  T
   5    -43.0275588 -0.595118E-06  0.481E-03    2.86       5.8  T
   6    -43.0275588 -0.206951E-07  0.189E-03    2.86      14.7  T
   7    -43.0275588 -0.463426E-08  0.657E-04    2.86      42.2  T
   8    -43.0275588 -0.290706E-08  0.107E-04    2.86     258.3  T
     SCC iter.                  ...        0 min,  0.004 sec
     gradient                   ...        0 min,  0.001 sec
 * total energy  :   -42.7784413 Eh     change       -0.1537292E-02 Eh
   gradient norm :     0.0313963 Eh/α   predicted    -0.1451363E-02 (  -5.59%)
   displ. norm   :     0.1975059 α      lambda       -0.1861050E-02
   maximum displ.:     0.1127137 α      in ANC's #4, #2, #7, ...

........................................................................
.............................. CYCLE    7 ..............................
........................................................................

 iter      E             dE          RMSdq      gap      omega  full diag
   1    -43.0372745 -0.430373E+02  0.243E-01    2.88       0.0  T
   2    -43.0373410 -0.665526E-04  0.139E-01    2.89       1.0  T
   3    -43.0373412 -0.184630E-06  0.465E-02    2.89       1.0  T
   4    -43.0373432 -0.201894E-05  0.903E-03    2.89       3.1  T
   5    -43.0373439 -0.657059E-06  0.386E-03    2.89       7.2  T
   6    -43.0373439 -0.838497E-08  0.905E-04    2.89      30.7  T
   7    -43.0373439 -0.310668E-08  0.315E-04    2.89      88.1  T
     SCC iter.                  ...        0 min,  0.003 sec
     gradient                   ...        0 min,  0.001 sec
 * total energy  :   -42.7794602 Eh     change       -0.1018924E-02 Eh
   gradient norm :     0.0224121 Eh/α   predicted    -0.9668227E-03 (  -5.11%)
   displ. norm   :     0.1512581 α      lambda       -0.8015175E-03
   maximum displ.:     0.0979123 α      in ANC's #4, #1, #14, ...

........................................................................
.............................. CYCLE    8 ..............................
........................................................................

 iter      E             dE          RMSdq      gap      omega  full diag
   1    -43.0394808 -0.430395E+02  0.178E-01    2.88       0.0  T
   2    -43.0395021 -0.213468E-04  0.106E-01    2.88       1.0  T
   3    -43.0395007  0.146565E-05  0.305E-02    2.88       1.0  T
   4    -43.0395045 -0.383480E-05  0.577E-03    2.88       4.8  T
   5    -43.0395046 -0.115692E-06  0.333E-03    2.88       8.3  T
   6    -43.0395046 -0.678886E-08  0.748E-04    2.88      37.1  T
   7    -43.0395046 -0.130423E-08  0.244E-04    2.88     113.9  T
     SCC iter.                  ...        0 min,  0.023 sec
     gradient                   ...        0 min,  0.012 sec
 * total energy  :   -42.7799315 Eh     change       -0.4712816E-03 Eh
   gradient norm :     0.0141878 Eh/α   predicted    -0.4099273E-03 ( -13.02%)
   displ. norm   :     0.1512295 α      lambda       -0.5424452E-03
   maximum displ.:     0.0831137 α      in ANC's #4, #1, #7, ...

........................................................................
.............................. CYCLE    9 ..............................
........................................................................

 iter      E             dE          RMSdq      gap      omega  full diag
   1    -43.0394526 -0.430395E+02  0.178E-01    2.85       0.0  T
   2    -43.0394969 -0.443073E-04  0.107E-01    2.85       1.0  T
   3    -43.0394970 -0.122251E-06  0.463E-02    2.85       1.0  T
   4    -43.0395028 -0.585066E-05  0.733E-03    2.85       3.8  T
   5    -43.0395030 -0.134067E-06  0.350E-03    2.85       7.9  T
   6    -43.0395030 -0.130505E-07  0.149E-03    2.85      18.7  T
   7    -43.0395030 -0.313999E-08  0.573E-04    2.85      48.4  T
   8    -43.0395030 -0.114969E-08  0.828E-05    2.85     334.9  T
     SCC iter.                  ...        0 min,  0.007 sec
     gradient                   ...        0 min,  0.003 sec
 * total energy  :   -42.7799188 Eh     change        0.1269224E-04 Eh
   gradient norm :     0.0176399 Eh/α   predicted    -0.2774258E-03 (*******%)
   displ. norm   :     0.0834572 α      lambda       -0.4698687E-03
   maximum displ.:     0.0742400 α      in ANC's #1, #6, #4, ...

........................................................................
.............................. CYCLE   10 ..............................
........................................................................

 iter      E             dE          RMSdq      gap      omega  full diag
   1    -43.0402700 -0.430403E+02  0.100E-01    2.89       0.0  T
   2    -43.0402885 -0.184952E-04  0.608E-02    2.89       1.0  T
   3    -43.0402890 -0.525767E-06  0.286E-02    2.89       1.0  T
   4    -43.0402911 -0.204474E-05  0.467E-03    2.89       5.9  T
   5    -43.0402911 -0.398171E-07  0.215E-03    2.89      12.9  T
   6    -43.0402911 -0.473973E-08  0.985E-04    2.89      28.2  T
   7    -43.0402911 -0.102900E-08  0.382E-04    2.89      72.6  T
     SCC iter.                  ...        0 min,  0.003 sec
     gradient                   ...        0 min,  0.002 sec
 * total energy  :   -42.7801243 Eh     change       -0.2055760E-03 Eh
   gradient norm :     0.0063821 Eh/α   predicted    -0.2365717E-03 (  15.08%)
   displ. norm   :     0.0411122 α      lambda       -0.7479484E-04
   maximum displ.:     0.0230898 α      in ANC's #4, #3, #9, ...

........................................................................
.............................. CYCLE   11 ..............................
........................................................................

 iter      E             dE          RMSdq      gap      omega  full diag
   1    -43.0408459 -0.430408E+02  0.612E-02    2.88       0.0  T
   2    -43.0408548 -0.898699E-05  0.358E-02    2.88       1.0  T
   3    -43.0408550 -0.114270E-06  0.163E-02    2.88       1.7  T
   4    -43.0408551 -0.129076E-06  0.327E-03    2.88       8.5  T
   5    -43.0408552 -0.105474E-06  0.916E-04    2.88      30.3  T
   6    -43.0408552 -0.505324E-09  0.342E-04    2.88      81.2  T
     SCC iter.                  ...        0 min,  0.003 sec
     gradient                   ...        0 min,  0.001 sec
 * total energy  :   -42.7801265 Eh     change       -0.2188183E-05 Eh
   gradient norm :     0.0063872 Eh/α   predicted    -0.3746076E-04 (1611.96%)
   displ. norm   :     0.0287913 α      lambda       -0.5725822E-04
   maximum displ.:     0.0193375 α      in ANC's #2, #3, #6, ...

........................................................................
.............................. CYCLE   12 ..............................
........................................................................

 iter      E             dE          RMSdq      gap      omega  full diag
   1    -43.0404299 -0.430404E+02  0.395E-02    2.89       0.0  T
   2    -43.0404349 -0.502655E-05  0.232E-02    2.89       1.2  T
   3    -43.0404351 -0.220634E-06  0.120E-02    2.89       2.3  T
   4    -43.0404352 -0.753614E-07  0.240E-03    2.89      11.6  T
   5    -43.0404353 -0.446968E-07  0.560E-04    2.89      49.5  T
   6    -43.0404353 -0.216367E-09  0.278E-04    2.89      99.7  T
     SCC iter.                  ...        0 min,  0.003 sec
     gradient                   ...        0 min,  0.001 sec
 * total energy  :   -42.7801533 Eh     change       -0.2680664E-04 Eh
   gradient norm :     0.0037806 Eh/α   predicted    -0.2865376E-04 (   6.89%)
   displ. norm   :     0.0225376 α      lambda       -0.2207536E-04
   maximum displ.:     0.0149053 α      in ANC's #3, #1, #4, ...

........................................................................
.............................. CYCLE   13 ..............................
........................................................................

 iter      E             dE          RMSdq      gap      omega  full diag
   1    -43.0404529 -0.430405E+02  0.214E-02    2.88       0.0  T
   2    -43.0404546 -0.171426E-05  0.126E-02    2.89       2.2  T
   3    -43.0404546 -0.726660E-07  0.672E-03    2.89       4.1  T
   4    -43.0404547 -0.221615E-07  0.163E-03    2.89      17.0  T
   5    -43.0404547 -0.123878E-07  0.612E-04    2.89      45.3  T
   6    -43.0404547 -0.301647E-09  0.205E-04    2.89     135.2  T
     SCC iter.                  ...        0 min,  0.004 sec
     gradient                   ...        0 min,  0.002 sec
 * total energy  :   -42.7801576 Eh     change       -0.4288404E-05 Eh
   gradient norm :     0.0034854 Eh/α   predicted    -0.1104386E-04 ( 157.53%)
   displ. norm   :     0.0203955 α      lambda       -0.1455182E-04
   maximum displ.:     0.0173548 α      in ANC's #2, #1, #3, ...

........................................................................
.............................. CYCLE   14 ..............................
........................................................................

 iter      E             dE          RMSdq      gap      omega  full diag
   1    -43.0402804 -0.430403E+02  0.167E-02    2.89       0.0  T
   2    -43.0402808 -0.354890E-06  0.985E-03    2.89       2.8  T
   3    -43.0402808  0.758519E-09  0.388E-03    2.89       7.1  T
   4    -43.0402808 -0.339931E-07  0.683E-04    2.89      40.6  T
   5    -43.0402808 -0.211049E-08  0.346E-04    2.89      80.1  T
     SCC iter.                  ...        0 min,  0.002 sec
     gradient                   ...        0 min,  0.002 sec
 * total energy  :   -42.7801676 Eh     change       -0.9997591E-05 Eh
   gradient norm :     0.0016074 Eh/α   predicted    -0.7280353E-05 ( -27.18%)
   displ. norm   :     0.0505804 α      lambda       -0.1355610E-04
   maximum displ.:     0.0357255 α      in ANC's #2, #1, #4, ...

........................................................................
.............................. CYCLE   15 ..............................
........................................................................

 iter      E             dE          RMSdq      gap      omega  full diag
   1    -43.0408505 -0.430409E+02  0.384E-02    2.89       0.0  T
   2    -43.0408515 -0.100340E-05  0.226E-02    2.89       1.2  T
   3    -43.0408514  0.118536E-06  0.675E-03    2.89       4.1  T
   4    -43.0408516 -0.255028E-06  0.154E-03    2.89      18.1  T
   5    -43.0408516 -0.100818E-07  0.825E-04    2.89      33.6  T
   6    -43.0408516 -0.416733E-09  0.280E-04    2.89      99.1  T
     SCC iter.                  ...        0 min,  0.003 sec
     gradient                   ...        0 min,  0.002 sec
 * total energy  :   -42.7801765 Eh     change       -0.8915108E-05 Eh
   gradient norm :     0.0030348 Eh/α   predicted    -0.6787003E-05 ( -23.87%)
   displ. norm   :     0.0632106 α      lambda       -0.1688106E-04
   maximum displ.:     0.0523051 α      in ANC's #2, #1, #3, ...

........................................................................
.............................. CYCLE   16 ..............................
........................................................................

 iter      E             dE          RMSdq      gap      omega  full diag
   1    -43.0400440 -0.430400E+02  0.446E-02    2.89       0.0  T
   2    -43.0400452 -0.121621E-05  0.264E-02    2.89       1.1  T
   3    -43.0400450  0.170446E-06  0.873E-03    2.89       3.2  T
   4    -43.0400455 -0.414275E-06  0.169E-03    2.89      16.4  T
   5    -43.0400455 -0.502539E-08  0.107E-03    2.89      25.9  T
   6    -43.0400455 -0.644079E-09  0.332E-04    2.89      83.4  T
   7    -43.0400455 -0.470642E-09  0.888E-05    2.89     312.4  T
     SCC iter.                  ...        0 min,  0.003 sec
     gradient                   ...        0 min,  0.001 sec
 * total energy  :   -42.7801817 Eh     change       -0.5181500E-05 Eh
   gradient norm :     0.0033419 Eh/α   predicted    -0.8473597E-05 (  63.54%)
   displ. norm   :     0.0068074 α      lambda       -0.1095123E-04
   maximum displ.:     0.0034231 α      in ANC's #1, #8, #18, ...

........................................................................
.............................. CYCLE   17 ..............................
........................................................................

 iter      E             dE          RMSdq      gap      omega  full diag
   1    -43.0403005 -0.430403E+02  0.102E-02    2.89       0.0  T
   2    -43.0403010 -0.474584E-06  0.653E-03    2.89       4.2  T
   3    -43.0403010 -0.595475E-07  0.376E-03    2.89       7.4  T
   4    -43.0403010 -0.583837E-08  0.659E-04    2.89      42.1  T
   5    -43.0403010 -0.920991E-09  0.317E-04    2.89      87.6  T
     SCC iter.                  ...        0 min,  0.002 sec
     gradient                   ...        0 min,  0.002 sec
 * total energy  :   -42.7801887 Eh     change       -0.6987027E-05 Eh
   gradient norm :     0.0015484 Eh/α   predicted    -0.5476496E-05 ( -21.62%)
   displ. norm   :     0.0225856 α      lambda       -0.3970235E-05
   maximum displ.:     0.0123501 α      in ANC's #1, #2, #3, ...

........................................................................
.............................. CYCLE   18 ..............................
........................................................................

 iter      E             dE          RMSdq      gap      omega  full diag
   1    -43.0406668 -0.430407E+02  0.165E-02    2.89       0.0  T
   2    -43.0406671 -0.352304E-06  0.975E-03    2.89       2.8  T
   3    -43.0406671 -0.895754E-08  0.419E-03    2.89       6.6  T
   4    -43.0406672 -0.414658E-07  0.851E-04    2.89      32.6  T
   5    -43.0406672 -0.143572E-08  0.515E-04    2.89      53.9  T
     SCC iter.                  ...        0 min,  0.002 sec
     gradient                   ...        0 min,  0.002 sec
 * total energy  :   -42.7801908 Eh     change       -0.2047692E-05 Eh
   gradient norm :     0.0013155 Eh/α   predicted    -0.1985572E-05 (  -3.03%)
   displ. norm   :     0.0133407 α      lambda       -0.1287067E-05
   maximum displ.:     0.0110823 α      in ANC's #2, #1, #3, ...

........................................................................
.............................. CYCLE   19 ..............................
........................................................................

 iter      E             dE          RMSdq      gap      omega  full diag
   1    -43.0404240 -0.430404E+02  0.108E-02    2.89       0.0  T
   2    -43.0404241 -0.505900E-07  0.632E-03    2.89       4.4  T
   3    -43.0404241  0.262297E-09  0.123E-03    2.89      22.6  T
   4    -43.0404241 -0.548320E-08  0.368E-04    2.89      75.4  T
   5    -43.0404241 -0.462840E-09  0.213E-04    2.89     130.0  T
     SCC iter.                  ...        0 min,  0.002 sec
     gradient                   ...        0 min,  0.001 sec
 * total energy  :   -42.7801916 Eh     change       -0.8725174E-06 Eh
   gradient norm :     0.0004680 Eh/α   predicted    -0.6434651E-06 ( -26.25%)
   displ. norm   :     0.0033839 α      lambda       -0.4757789E-06
   maximum displ.:     0.0022993 α      in ANC's #1, #7, #18, ...

   *** GEOMETRY OPTIMIZATION CONVERGED AFTER 19 ITERATIONS ***

------------------------------------------------------------------------
 total energy gain   :        -0.1055269 Eh      -66.2191 kcal/mol
 total RMSD          :         0.5397544 a0        0.2856 Å
 total power (kW/mol):       -14.5821485 (step)-1966.5082 (real)
------------------------------------------------------------------------

 ANCopt (total)                0 d,  0 h,  0 min,  0.141 sec
 optimizer setup                ...        0 min,  0.000 sec (  0.049%)
 model hessian                  ...        0 min,  0.001 sec (  0.645%)
 ANC generation                 ...        0 min,  0.000 sec (  0.148%)
 coordinate transformation      ...        0 min,  0.000 sec (  0.072%)
 single point calculation       ...        0 min,  0.136 sec ( 96.623%)
 optimization log               ...        0 min,  0.001 sec (  0.646%)
 hessian update                 ...        0 min,  0.000 sec (  0.193%)
 rational function              ...        0 min,  0.002 sec (  1.145%)

================
 final structure:
================
13
 xtb: 6.7.1 (edcfbbe)
O            1.14612430924527        0.00710498600407        0.24622694332361
C            2.33061088092971       -0.03623774359675        0.04653161727454
O            3.02059249015146       -1.11061533814094       -0.27427608341856
B            4.45020610206591       -0.77163777459347       -0.43766019330051
O            4.52097952315469        0.67896317029440       -0.16571581646537
C            3.32444216414456        1.14919915908952        0.11851741178017
O            3.06145012117026        2.29175033061301        0.38301570156060
O            4.94700770022617       -1.10684220814181       -1.78902904624646
C            5.95166271486671       -1.95423378044520       -1.70877101936493
O            6.56376393888359       -2.41124628565451       -2.63663051011139
C            6.19303635593369       -2.24711399143199       -0.20743944565735
O            7.02900340785969       -2.97517753914573        0.25688792334189
O            5.31106029136833       -1.54930298485061        0.47720251728378

 Bond Distances (Angstroems)
 ---------------------------
O1-C2=1.2020         C2-O1=1.2020         C2-O3=1.3165         C2-C6=1.5486         O3-C2=1.3165         O3-B4=1.4783         
B4-O3=1.4783         B4-O5=1.4776         B4-O8=1.4783         B4-O13=1.4774        O5-B4=1.4776         O5-C6=1.3167         
C6-C2=1.5486         C6-O5=1.3167         C6-O7=1.2019         O7-C6=1.2019         O8-B4=1.4783         O8-C9=1.3168         
C9-O8=1.3168         C9-O10=1.2019        C9-C11=1.5486        O10-C9=1.2019        C11-C9=1.5486        C11-O12=1.2019       
C11-O13=1.3166       O12-C11=1.2019       O13-B4=1.4774        O13-C11=1.3166       
 C  C  Rav=1.5486 sigma=0.0000  Rmin=1.5486  Rmax=1.5486     2
 O  B  Rav=1.4779 sigma=0.0004  Rmin=1.4774  Rmax=1.4783     4
 O  C  Rav=1.2593 sigma=0.0574  Rmin=1.2019  Rmax=1.3168     8

 selected bond angles (degree)
 --------------------
O3-C2-O1=125.90                C6-C2-O1=126.66                C6-C2-O3=107.44                B4-O3-C2=110.28                
O5-B4-O3=104.54                O8-B4-O3=111.96                O8-B4-O5=112.01                O13-B4-O3=111.98               
O13-B4-O5=112.02               O13-B4-O8=104.53               C6-O5-B4=110.29                O5-C6-C2=107.44                
O7-C6-C2=126.69                O7-C6-O5=125.86                C9-O8-B4=110.28                O10-C9-O8=125.89               
C11-C9-O8=107.44               C11-C9-O10=126.67              

 selected dihedral angles (degree)
 ---------------------------------
B4-O3-C2-O1=180.05            B4-O3-C2-C6=  0.00            O5-B4-O3-C2=  0.00            O8-B4-O3-C2=238.52            
O13-B4-O3-C2=121.48           C6-O5-B4-O3=  0.00            C6-O5-B4-O8=121.45            C6-O5-B4-O13=238.54           
O5-C6-C2-O1=179.95            O5-C6-C2-O3=  0.00            O7-C6-C2-O1=359.89            O7-C6-C2-O3=179.94            
C2-C6-O5-B4=  0.00            O7-C6-O5-B4=180.05            C9-O8-B4-O3=238.55            C9-O8-B4-O5=121.48            
C9-O8-B4-O13=  0.00           O10-C9-O8-B4=180.02           C11-C9-O8-B4=  0.00           
           -------------------------------------------------
          |                Final Singlepoint                |
           -------------------------------------------------

          ...................................................
          :                      SETUP                      :
          :.................................................:
          :  # basis functions                  52          :
          :  # atomic orbitals                  52          :
          :  # shells                           26          :
          :  # electrons                        68          :
          :  max. iterations                   250          :
          :  Hamiltonian                  GFN2-xTB          :
          :  restarted?                      false          :
          :  GBSA solvation                  false          :
          :  PC potential                    false          :
          :  electronic temp.          300.0000000     K    :
          :  accuracy                    1.0000000          :
          :  -> integral cutoff          0.2500000E+02      :
          :  -> integral neglect         0.1000000E-07      :
          :  -> SCF convergence          0.1000000E-05 Eh   :
          :  -> wf. convergence          0.1000000E-03 e    :
          :  Broyden damping             0.4000000          :
          :  net charge                         -1          :
          :  unpaired electrons                  0          :
          ...................................................

 iter      E             dE          RMSdq      gap      omega  full diag
   1    -43.0404241 -0.430404E+02  0.709E-05    2.89       0.0  T
   2    -43.0404241 -0.584777E-11  0.427E-05    2.89     650.0  T
   3    -43.0404241 -0.319744E-12  0.217E-05    2.89    1280.8  T

   *** convergence criteria satisfied after 3 iterations ***

         #    Occupation            Energy/Eh            Energy/eV
      -------------------------------------------------------------
         1        2.0000           -0.6420355             -17.4707
       ...           ...                  ...                  ...
        28        2.0000           -0.3765414             -10.2462
        29        2.0000           -0.3725026             -10.1363
        30        2.0000           -0.3604959              -9.8096
        31        2.0000           -0.3492332              -9.5031
        32        2.0000           -0.3492140              -9.5026
        33        2.0000           -0.2926879              -7.9644
        34        2.0000           -0.2887159              -7.8564 (HOMO)
        35                         -0.1823851              -4.9630 (LUMO)
        36                         -0.1823652              -4.9624
        37                         -0.0728654              -1.9828
        38                         -0.0685144              -1.8644
        39                          0.1882174               5.1217
       ...                                ...                  ...
        52                          0.8531358              23.2150
      -------------------------------------------------------------
                  HL-Gap            0.1063308 Eh            2.8934 eV
             Fermi-level           -0.2355505 Eh           -6.4097 eV

 SCC (total)                   0 d,  0 h,  0 min,  0.004 sec
 SCC setup                      ...        0 min,  0.000 sec (  1.316%)
 Dispersion                     ...        0 min,  0.000 sec (  1.017%)
 classical contributions        ...        0 min,  0.000 sec (  0.202%)
 integral evaluation            ...        0 min,  0.001 sec ( 18.445%)
 iterations                     ...        0 min,  0.001 sec ( 36.683%)
 molecular gradient             ...        0 min,  0.001 sec ( 39.925%)
 printout                       ...        0 min,  0.000 sec (  2.035%)

         :::::::::::::::::::::::::::::::::::::::::::::::::::::
         ::                     SUMMARY                     ::
         :::::::::::::::::::::::::::::::::::::::::::::::::::::
         :: total energy             -42.780191631192 Eh    ::
         :: gradient norm              0.000468702363 Eh/a0 ::
         :: HOMO-LUMO gap              2.893409003669 eV    ::
         ::.................................................::
         :: SCC energy               -43.040418866077 Eh    ::
         :: -> isotropic ES            0.272927785982 Eh    ::
         :: -> anisotropic ES         -0.006572451134 Eh    ::
         :: -> anisotropic XC         -0.013453845530 Eh    ::
         :: -> dispersion             -0.012267845610 Eh    ::
         :: repulsion energy           0.260227234885 Eh    ::
         :: add. restraining           0.000000000000 Eh    ::
         :: total charge              -1.000000000000 e     ::
         :::::::::::::::::::::::::::::::::::::::::::::::::::::

           -------------------------------------------------
          |                Property Printout                |
           -------------------------------------------------

    * Orbital Energies and Occupations

         #    Occupation            Energy/Eh            Energy/eV
      -------------------------------------------------------------
         1        2.0000           -0.6420355             -17.4707
       ...           ...                  ...                  ...
        22        2.0000           -0.4478736             -12.1873
        23        2.0000           -0.4145703             -11.2810
        24        2.0000           -0.4050590             -11.0222
        25        2.0000           -0.4050133             -11.0210
        26        2.0000           -0.3900856             -10.6148
        27        2.0000           -0.3765497             -10.2464
        28        2.0000           -0.3765414             -10.2462
        29        2.0000           -0.3725026             -10.1363
        30        2.0000           -0.3604959              -9.8096
        31        2.0000           -0.3492332              -9.5031
        32        2.0000           -0.3492140              -9.5026
        33        2.0000           -0.2926879              -7.9644
        34        2.0000           -0.2887159              -7.8564 (HOMO)
        35                         -0.1823851              -4.9630 (LUMO)
        36                         -0.1823652              -4.9624
        37                         -0.0728654              -1.9828
        38                         -0.0685144              -1.8644
        39                          0.1882174               5.1217
        40                          0.1882215               5.1218
        41                          0.2094148               5.6985
        42                          0.2094868               5.7004
        43                          0.2226936               6.0598
        44                          0.2805084               7.6330
        45                          0.3933127              10.7026
       ...                                ...                  ...
        52                          0.8531358              23.2150
      -------------------------------------------------------------
                  HL-Gap            0.1063308 Eh            2.8934 eV
             Fermi-level           -0.2355505 Eh           -6.4097 eV

     #   Z          covCN         q      C6AA      α(0)
     1   8 O        0.856    -0.367    21.040     6.150
     2   6 C        2.758     0.327    21.444     7.583
     3   8 O        1.636    -0.358    20.059     6.046
     4   5 B        3.404     0.592    13.590     6.144
     5   8 O        1.636    -0.358    20.057     6.045
     6   6 C        2.758     0.327    21.444     7.583
     7   8 O        0.856    -0.367    21.037     6.149
     8   8 O        1.636    -0.358    20.061     6.046
     9   6 C        2.758     0.327    21.444     7.583
    10   8 O        0.856    -0.367    21.037     6.149
    11   6 C        2.758     0.327    21.444     7.583
    12   8 O        0.856    -0.367    21.036     6.149
    13   8 O        1.636    -0.358    20.057     6.045

 Mol. C6AA /au·bohr⁶  :       3391.439070
 Mol. C8AA /au·bohr⁸  :      80975.231731
 Mol. α(0) /au        :         85.256417


Wiberg/Mayer (AO) data.
largest (>0.10) Wiberg bond orders for each atom

 ---------------------------------------------------------------------------
     #   Z sym  total        # sym  WBO       # sym  WBO       # sym  WBO
 ---------------------------------------------------------------------------
     1   8 O    2.059 --     2 C    1.760     3 O    0.183
     2   6 C    3.915 --     1 O    1.760     3 O    1.192     6 C    0.866
     3   8 O    2.296 --     2 C    1.192     4 B    0.815     1 O    0.183
     4   5 B    3.339 --    13 O    0.816     5 O    0.816     8 O    0.815
                             3 O    0.815
     5   8 O    2.296 --     6 C    1.192     4 B    0.816     7 O    0.183
     6   6 C    3.915 --     7 O    1.760     5 O    1.192     2 C    0.866
     7   8 O    2.059 --     6 C    1.760     5 O    0.183
     8   8 O    2.296 --     9 C    1.192     4 B    0.815    10 O    0.183
     9   6 C    3.915 --    10 O    1.760     8 O    1.192    11 C    0.866
    10   8 O    2.059 --     9 C    1.760     8 O    0.183
    11   6 C    3.915 --    12 O    1.760    13 O    1.192     9 C    0.866
    12   8 O    2.059 --    11 C    1.760    13 O    0.183
    13   8 O    2.296 --    11 C    1.192     4 B    0.816    12 O    0.183
 ---------------------------------------------------------------------------

Topologies differ in total number of bonds
Writing topology from bond orders to xtbtopo.mol

molecular dipole:
                 x           y           z       tot (Debye)
 q only:       -8.408       1.458       0.828
   full:       -8.408       1.458       0.828      21.793
molecular quadrupole (traceless):
                xx          xy          yy          xz          yz          zz
 q only:      -78.166      36.158      31.845      17.401      -7.507      46.321
  q+dip:      -81.466      42.761      31.206      19.986      -9.622      50.260
   full:      -81.427      42.683      31.213      19.956      -9.597      50.214

           -------------------------------------------------
          |                Geometry Summary                 |
           -------------------------------------------------

      molecular mass/u    :      186.8492110
   center of mass at/Å    :        4.4499948      -0.7719496      -0.4377825
  moments of inertia/u·Å² :        0.2587411E+03   0.1030755E+04   0.1030769E+04
rotational constants/cm⁻¹ :        0.6515250E-01   0.1635465E-01   0.1635443E-01

 * 12 selected distances

     #   Z          #   Z                                           value/Å
     1   8 O        2   6 C                                       1.2019840
     2   6 C        3   8 O                                       1.3165408
     3   8 O        4   5 B                                       1.4783084 (max)
     4   5 B        5   8 O                                       1.4775676
     5   8 O        6   6 C                                       1.3166672
     6   6 C        7   8 O                                       1.2018933
     4   5 B        8   8 O                                       1.4783004
     8   8 O        9   6 C                                       1.3167558
     9   6 C       10   8 O                                       1.2018535 (min)
    11   6 C       12   8 O                                       1.2018809
     4   5 B       13   8 O                                       1.4774327
    11   6 C       13   8 O                                       1.3166461

 * 2 distinct bonds (by element types)

   Z      Z             #   av. dist./Å        max./Å        min./Å
   5 B    8 O           4     1.4779023     1.4783084     1.4774327
   6 C    8 O           8     1.2592777     1.3167558     1.2018535


optimized geometry written to: xtbopt.xyz


           -------------------------------------------------
          | TOTAL ENERGY              -42.780191631192 Eh   |
          | GRADIENT NORM               0.000468702363 Eh/α |
          | HOMO-LUMO GAP               2.893409003669 eV   |
           -------------------------------------------------

------------------------------------------------------------------------
 * finished run on 2024/12/20 at 01:54:49.895     
------------------------------------------------------------------------
 total:
 * wall-time:     0 d,  0 h,  0 min,  0.171 sec
 *  cpu-time:     0 d,  0 h,  0 min,  1.300 sec
 * ratio c/w:     7.621 speedup
 SCF:
 * wall-time:     0 d,  0 h,  0 min,  0.011 sec
 *  cpu-time:     0 d,  0 h,  0 min,  0.083 sec
 * ratio c/w:     7.869 speedup
 ANC optimizer:
 * wall-time:     0 d,  0 h,  0 min,  0.145 sec
 *  cpu-time:     0 d,  0 h,  0 min,  1.111 sec
 * ratio c/w:     7.652 speedup

