13
 energy: -42.780191631192 gnorm: 0.000468702363 xtb: 6.7.1 (edcfbbe)
O            1.14612430924527        0.00710498600407        0.24622694332361
C            2.33061088092971       -0.03623774359675        0.04653161727454
O            3.02059249015146       -1.11061533814094       -0.27427608341856
B            4.45020610206591       -0.77163777459347       -0.43766019330051
O            4.52097952315469        0.67896317029440       -0.16571581646537
C            3.32444216414456        1.14919915908952        0.11851741178017
O            3.06145012117026        2.29175033061301        0.38301570156060
O            4.94700770022617       -1.10684220814181       -1.78902904624646
C            5.95166271486671       -1.95423378044520       -1.70877101936493
O            6.56376393888359       -2.41124628565451       -2.63663051011139
C            6.19303635593369       -2.24711399143199       -0.20743944565735
O            7.02900340785969       -2.97517753914573        0.25688792334189
O            5.31106029136833       -1.54930298485061        0.47720251728378
