7
 energy: -19.628471856338 gnorm: 0.042664284283 xtb: 6.7.1 (edcfbbe)
S            1.10329000000000       -0.05634000000000        0.04181000000000
N            0.54780000000000        0.14597000000000       -1.54270000000000
O            0.52005000000000       -1.33612000000000        0.40859000000000
O            0.51148000000000        1.11344000000000        0.67402000000000
O            2.54556000000000       -0.01813000000000       -0.13399000000000
H           -0.46752000000000        0.14356000000000       -1.49713000000000
H            0.92515000000000        1.03035000000000       -1.87205000000000
7
 energy: -19.631678158921 gnorm: 0.018530071492 xtb: 6.7.1 (edcfbbe)
S            1.09813912522680       -0.05287880708065        0.03107898020394
N            0.54422972077781        0.13846918388046       -1.57408060680337
O            0.52932891142965       -1.33123454785334        0.42586342047696
O            0.52617736149730        1.10641963288340        0.71178392976221
O            2.54436482112483       -0.02019056916523       -0.11399369061041
H           -0.46156963344296        0.15580720333940       -1.51719654315220
H            0.90513969338658        1.02633790399596       -1.88490548987714
7
 energy: -19.632565790010 gnorm: 0.007515014359 xtb: 6.7.1 (edcfbbe)
S            1.09518061482136       -0.05243119328678        0.02120763050473
N            0.54297997628464        0.12839610079595       -1.60289524004559
O            0.53724813839180       -1.32820207049485        0.44140619491992
O            0.53508575599064        1.10070610374493        0.73086201012861
O            2.54461754022167       -0.02234374595617       -0.09656035256641
H           -0.45979392916507        0.16804591105625       -1.52624409362237
H            0.89049190345496        1.02855889414066       -1.88922614931888
7
 energy: -19.632666106015 gnorm: 0.005625850364 xtb: 6.7.1 (edcfbbe)
S            1.09545435063278       -0.05383901375163        0.01881856952870
N            0.54379263120972        0.12359897844760       -1.61140541620315
O            0.53859753398733       -1.32813659278720        0.44458169607547
O            0.53425461538701        1.10013183010012        0.72602053496209
O            2.54524550820032       -0.02288313218395       -0.09328799125541
H           -0.45919698330537        0.17260448301699       -1.52214747797053
H            0.88766234388822        1.03125344715808       -1.88402991513717
7
 energy: -19.632751726655 gnorm: 0.003818377525 xtb: 6.7.1 (edcfbbe)
S            1.09673752042897       -0.05693651580584        0.01605596588535
N            0.54527865385842        0.11690142168647       -1.62210468703875
O            0.53941944245670       -1.32873824288605        0.44711962649001
O            0.53008943783543        1.10063632955420        0.71093077077118
O            2.54641953438116       -0.02353544624940       -0.09097791062150
H           -0.45709268062007        0.17908156431061       -1.51109522398932
H            0.88495809165938        1.03532088939001       -1.87137854149697
7
 energy: -19.632770654155 gnorm: 0.002356925043 xtb: 6.7.1 (edcfbbe)
S            1.09742439022225       -0.05816758365853        0.01557490403115
N            0.54532872904224        0.11627563915423       -1.62362250848587
O            0.53913840375469       -1.32919192998879        0.44670461955067
O            0.52775040901323        1.10146851667898        0.70380672655510
O            2.54678506755652       -0.02371702152533       -0.09156160581307
H           -0.45579112238004        0.18009288715326       -1.50623088797871
H            0.88517412279112        1.03596949218617       -1.86612124785926
7
 energy: -19.632777233803 gnorm: 0.001017037189 xtb: 6.7.1 (edcfbbe)
S            1.09778712576197       -0.05890298032702        0.01506331823021
N            0.54491798103536        0.11694399972404       -1.62384148972781
O            0.53892901006309       -1.32946792925064        0.44615264063780
O            0.52621726630111        1.10221583936060        0.69942397740182
O            2.54693266129322       -0.02393923853945       -0.09215858078157
H           -0.45496898033278        0.17980490441962       -1.50313993481181
H            0.88599493587804        1.03607540461285       -1.86294993094865
7
 energy: -19.632778347183 gnorm: 0.000494013072 xtb: 6.7.1 (edcfbbe)
S            1.09775723932756       -0.05913006219665        0.01431457554292
N            0.54460690312883        0.11736661877582       -1.62429207035315
O            0.53904890071565       -1.32945051036273        0.44618942797271
O            0.52583062649079        1.10251864044629        0.69822890424591
O            2.54692777320581       -0.02419885476007       -0.09202283020168
H           -0.45488230487395        0.17931892289680       -1.50200745669306
H            0.88652086200530        1.03630524520053       -1.86186055051365
