      -----------------------------------------------------------      
     |                   =====================                   |     
     |                           x T B                           |     
     |                   =====================                   |     
     |                         S. Grimme                         |     
     |          Mulliken Center for Theoretical Chemistry        |     
     |                    University of Bonn                     |     
      -----------------------------------------------------------      

   * xtb version 6.7.1 (edcfbbe) compiled by 'conda@3ef47c1a292c' on 2024-11-25

   xtb is free software: you can redistribute it and/or modify it under
   the terms of the GNU Lesser General Public License as published by
   the Free Software Foundation, either version 3 of the License, or
   (at your option) any later version.
   
   xtb is distributed in the hope that it will be useful,
   but WITHOUT ANY WARRANTY; without even the implied warranty of
   MERCHANTABILITY or FITNESS FOR A PARTICULAR PURPOSE.  See the
   GNU Lesser General Public License for more details.
   
   Cite this work as:
   * C. Bannwarth, E. Caldeweyher, S. Ehlert, A. Hansen, P. Pracht,
     J. Seibert, S. Spicher, S. Grimme, WIREs Comput. Mol. Sci., 2020, 11,
     e01493. DOI: 10.1002/wcms.1493
   
   for GFN2-xTB:
   * C. Bannwarth, S. Ehlert and S. Grimme., J. Chem. Theory Comput., 2019,
     15, 1652-1671. DOI: 10.1021/acs.jctc.8b01176
   for GFN1-xTB:
   * S. Grimme, C. Bannwarth, P. Shushkov, J. Chem. Theory Comput., 2017,
     13, 1989-2009. DOI: 10.1021/acs.jctc.7b00118
   for GFN0-xTB:
   * P. Pracht, E. Caldeweyher, S. Ehlert, S. Grimme, ChemRxiv, 2019, preprint.
     DOI: 10.26434/chemrxiv.8326202.v1
   for GFN-FF:
   * S. Spicher and S. Grimme, Angew. Chem. Int. Ed., 2020, 59, 15665-15673.
     DOI: 10.1002/anie.202004239
   
   for ALPB and GBSA implicit solvation:
   * S. Ehlert, M. Stahn, S. Spicher, S. Grimme, J. Chem. Theory Comput.,
     2021, 17, 4250-4261. DOI: 10.1021/acs.jctc.1c00471
   
   for ddCOSMO and CPCM-X implicit solvation:
   * M. Stahn, S. Ehlert, S. Grimme, J. Phys. Chem. A,
     2023, XX, XXXX-XXXX. DOI: 10.1021/acs.jpca.3c04382
   
   for DFT-D4:
   * E. Caldeweyher, C. Bannwarth and S. Grimme, J. Chem. Phys., 2017,
     147, 034112. DOI: 10.1063/1.4993215
   * E. Caldeweyher, S. Ehlert, A. Hansen, H. Neugebauer, S. Spicher,
     C. Bannwarth and S. Grimme, J. Chem. Phys., 2019, 150, 154122.
     DOI: 10.1063/1.5090222
   * E. Caldeweyher, J.-M. Mewes, S. Ehlert and S. Grimme, Phys. Chem. Chem. Phys.
     2020, 22, 8499-8512. DOI: 10.1039/D0CP00502A
   
   for sTDA-xTB:
   * S. Grimme and C. Bannwarth, J. Chem. Phys., 2016, 145, 054103.
     DOI: 10.1063/1.4959605
   
   in the mass-spec context:
   * V. Asgeirsson, C. Bauer and S. Grimme, Chem. Sci., 2017, 8, 4879.
     DOI: 10.1039/c7sc00601b
   * J. Koopman and S. Grimme, ACS Omega 2019, 4, 12, 15120-15133.
     DOI: 10.1021/acsomega.9b02011
   
   for metadynamics refer to:
   * S. Grimme, J. Chem. Theory Comput., 2019, 155, 2847-2862
     DOI: 10.1021/acs.jctc.9b00143
   
   for SPH calculations refer to:
   * S. Spicher and S. Grimme, J. Chem. Theory Comput., 2021, 17, 1701-1714
     DOI: 10.1021/acs.jctc.0c01306
   
   for ONIOM refer to:
   * C. Plett, A. Katbashev, S. Ehlert, S. Grimme, M. Bursch,
     Phys. Chem. Chem. Phys., 2023, 25, 17860-17868. DOI: 10.1039/D3CP02178E
   
   for DIPRO refer to:
   * J. Kohn, N. Gildemeister, S. Grimme, D. Fazzi, A. Hansen,
     J. Chem. Phys., 2023, just accepted.
   
   for PTB refer to:
   * S. Grimme, M. Mueller, A. Hansen, J. Chem. Phys., 2023, 158, 124111.
     DOI: 10.1063/5.0137838
   
   with help from (in alphabetical order)
   P. Atkinson, C. Bannwarth, F. Bohle, G. Brandenburg, E. Caldeweyher
   M. Checinski, S. Dohm, S. Ehlert, S. Ehrlich, I. Gerasimov, C. Hölzer
   A. Katbashev, J. Kohn, J. Koopman, C. Lavigne, S. Lehtola, F. März, M. Müller,
   F. Musil, H. Neugebauer, J. Pisarek, C. Plett, P. Pracht, F. Pultar,
   J. Seibert, P. Shushkov, S. Spicher, M. Stahn, M. Steiner, T. Strunk,
   J. Stückrath, T. Rose, and J. Unsleber
   
 * started run on 2024/12/20 at 01:54:50.301     
   ID    Z sym.   atoms
    1    8 O      1
    2    6 C      2-13
    3    9 F      14, 15, 17-21
    4    5 B      16
    5    1 H      22-26

           -------------------------------------------------
          |                Calculation Setup                |
           -------------------------------------------------

          program call               : xtb A140.xyz --opt --namespace A140 --charge -1
          calculation namespace      : A140
          coordinate file            : A140.xyz
          omp threads                :                     8


           -------------------------------------------------
          |                 G F N 2 - x T B                 |
           -------------------------------------------------

        Reference                      10.1021/acs.jctc.8b01176
      * Hamiltonian:
        H0-scaling (s, p, d)           1.850000    2.230000    2.230000
        zeta-weighting                 0.500000
      * Dispersion:
        s8                             2.700000
        a1                             0.520000
        a2                             5.000000
        s9                             5.000000
      * Repulsion:
        kExp                           1.500000    1.000000
        rExp                           1.000000
      * Coulomb:
        alpha                          2.000000
        third order                    shell-resolved
        anisotropic                    true
        a3                             3.000000
        a5                             4.000000
        cn-shift                       1.200000
        cn-exp                         4.000000
        max-rad                        5.000000


          ...................................................
          :                      SETUP                      :
          :.................................................:
          :  # basis functions                  89          :
          :  # atomic orbitals                  89          :
          :  # shells                           47          :
          :  # electrons                       112          :
          :  max. iterations                   250          :
          :  Hamiltonian                  GFN2-xTB          :
          :  restarted?                      false          :
          :  GBSA solvation                  false          :
          :  PC potential                    false          :
          :  electronic temp.          300.0000000     K    :
          :  accuracy                    1.0000000          :
          :  -> integral cutoff          0.2500000E+02      :
          :  -> integral neglect         0.1000000E-07      :
          :  -> SCF convergence          0.1000000E-05 Eh   :
          :  -> wf. convergence          0.1000000E-03 e    :
          :  Broyden damping             0.4000000          :
          :  net charge                         -1          :
          :  unpaired electrons                  0          :
          ...................................................

 iter      E             dE          RMSdq      gap      omega  full diag
   1    -67.4372026 -0.674372E+02  0.587E+00    3.51       0.0  T
   2    -67.6294844 -0.192282E+00  0.349E+00    3.12       1.0  T
   3    -67.6382386 -0.875420E-02  0.162E+00    3.11       1.0  T
   4    -67.6539024 -0.156638E-01  0.493E-01    2.61       1.0  T
   5    -67.6562814 -0.237899E-02  0.242E-01    2.78       1.0  T
   6    -67.6564288 -0.147428E-03  0.112E-01    2.82       1.0  T
   7    -67.6566152 -0.186425E-03  0.194E-02    2.83       1.0  T
   8    -67.6566186 -0.340788E-05  0.862E-03    2.83       2.3  T
   9    -67.6566191 -0.469878E-06  0.343E-03    2.83       5.7  T
  10    -67.6566191 -0.152672E-07  0.124E-03    2.83      15.8  T
  11    -67.6566191 -0.185037E-07  0.555E-04    2.83      35.3  T
  12    -67.6566191 -0.389296E-08  0.219E-04    2.83      89.5  T

   *** convergence criteria satisfied after 12 iterations ***

         #    Occupation            Energy/Eh            Energy/eV
      -------------------------------------------------------------
         1        2.0000           -0.7541483             -20.5214
       ...           ...                  ...                  ...
        50        2.0000           -0.3030843              -8.2473
        51        2.0000           -0.2999449              -8.1619
        52        2.0000           -0.2982578              -8.1160
        53        2.0000           -0.2932933              -7.9809
        54        2.0000           -0.2910231              -7.9191
        55        2.0000           -0.2897005              -7.8832
        56        2.0000           -0.2668945              -7.2626 (HOMO)
        57                         -0.1627912              -4.4298 (LUMO)
        58                         -0.1521775              -4.1410
        59                         -0.1433710              -3.9013
        60                         -0.1280416              -3.4842
        61                         -0.0226542              -0.6165
       ...                                ...                  ...
        89                          0.8299239              22.5834
      -------------------------------------------------------------
                  HL-Gap            0.1041032 Eh            2.8328 eV
             Fermi-level           -0.2148428 Eh           -5.8462 eV

 SCC (total)                   0 d,  0 h,  0 min,  0.021 sec
 SCC setup                      ...        0 min,  0.000 sec (  0.675%)
 Dispersion                     ...        0 min,  0.000 sec (  1.095%)
 classical contributions        ...        0 min,  0.000 sec (  0.210%)
 integral evaluation            ...        0 min,  0.002 sec (  7.881%)
 iterations                     ...        0 min,  0.016 sec ( 73.406%)
 molecular gradient             ...        0 min,  0.003 sec ( 16.219%)
 printout                       ...        0 min,  0.000 sec (  0.438%)

         :::::::::::::::::::::::::::::::::::::::::::::::::::::
         ::                     SUMMARY                     ::
         :::::::::::::::::::::::::::::::::::::::::::::::::::::
         :: total energy             -66.984419405322 Eh    ::
         :: gradient norm              0.225277749967 Eh/a0 ::
         :: HOMO-LUMO gap              2.832793129012 eV    ::
         ::.................................................::
         :: SCC energy               -67.656664219363 Eh    ::
         :: -> isotropic ES            0.236240578207 Eh    ::
         :: -> anisotropic ES          0.002819760639 Eh    ::
         :: -> anisotropic XC         -0.019427940772 Eh    ::
         :: -> dispersion             -0.028544270615 Eh    ::
         :: repulsion energy           0.672244814041 Eh    ::
         :: add. restraining           0.000000000000 Eh    ::
         :: total charge              -1.000000000000 e     ::
         :::::::::::::::::::::::::::::::::::::::::::::::::::::

      ----------------------------------------------------------- 
     |                   =====================                   |
     |                        A N C O P T                        |
     |                   =====================                   |
     |               Approximate Normal Coordinate               |
     |                Rational Function Optimizer                |
      ----------------------------------------------------------- 
      ----------------------------------------------------------- 
     |                   =====================                   |
     |                        A N C O P T                        |
     |                   =====================                   |
     |               Approximate Normal Coordinate               |
     |                Rational Function Optimizer                |
      ----------------------------------------------------------- 

          ...................................................
          :                      SETUP                      :
          :.................................................:
          :   optimization level            normal          :
          :   max. optcycles                   200          :
          :   ANC micro-cycles                  20          :
          :   degrees of freedom                72          :
          :.................................................:
          :   RF solver                   davidson          :
          :   write xtbopt.log                true          :
          :   linear?                        false          :
          :   energy convergence         0.5000000E-05 Eh   :
          :   grad. convergence          0.1000000E-02 Eh/α :
          :   maxmium RF displ.          1.0000000          :
          :   Hlow (freq-cutoff)         0.1000000E-01      :
          :   Hmax (freq-cutoff)         5.0000000          :
          :   S6 in model hess.         20.0000000          :
          ...................................................

generating ANC from exact Hessian ...
Using Lindh-Hessian (1995)
 Shifting diagonal of input Hessian by    8.9150727333482446E-003
 Lowest  eigenvalues of input Hessian
    0.000000    0.000000    0.000000    0.000000    0.000000    0.000000
    0.010000    0.011117    0.011882    0.014694    0.016578    0.021998
    0.024625    0.027779    0.028993    0.034467    0.035607    0.037242
 Highest eigenvalues
    2.047303    2.097518    2.166964    2.242494    2.297300    2.405959


........................................................................
.............................. CYCLE    1 ..............................
........................................................................

 iter      E             dE          RMSdq      gap      omega  full diag
   1    -67.6566191 -0.676566E+02  0.101E-04    2.83       0.0  T
   2    -67.6566191 -0.679847E-10  0.647E-05    2.83     303.2  T
   3    -67.6566191 -0.333671E-10  0.422E-05    2.83     465.2  T
     SCC iter.                  ...        0 min,  0.004 sec
     gradient                   ...        0 min,  0.003 sec
 * total energy  :   -66.9844194 Eh     change       -0.2263931E-09 Eh
   gradient norm :     0.2252624 Eh/α   predicted     0.0000000E+00 (-100.00%)
   displ. norm   :     0.5136092 α      lambda       -0.6543131E-01
   maximum displ.:     0.2192332 α      in ANC's #13, #32, #7, ...

........................................................................
.............................. CYCLE    2 ..............................
........................................................................

 iter      E             dE          RMSdq      gap      omega  full diag
   1    -67.6422611 -0.676423E+02  0.406E-01    2.89       0.0  T
   2    -67.6427868 -0.525739E-03  0.258E-01    2.86       1.0  T
   3    -67.6428576 -0.708148E-04  0.141E-01    2.88       1.0  T
   4    -67.6429874 -0.129767E-03  0.217E-02    2.87       1.0  T
   5    -67.6429927 -0.531408E-05  0.960E-03    2.87       2.0  T
   6    -67.6429941 -0.135512E-05  0.343E-03    2.87       5.7  T
   7    -67.6429941 -0.270232E-07  0.126E-03    2.87      15.5  T
   8    -67.6429941 -0.296687E-08  0.568E-04    2.87      34.5  T
   9    -67.6429941 -0.348825E-08  0.259E-04    2.87      75.7  T
     SCC iter.                  ...        0 min,  0.010 sec
     gradient                   ...        0 min,  0.003 sec
 * total energy  :   -67.0274104 Eh     change       -0.4299096E-01 Eh
   gradient norm :     0.0822862 Eh/α   predicted    -0.4151034E-01 (  -3.44%)
   displ. norm   :     0.5606153 α      lambda       -0.2667530E-01
   maximum displ.:     0.3029129 α      in ANC's #13, #15, #7, ...

........................................................................
.............................. CYCLE    3 ..............................
........................................................................

 iter      E             dE          RMSdq      gap      omega  full diag
   1    -67.6291506 -0.676292E+02  0.379E-01    2.87       0.0  T
   2    -67.6294898 -0.339277E-03  0.237E-01    2.87       1.0  T
   3    -67.6294608  0.290885E-04  0.124E-01    2.88       1.0  T
   4    -67.6296063 -0.145530E-03  0.248E-02    2.87       1.0  T
   5    -67.6296122 -0.590832E-05  0.909E-03    2.88       2.2  T
   6    -67.6296135 -0.134709E-05  0.342E-03    2.87       5.7  T
   7    -67.6296136 -0.333996E-07  0.134E-03    2.87      14.7  T
   8    -67.6296136 -0.108659E-07  0.688E-04    2.87      28.5  T
   9    -67.6296136 -0.623216E-08  0.268E-04    2.87      73.2  T
     SCC iter.                  ...        0 min,  0.010 sec
     gradient                   ...        0 min,  0.003 sec
 * total energy  :   -67.0457590 Eh     change       -0.1834863E-01 Eh
   gradient norm :     0.0313095 Eh/α   predicted    -0.1752960E-01 (  -4.46%)
   displ. norm   :     0.4927977 α      lambda       -0.9404968E-02
   maximum displ.:     0.2427479 α      in ANC's #13, #7, #6, ...

........................................................................
.............................. CYCLE    4 ..............................
........................................................................

 iter      E             dE          RMSdq      gap      omega  full diag
   1    -67.6314084 -0.676314E+02  0.271E-01    2.87       0.0  T
   2    -67.6314839 -0.755200E-04  0.162E-01    2.87       1.0  T
   3    -67.6314288  0.550852E-04  0.763E-02    2.87       1.0  T
   4    -67.6315154 -0.865360E-04  0.125E-02    2.87       1.6  T
   5    -67.6315165 -0.114105E-05  0.559E-03    2.87       3.5  T
   6    -67.6315169 -0.386307E-06  0.217E-03    2.87       9.0  T
   7    -67.6315169 -0.516846E-08  0.857E-04    2.87      22.9  T
   8    -67.6315169 -0.102399E-07  0.402E-04    2.87      48.8  T
     SCC iter.                  ...        0 min,  0.009 sec
     gradient                   ...        0 min,  0.003 sec
 * total energy  :   -67.0525181 Eh     change       -0.6759131E-02 Eh
   gradient norm :     0.0234378 Eh/α   predicted    -0.5844717E-02 ( -13.53%)
   displ. norm   :     0.4320591 α      lambda       -0.4265565E-02
   maximum displ.:     0.2162020 α      in ANC's #7, #6, #13, ...

........................................................................
.............................. CYCLE    5 ..............................
........................................................................

 iter      E             dE          RMSdq      gap      omega  full diag
   1    -67.6381508 -0.676382E+02  0.201E-01    2.89       0.0  T
   2    -67.6381694 -0.185463E-04  0.119E-01    2.89       1.0  T
   3    -67.6381391  0.302682E-04  0.415E-02    2.89       1.0  T
   4    -67.6381784 -0.392973E-04  0.667E-03    2.89       2.9  T
   5    -67.6381786 -0.222085E-06  0.354E-03    2.89       5.5  T
   6    -67.6381787 -0.113017E-06  0.108E-03    2.89      18.1  T
   7    -67.6381788 -0.267437E-08  0.425E-04    2.89      46.1  T
   8    -67.6381788 -0.103520E-08  0.184E-04    2.89     106.7  T
     SCC iter.                  ...        0 min,  0.009 sec
     gradient                   ...        0 min,  0.003 sec
 * total energy  :   -67.0554795 Eh     change       -0.2961370E-02 Eh
   gradient norm :     0.0184725 Eh/α   predicted    -0.2530922E-02 ( -14.54%)
   displ. norm   :     0.3368858 α      lambda       -0.1713155E-02
   maximum displ.:     0.1637951 α      in ANC's #6, #3, #7, ...

........................................................................
.............................. CYCLE    6 ..............................
........................................................................

 iter      E             dE          RMSdq      gap      omega  full diag
   1    -67.6440349 -0.676440E+02  0.142E-01    2.90       0.0  T
   2    -67.6440444 -0.953058E-05  0.845E-02    2.91       1.0  T
   3    -67.6440252  0.192341E-04  0.313E-02    2.91       1.0  T
   4    -67.6440498 -0.245626E-04  0.377E-03    2.91       5.2  T
   5    -67.6440498 -0.783158E-07  0.222E-03    2.91       8.8  T
   6    -67.6440499 -0.407977E-07  0.800E-04    2.91      24.5  T
   7    -67.6440499 -0.108760E-08  0.245E-04    2.91      79.9  T
     SCC iter.                  ...        0 min,  0.008 sec
     gradient                   ...        0 min,  0.003 sec
 * total energy  :   -67.0566802 Eh     change       -0.1200702E-02 Eh
   gradient norm :     0.0127779 Eh/α   predicted    -0.9537950E-03 ( -20.56%)
   displ. norm   :     0.3062190 α      lambda       -0.8735795E-03
   maximum displ.:     0.2025881 α      in ANC's #3, #6, #1, ...

........................................................................
.............................. CYCLE    7 ..............................
........................................................................

 iter      E             dE          RMSdq      gap      omega  full diag
   1    -67.6471150 -0.676471E+02  0.121E-01    2.89       0.0  T
   2    -67.6471239 -0.889524E-05  0.718E-02    2.90       1.0  T
   3    -67.6471105  0.133452E-04  0.296E-02    2.90       1.0  T
   4    -67.6471284 -0.178816E-04  0.354E-03    2.90       5.5  T
   5    -67.6471285 -0.779610E-07  0.184E-03    2.90      10.6  T
   6    -67.6471285 -0.278746E-07  0.782E-04    2.90      25.1  T
   7    -67.6471285 -0.116714E-08  0.201E-04    2.90      97.7  T
     SCC iter.                  ...        0 min,  0.008 sec
     gradient                   ...        0 min,  0.003 sec
 * total energy  :   -67.0573178 Eh     change       -0.6375642E-03 Eh
   gradient norm :     0.0096208 Eh/α   predicted    -0.4777491E-03 ( -25.07%)
   displ. norm   :     0.3424949 α      lambda       -0.6709513E-03
   maximum displ.:     0.2639139 α      in ANC's #3, #1, #6, ...

........................................................................
.............................. CYCLE    8 ..............................
........................................................................

 iter      E             dE          RMSdq      gap      omega  full diag
   1    -67.6474742 -0.676475E+02  0.134E-01    2.88       0.0  T
   2    -67.6474831 -0.894923E-05  0.793E-02    2.89       1.0  T
   3    -67.6474685  0.146650E-04  0.310E-02    2.89       1.0  T
   4    -67.6474877 -0.192220E-04  0.387E-03    2.89       5.1  T
   5    -67.6474878 -0.714088E-07  0.200E-03    2.89       9.8  T
   6    -67.6474878 -0.330174E-07  0.805E-04    2.89      24.4  T
   7    -67.6474878 -0.119823E-08  0.189E-04    2.89     103.9  T
     SCC iter.                  ...        0 min,  0.008 sec
     gradient                   ...        0 min,  0.003 sec
 * total energy  :   -67.0578243 Eh     change       -0.5065102E-03 Eh
   gradient norm :     0.0089777 Eh/α   predicted    -0.3748308E-03 ( -26.00%)
   displ. norm   :     0.3321990 α      lambda       -0.5545586E-03
   maximum displ.:     0.2561553 α      in ANC's #3, #1, #8, ...

........................................................................
.............................. CYCLE    9 ..............................
........................................................................

 iter      E             dE          RMSdq      gap      omega  full diag
   1    -67.6466829 -0.676467E+02  0.131E-01    2.87       0.0  T
   2    -67.6466885 -0.563309E-05  0.777E-02    2.88       1.0  T
   3    -67.6466786  0.992764E-05  0.245E-02    2.88       1.0  T
   4    -67.6466912 -0.126060E-04  0.353E-03    2.89       5.6  T
   5    -67.6466912 -0.476907E-07  0.182E-03    2.89      10.8  T
   6    -67.6466912 -0.219565E-07  0.736E-04    2.89      26.7  T
   7    -67.6466913 -0.153310E-08  0.165E-04    2.89     118.7  T
     SCC iter.                  ...        0 min,  0.008 sec
     gradient                   ...        0 min,  0.004 sec
 * total energy  :   -67.0582707 Eh     change       -0.4464633E-03 Eh
   gradient norm :     0.0096779 Eh/α   predicted    -0.3078903E-03 ( -31.04%)
   displ. norm   :     0.4026546 α      lambda       -0.6184830E-03
   maximum displ.:     0.3003478 α      in ANC's #3, #1, #4, ...

........................................................................
.............................. CYCLE   10 ..............................
........................................................................

 iter      E             dE          RMSdq      gap      omega  full diag
   1    -67.6449745 -0.676450E+02  0.161E-01    2.87       0.0  T
   2    -67.6449810 -0.652751E-05  0.950E-02    2.89       1.0  T
   3    -67.6449691  0.119173E-04  0.264E-02    2.89       1.0  T
   4    -67.6449841 -0.150703E-04  0.402E-03    2.89       4.9  T
   5    -67.6449842 -0.522635E-07  0.214E-03    2.89       9.2  T
   6    -67.6449842 -0.238943E-07  0.805E-04    2.89      24.4  T
   7    -67.6449842 -0.270097E-08  0.221E-04    2.89      88.7  T
     SCC iter.                  ...        0 min,  0.008 sec
     gradient                   ...        0 min,  0.003 sec
 * total energy  :   -67.0587500 Eh     change       -0.4792434E-03 Eh
   gradient norm :     0.0089355 Eh/α   predicted    -0.3593812E-03 ( -25.01%)
   displ. norm   :     0.4555716 α      lambda       -0.5583146E-03
   maximum displ.:     0.3221627 α      in ANC's #3, #1, #4, ...

........................................................................
.............................. CYCLE   11 ..............................
........................................................................

 iter      E             dE          RMSdq      gap      omega  full diag
   1    -67.6429810 -0.676430E+02  0.183E-01    2.88       0.0  T
   2    -67.6429872 -0.624187E-05  0.108E-01    2.91       1.0  T
   3    -67.6429750  0.122243E-04  0.259E-02    2.90       1.0  T
   4    -67.6429904 -0.153504E-04  0.405E-03    2.91       4.8  T
   5    -67.6429904 -0.433711E-07  0.217E-03    2.91       9.1  T
   6    -67.6429904 -0.124225E-07  0.792E-04    2.91      24.7  T
   7    -67.6429904 -0.546486E-08  0.193E-04    2.91     101.8  T
     SCC iter.                  ...        0 min,  0.008 sec
     gradient                   ...        0 min,  0.003 sec
 * total energy  :   -67.0591717 Eh     change       -0.4217543E-03 Eh
   gradient norm :     0.0091432 Eh/α   predicted    -0.3370985E-03 ( -20.07%)
   displ. norm   :     0.3981461 α      lambda       -0.4801308E-03
   maximum displ.:     0.2598279 α      in ANC's #3, #1, #4, ...

........................................................................
.............................. CYCLE   12 ..............................
........................................................................

 iter      E             dE          RMSdq      gap      omega  full diag
   1    -67.6434797 -0.676435E+02  0.158E-01    2.91       0.0  T
   2    -67.6434861 -0.643170E-05  0.937E-02    2.93       1.0  T
   3    -67.6434741  0.119708E-04  0.261E-02    2.93       1.0  T
   4    -67.6434891 -0.150026E-04  0.382E-03    2.94       5.1  T
   5    -67.6434892 -0.501875E-07  0.192E-03    2.94      10.2  T
   6    -67.6434892 -0.179056E-07  0.853E-04    2.94      23.0  T
   7    -67.6434892 -0.321432E-08  0.225E-04    2.94      87.1  T
     SCC iter.                  ...        0 min,  0.008 sec
     gradient                   ...        0 min,  0.003 sec
 * total energy  :   -67.0595407 Eh     change       -0.3690192E-03 Eh
   gradient norm :     0.0086839 Eh/α   predicted    -0.2781213E-03 ( -24.63%)
   displ. norm   :     0.4377535 α      lambda       -0.5250194E-03
   maximum displ.:     0.2941847 α      in ANC's #1, #3, #4, ...

........................................................................
.............................. CYCLE   13 ..............................
........................................................................

 iter      E             dE          RMSdq      gap      omega  full diag
   1    -67.6446478 -0.676446E+02  0.161E-01    2.94       0.0  T
   2    -67.6446635 -0.156283E-04  0.954E-02    2.95       1.0  T
   3    -67.6446405  0.229773E-04  0.366E-02    2.96       1.0  T
   4    -67.6446702 -0.297293E-04  0.506E-03    2.96       3.9  T
   5    -67.6446704 -0.133109E-06  0.233E-03    2.96       8.4  T
   6    -67.6446704 -0.314628E-07  0.125E-03    2.96      15.7  T
   7    -67.6446704 -0.985706E-08  0.411E-04    2.96      47.7  T
   8    -67.6446704 -0.155913E-08  0.155E-04    2.96     126.9  T
     SCC iter.                  ...        0 min,  0.009 sec
     gradient                   ...        0 min,  0.004 sec
 * total energy  :   -67.0598992 Eh     change       -0.3584415E-03 Eh
   gradient norm :     0.0084262 Eh/α   predicted    -0.3128186E-03 ( -12.73%)
   displ. norm   :     0.4022948 α      lambda       -0.5312939E-03
   maximum displ.:     0.2871915 α      in ANC's #1, #3, #4, ...

........................................................................
.............................. CYCLE   14 ..............................
........................................................................

 iter      E             dE          RMSdq      gap      omega  full diag
   1    -67.6487668 -0.676488E+02  0.154E-01    2.96       0.0  T
   2    -67.6487890 -0.221296E-04  0.940E-02    2.98       1.0  T
   3    -67.6487724  0.166107E-04  0.449E-02    2.99       1.0  T
   4    -67.6487996 -0.272086E-04  0.590E-03    2.99       3.3  T
   5    -67.6487998 -0.205042E-06  0.251E-03    2.99       7.8  T
   6    -67.6487998 -0.674373E-07  0.111E-03    2.99      17.7  T
   7    -67.6487998 -0.219646E-08  0.388E-04    2.99      50.6  T
   8    -67.6487998 -0.598760E-09  0.131E-04    2.99     150.1  T
     SCC iter.                  ...        0 min,  0.009 sec
     gradient                   ...        0 min,  0.004 sec
 * total energy  :   -67.0601725 Eh     change       -0.2733442E-03 Eh
   gradient norm :     0.0093056 Eh/α   predicted    -0.3086399E-03 (  12.91%)
   displ. norm   :     0.3967237 α      lambda       -0.3078714E-03
   maximum displ.:     0.2893011 α      in ANC's #1, #3, #4, ...

........................................................................
.............................. CYCLE   15 ..............................
........................................................................

 iter      E             dE          RMSdq      gap      omega  full diag
   1    -67.6446849 -0.676447E+02  0.140E-01    2.97       0.0  T
   2    -67.6446971 -0.122053E-04  0.827E-02    2.99       1.0  T
   3    -67.6446822  0.149672E-04  0.407E-02    2.99       1.0  T
   4    -67.6447039 -0.217760E-04  0.420E-03    2.99       4.7  T
   5    -67.6447040 -0.716323E-07  0.212E-03    2.99       9.3  T
   6    -67.6447040 -0.154620E-07  0.108E-03    2.99      18.2  T
   7    -67.6447040 -0.117107E-07  0.374E-04    2.99      52.5  T
   8    -67.6447040 -0.973188E-09  0.148E-04    2.99     132.4  T
     SCC iter.                  ...        0 min,  0.009 sec
     gradient                   ...        0 min,  0.003 sec
 * total energy  :   -67.0603675 Eh     change       -0.1949998E-03 Eh
   gradient norm :     0.0084715 Eh/α   predicted    -0.1781665E-03 (  -8.63%)
   displ. norm   :     0.2381252 α      lambda       -0.3339185E-03
   maximum displ.:     0.1985685 α      in ANC's #1, #2, #12, ...

........................................................................
.............................. CYCLE   16 ..............................
........................................................................

 iter      E             dE          RMSdq      gap      omega  full diag
   1    -67.6506862 -0.676507E+02  0.817E-02    3.00       0.0  T
   2    -67.6507027 -0.164606E-04  0.510E-02    3.00       1.0  T
   3    -67.6507056 -0.289243E-05  0.290E-02    3.00       1.0  T
   4    -67.6507124 -0.680621E-05  0.444E-03    3.00       4.4  T
   5    -67.6507125 -0.149300E-06  0.193E-03    3.00      10.2  T
   6    -67.6507126 -0.704855E-07  0.713E-04    3.00      27.5  T
   7    -67.6507126 -0.289410E-08  0.355E-04    3.00      55.2  T
     SCC iter.                  ...        0 min,  0.011 sec
     gradient                   ...        0 min,  0.004 sec
 * total energy  :   -67.0605359 Eh     change       -0.1683585E-03 Eh
   gradient norm :     0.0102348 Eh/α   predicted    -0.1764391E-03 (   4.80%)
   displ. norm   :     0.3326130 α      lambda       -0.2487960E-03
   maximum displ.:     0.2840120 α      in ANC's #1, #3, #4, ...

........................................................................
.............................. CYCLE   17 ..............................
........................................................................

 iter      E             dE          RMSdq      gap      omega  full diag
   1    -67.6487151 -0.676487E+02  0.110E-01    2.99       0.0  T
   2    -67.6487196 -0.451948E-05  0.654E-02    3.01       1.0  T
   3    -67.6487105  0.904063E-05  0.224E-02    3.01       1.0  T
   4    -67.6487217 -0.111877E-04  0.327E-03    3.01       6.0  T
   5    -67.6487218 -0.738123E-07  0.175E-03    3.01      11.2  T
   6    -67.6487218 -0.333117E-07  0.774E-04    3.01      25.3  T
   7    -67.6487218 -0.150558E-08  0.266E-04    3.01      73.8  T
     SCC iter.                  ...        0 min,  0.008 sec
     gradient                   ...        0 min,  0.004 sec
 * total energy  :   -67.0607296 Eh     change       -0.1937437E-03 Eh
   gradient norm :     0.0082398 Eh/α   predicted    -0.1381659E-03 ( -28.69%)
   displ. norm   :     0.4110222 α      lambda       -0.3353367E-03
   maximum displ.:     0.3736229 α      in ANC's #1, #2, #10, ...

........................................................................
.............................. CYCLE   18 ..............................
........................................................................

 iter      E             dE          RMSdq      gap      omega  full diag
   1    -67.6487878 -0.676488E+02  0.130E-01    3.01       0.0  T
   2    -67.6487974 -0.961865E-05  0.775E-02    3.03       1.0  T
   3    -67.6487839  0.135379E-04  0.256E-02    3.03       1.0  T
   4    -67.6488010 -0.171140E-04  0.451E-03    3.03       4.3  T
   5    -67.6488012 -0.175870E-06  0.224E-03    3.03       8.8  T
   6    -67.6488013 -0.771886E-07  0.970E-04    3.03      20.2  T
   7    -67.6488013 -0.210242E-08  0.367E-04    3.03      53.4  T
     SCC iter.                  ...        0 min,  0.008 sec
     gradient                   ...        0 min,  0.004 sec
 * total energy  :   -67.0609602 Eh     change       -0.2305784E-03 Eh
   gradient norm :     0.0074680 Eh/α   predicted    -0.1959960E-03 ( -15.00%)
   displ. norm   :     0.4423978 α      lambda       -0.2441721E-03
   maximum displ.:     0.4081442 α      in ANC's #1, #2, #10, ...

........................................................................
.............................. CYCLE   19 ..............................
........................................................................

 iter      E             dE          RMSdq      gap      omega  full diag
   1    -67.6477081 -0.676477E+02  0.135E-01    3.04       0.0  T
   2    -67.6477122 -0.410392E-05  0.795E-02    3.04       1.0  T
   3    -67.6477045  0.767664E-05  0.232E-02    3.04       1.0  T
   4    -67.6477143 -0.976498E-05  0.359E-03    3.05       5.5  T
   5    -67.6477143 -0.380274E-07  0.188E-03    3.04      10.4  T
   6    -67.6477143 -0.279884E-07  0.708E-04    3.05      27.7  T
   7    -67.6477143 -0.266128E-08  0.287E-04    3.04      68.3  T
     SCC iter.                  ...        0 min,  0.008 sec
     gradient                   ...        0 min,  0.003 sec
 * total energy  :   -67.0611491 Eh     change       -0.1889313E-03 Eh
   gradient norm :     0.0085475 Eh/α   predicted    -0.1459825E-03 ( -22.73%)
   displ. norm   :     0.4434446 α      lambda       -0.3269946E-03
   maximum displ.:     0.3905267 α      in ANC's #1, #3, #2, ...

........................................................................
.............................. CYCLE   20 ..............................
........................................................................

 iter      E             dE          RMSdq      gap      omega  full diag
   1    -67.6515894 -0.676516E+02  0.133E-01    3.07       0.0  T
   2    -67.6515931 -0.366656E-05  0.783E-02    3.07       1.0  T
   3    -67.6515884  0.472308E-05  0.165E-02    3.07       1.2  T
   4    -67.6515946 -0.620358E-05  0.345E-03    3.07       5.7  T
   5    -67.6515946 -0.273655E-07  0.193E-03    3.07      10.1  T
   6    -67.6515947 -0.426104E-07  0.661E-04    3.07      29.7  T
   7    -67.6515947 -0.195780E-08  0.275E-04    3.07      71.2  T
     SCC iter.                  ...        0 min,  0.008 sec
     gradient                   ...        0 min,  0.003 sec
 * total energy  :   -67.0613656 Eh     change       -0.2164082E-03 Eh
   gradient norm :     0.0090945 Eh/α   predicted    -0.1956496E-03 (  -9.59%)
   displ. norm   :     0.5632238 α      lambda       -0.2844927E-03
   maximum displ.:     0.5241889 α      in ANC's #1, #2, #41, ...
 * RMSD in coord.:     1.1781066 α      energy gain  -0.7694615E-01 Eh

generating ANC from exact Hessian ...
Using Lindh-Hessian (1995)
 Shifting diagonal of input Hessian by    9.2659092781205640E-003
 Lowest  eigenvalues of input Hessian
    0.000000    0.000000    0.000000    0.000000    0.000000    0.000000
    0.010000    0.010474    0.010647    0.013221    0.014393    0.017758
    0.021708    0.023244    0.024678    0.025093    0.030598    0.030912
 Highest eigenvalues
    1.897129    1.906205    2.019431    2.081373    2.174305    2.182834


........................................................................
.............................. CYCLE   21 ..............................
........................................................................

 iter      E             dE          RMSdq      gap      omega  full diag
   1    -67.6457830 -0.676458E+02  0.178E-01    3.05       0.0  T
   2    -67.6457927 -0.965405E-05  0.106E-01    3.07       1.0  T
   3    -67.6457730  0.196918E-04  0.345E-02    3.07       1.0  T
   4    -67.6457973 -0.243512E-04  0.488E-03    3.07       4.0  T
   5    -67.6457974 -0.817091E-07  0.240E-03    3.07       8.2  T
   6    -67.6457974 -0.378076E-07  0.126E-03    3.07      15.6  T
   7    -67.6457975 -0.161566E-07  0.386E-04    3.07      50.8  T
   8    -67.6457975 -0.958764E-09  0.123E-04    3.07     158.8  T
     SCC iter.                  ...        0 min,  0.009 sec
     gradient                   ...        0 min,  0.003 sec
 * total energy  :   -67.0614949 Eh     change       -0.1293395E-03 Eh
   gradient norm :     0.0096764 Eh/α   predicted     0.0000000E+00 (-100.00%)
   displ. norm   :     0.0572831 α      lambda       -0.2015416E-03
   maximum displ.:     0.0340287 α      in ANC's #1, #7, #14, ...

........................................................................
.............................. CYCLE   22 ..............................
........................................................................

 iter      E             dE          RMSdq      gap      omega  full diag
   1    -67.6500464 -0.676500E+02  0.369E-02    3.07       0.0  T
   2    -67.6500484 -0.203218E-05  0.223E-02    3.08       1.0  T
   3    -67.6500476  0.831210E-06  0.109E-02    3.08       1.8  T
   4    -67.6500492 -0.159916E-05  0.156E-03    3.08      12.6  T
   5    -67.6500492 -0.194723E-07  0.717E-04    3.08      27.3  T
   6    -67.6500492 -0.685753E-08  0.238E-04    3.08      82.4  T
     SCC iter.                  ...        0 min,  0.007 sec
     gradient                   ...        0 min,  0.003 sec
 * total energy  :   -67.0616352 Eh     change       -0.1402730E-03 Eh
   gradient norm :     0.0043418 Eh/α   predicted    -0.1063324E-03 ( -24.20%)
   displ. norm   :     0.0666164 α      lambda       -0.7020534E-04
   maximum displ.:     0.0495997 α      in ANC's #1, #2, #4, ...

........................................................................
.............................. CYCLE   23 ..............................
........................................................................

 iter      E             dE          RMSdq      gap      omega  full diag
   1    -67.6520733 -0.676521E+02  0.260E-02    3.08       0.0  T
   2    -67.6520749 -0.153175E-05  0.157E-02    3.08       1.3  T
   3    -67.6520747  0.116356E-06  0.853E-03    3.08       2.3  T
   4    -67.6520754 -0.682164E-06  0.161E-03    3.08      12.2  T
   5    -67.6520754 -0.160870E-07  0.715E-04    3.08      27.4  T
   6    -67.6520754 -0.780165E-08  0.236E-04    3.08      83.3  T
     SCC iter.                  ...        0 min,  0.006 sec
     gradient                   ...        0 min,  0.003 sec
 * total energy  :   -67.0616818 Eh     change       -0.4662497E-04 Eh
   gradient norm :     0.0016356 Eh/α   predicted    -0.3527966E-04 ( -24.33%)
   displ. norm   :     0.1004368 α      lambda       -0.3007079E-04
   maximum displ.:     0.0768184 α      in ANC's #1, #2, #4, ...

........................................................................
.............................. CYCLE   24 ..............................
........................................................................

 iter      E             dE          RMSdq      gap      omega  full diag
   1    -67.6522976 -0.676523E+02  0.313E-02    3.08       0.0  T
   2    -67.6522988 -0.122679E-05  0.186E-02    3.08       1.1  T
   3    -67.6522981  0.668596E-06  0.927E-03    3.08       2.1  T
   4    -67.6522993 -0.114698E-05  0.165E-03    3.08      11.9  T
   5    -67.6522993 -0.151293E-07  0.744E-04    3.08      26.4  T
   6    -67.6522993 -0.839728E-08  0.292E-04    3.08      67.1  T
     SCC iter.                  ...        0 min,  0.006 sec
     gradient                   ...        0 min,  0.004 sec
 * total energy  :   -67.0617133 Eh     change       -0.3151715E-04 Eh
   gradient norm :     0.0022987 Eh/α   predicted    -0.1520192E-04 ( -51.77%)
   displ. norm   :     0.0594871 α      lambda       -0.2182039E-04
   maximum displ.:     0.0445478 α      in ANC's #1, #2, #4, ...

........................................................................
.............................. CYCLE   25 ..............................
........................................................................

 iter      E             dE          RMSdq      gap      omega  full diag
   1    -67.6517010 -0.676517E+02  0.181E-02    3.08       0.0  T
   2    -67.6517011 -0.722417E-07  0.108E-02    3.08       1.8  T
   3    -67.6517009  0.128818E-06  0.260E-03    3.08       7.5  T
   4    -67.6517011 -0.165259E-06  0.580E-04    3.08      33.8  T
   5    -67.6517011 -0.535579E-09  0.298E-04    3.08      65.9  T
     SCC iter.                  ...        0 min,  0.005 sec
     gradient                   ...        0 min,  0.003 sec
 * total energy  :   -67.0617327 Eh     change       -0.1941518E-04 Eh
   gradient norm :     0.0019949 Eh/α   predicted    -0.1094901E-04 ( -43.61%)
   displ. norm   :     0.1461879 α      lambda       -0.3143988E-04
   maximum displ.:     0.1040613 α      in ANC's #1, #2, #5, ...

........................................................................
.............................. CYCLE   26 ..............................
........................................................................

 iter      E             dE          RMSdq      gap      omega  full diag
   1    -67.6504970 -0.676505E+02  0.456E-02    3.08       0.0  T
   2    -67.6504975 -0.494046E-06  0.272E-02    3.08       1.0  T
   3    -67.6504968  0.650067E-06  0.594E-03    3.08       3.3  T
   4    -67.6504977 -0.871937E-06  0.138E-03    3.08      14.2  T
   5    -67.6504977 -0.187060E-08  0.695E-04    3.08      28.2  T
   6    -67.6504977 -0.499260E-08  0.231E-04    3.08      85.1  T
     SCC iter.                  ...        0 min,  0.007 sec
     gradient                   ...        0 min,  0.004 sec
 * total energy  :   -67.0617680 Eh     change       -0.3527741E-04 Eh
   gradient norm :     0.0015703 Eh/α   predicted    -0.1587025E-04 ( -55.01%)
   displ. norm   :     0.1263533 α      lambda       -0.1915495E-04
   maximum displ.:     0.0901136 α      in ANC's #1, #2, #5, ...

........................................................................
.............................. CYCLE   27 ..............................
........................................................................

 iter      E             dE          RMSdq      gap      omega  full diag
   1    -67.6504431 -0.676504E+02  0.402E-02    3.08       0.0  T
   2    -67.6504434 -0.292176E-06  0.239E-02    3.08       1.0  T
   3    -67.6504431  0.321662E-06  0.424E-03    3.08       4.6  T
   4    -67.6504436 -0.450427E-06  0.118E-03    3.08      16.6  T
   5    -67.6504436 -0.268624E-08  0.512E-04    3.08      38.3  T
   6    -67.6504436 -0.260236E-08  0.191E-04    3.08     102.6  T
     SCC iter.                  ...        0 min,  0.007 sec
     gradient                   ...        0 min,  0.003 sec
 * total energy  :   -67.0617914 Eh     change       -0.2338215E-04 Eh
   gradient norm :     0.0013908 Eh/α   predicted    -0.9648290E-05 ( -58.74%)
   displ. norm   :     0.1193231 α      lambda       -0.1592930E-04
   maximum displ.:     0.0863064 α      in ANC's #1, #2, #5, ...

........................................................................
.............................. CYCLE   28 ..............................
........................................................................

 iter      E             dE          RMSdq      gap      omega  full diag
   1    -67.6508574 -0.676509E+02  0.392E-02    3.08       0.0  T
   2    -67.6508576 -0.202457E-06  0.232E-02    3.08       1.0  T
   3    -67.6508573  0.219204E-06  0.341E-03    3.08       5.7  T
   4    -67.6508577 -0.315920E-06  0.106E-03    3.08      18.6  T
   5    -67.6508577 -0.330940E-08  0.369E-04    3.08      53.2  T
   6    -67.6508577 -0.950152E-09  0.158E-04    3.08     124.0  T
     SCC iter.                  ...        0 min,  0.007 sec
     gradient                   ...        0 min,  0.004 sec
 * total energy  :   -67.0618101 Eh     change       -0.1870578E-04 Eh
   gradient norm :     0.0009483 Eh/α   predicted    -0.8017383E-05 ( -57.14%)
   displ. norm   :     0.1024227 α      lambda       -0.9968907E-05
   maximum displ.:     0.0761205 α      in ANC's #1, #2, #5, ...

........................................................................
.............................. CYCLE   29 ..............................
........................................................................

 iter      E             dE          RMSdq      gap      omega  full diag
   1    -67.6512762 -0.676513E+02  0.339E-02    3.08       0.0  T
   2    -67.6512763 -0.127352E-06  0.200E-02    3.08       1.0  T
   3    -67.6512762  0.151306E-06  0.271E-03    3.08       7.2  T
   4    -67.6512764 -0.217673E-06  0.784E-04    3.08      25.0  T
   5    -67.6512764 -0.144534E-08  0.261E-04    3.08      75.2  T
     SCC iter.                  ...        0 min,  0.005 sec
     gradient                   ...        0 min,  0.003 sec
 * total energy  :   -67.0618216 Eh     change       -0.1150553E-04 Eh
   gradient norm :     0.0006692 Eh/α   predicted    -0.5013499E-05 ( -56.43%)
   displ. norm   :     0.0795240 α      lambda       -0.6026948E-05
   maximum displ.:     0.0599851 α      in ANC's #1, #5, #2, ...

........................................................................
.............................. CYCLE   30 ..............................
........................................................................

 iter      E             dE          RMSdq      gap      omega  full diag
   1    -67.6514915 -0.676515E+02  0.253E-02    3.09       0.0  T
   2    -67.6514916 -0.903040E-07  0.149E-02    3.09       1.3  T
   3    -67.6514915  0.101662E-06  0.225E-03    3.09       8.7  T
   4    -67.6514916 -0.145619E-06  0.551E-04    3.09      35.6  T
   5    -67.6514916 -0.794643E-09  0.226E-04    3.09      86.8  T
     SCC iter.                  ...        0 min,  0.005 sec
     gradient                   ...        0 min,  0.003 sec
 * total energy  :   -67.0618289 Eh     change       -0.7342114E-05 Eh
   gradient norm :     0.0005782 Eh/α   predicted    -0.3022790E-05 ( -58.83%)
   displ. norm   :     0.0797925 α      lambda       -0.5907968E-05
   maximum displ.:     0.0587597 α      in ANC's #1, #5, #2, ...

........................................................................
.............................. CYCLE   31 ..............................
........................................................................

 iter      E             dE          RMSdq      gap      omega  full diag
   1    -67.6516362 -0.676516E+02  0.244E-02    3.09       0.0  T
   2    -67.6516363 -0.107987E-06  0.144E-02    3.09       1.4  T
   3    -67.6516362  0.102761E-06  0.242E-03    3.09       8.1  T
   4    -67.6516363 -0.152066E-06  0.520E-04    3.09      37.7  T
   5    -67.6516363 -0.775358E-09  0.261E-04    3.09      75.3  T
     SCC iter.                  ...        0 min,  0.005 sec
     gradient                   ...        0 min,  0.003 sec
 * total energy  :   -67.0618363 Eh     change       -0.7373682E-05 Eh
   gradient norm :     0.0005116 Eh/α   predicted    -0.2962773E-05 ( -59.82%)
   displ. norm   :     0.1048352 α      lambda       -0.7121846E-05
   maximum displ.:     0.0736677 α      in ANC's #1, #5, #3, ...

........................................................................
.............................. CYCLE   32 ..............................
........................................................................

 iter      E             dE          RMSdq      gap      omega  full diag
   1    -67.6515611 -0.676516E+02  0.299E-02    3.09       0.0  T
   2    -67.6515612 -0.166240E-06  0.176E-02    3.09       1.1  T
   3    -67.6515611  0.110576E-06  0.299E-03    3.09       6.6  T
   4    -67.6515613 -0.192322E-06  0.696E-04    3.09      28.2  T
   5    -67.6515613 -0.109522E-08  0.340E-04    3.09      57.7  T
     SCC iter.                  ...        0 min,  0.005 sec
     gradient                   ...        0 min,  0.004 sec
 * total energy  :   -67.0618451 Eh     change       -0.8823319E-05 Eh
   gradient norm :     0.0005095 Eh/α   predicted    -0.3579344E-05 ( -59.43%)
   displ. norm   :     0.1104798 α      lambda       -0.6473113E-05
   maximum displ.:     0.0756456 α      in ANC's #1, #3, #5, ...

........................................................................
.............................. CYCLE   33 ..............................
........................................................................

 iter      E             dE          RMSdq      gap      omega  full diag
   1    -67.6514176 -0.676514E+02  0.303E-02    3.09       0.0  T
   2    -67.6514178 -0.193293E-06  0.180E-02    3.10       1.1  T
   3    -67.6514176  0.175713E-06  0.386E-03    3.10       5.1  T
   4    -67.6514179 -0.278696E-06  0.769E-04    3.10      25.5  T
   5    -67.6514179 -0.123708E-08  0.393E-04    3.10      49.9  T
     SCC iter.                  ...        0 min,  0.005 sec
     gradient                   ...        0 min,  0.004 sec
 * total energy  :   -67.0618532 Eh     change       -0.8049422E-05 Eh
   gradient norm :     0.0005183 Eh/α   predicted    -0.3256673E-05 ( -59.54%)
   displ. norm   :     0.0890742 α      lambda       -0.5011272E-05
   maximum displ.:     0.0590727 α      in ANC's #1, #3, #5, ...

........................................................................
.............................. CYCLE   34 ..............................
........................................................................

 iter      E             dE          RMSdq      gap      omega  full diag
   1    -67.6513857 -0.676514E+02  0.240E-02    3.10       0.0  T
   2    -67.6513858 -0.147158E-06  0.142E-02    3.10       1.4  T
   3    -67.6513857  0.165347E-06  0.373E-03    3.10       5.3  T
   4    -67.6513859 -0.244589E-06  0.679E-04    3.10      28.9  T
   5    -67.6513859 -0.110593E-08  0.345E-04    3.10      56.9  T
     SCC iter.                  ...        0 min,  0.005 sec
     gradient                   ...        0 min,  0.003 sec
 * total energy  :   -67.0618598 Eh     change       -0.6595399E-05 Eh
   gradient norm :     0.0005148 Eh/α   predicted    -0.2519146E-05 ( -61.80%)
   displ. norm   :     0.0756901 α      lambda       -0.4924038E-05
   maximum displ.:     0.0515294 α      in ANC's #3, #1, #5, ...

........................................................................
.............................. CYCLE   35 ..............................
........................................................................

 iter      E             dE          RMSdq      gap      omega  full diag
   1    -67.6514201 -0.676514E+02  0.214E-02    3.10       0.0  T
   2    -67.6514202 -0.122168E-06  0.127E-02    3.10       1.5  T
   3    -67.6514201  0.152916E-06  0.349E-03    3.10       5.6  T
   4    -67.6514203 -0.217402E-06  0.628E-04    3.10      31.2  T
   5    -67.6514203 -0.925283E-09  0.322E-04    3.10      60.9  T
     SCC iter.                  ...        0 min,  0.005 sec
     gradient                   ...        0 min,  0.003 sec
 * total energy  :   -67.0618664 Eh     change       -0.6597648E-05 Eh
   gradient norm :     0.0004346 Eh/α   predicted    -0.2468469E-05 ( -62.59%)
   displ. norm   :     0.0847532 α      lambda       -0.5499809E-05
   maximum displ.:     0.0601406 α      in ANC's #3, #1, #2, ...

........................................................................
.............................. CYCLE   36 ..............................
........................................................................

 iter      E             dE          RMSdq      gap      omega  full diag
   1    -67.6514574 -0.676515E+02  0.248E-02    3.10       0.0  T
   2    -67.6514576 -0.145282E-06  0.147E-02    3.10       1.3  T
   3    -67.6514574  0.164912E-06  0.358E-03    3.10       5.5  T
   4    -67.6514576 -0.240661E-06  0.749E-04    3.10      26.2  T
   5    -67.6514576 -0.106108E-08  0.353E-04    3.10      55.6  T
     SCC iter.                  ...        0 min,  0.005 sec
     gradient                   ...        0 min,  0.003 sec
 * total energy  :   -67.0618735 Eh     change       -0.7166430E-05 Eh
   gradient norm :     0.0004909 Eh/α   predicted    -0.2761826E-05 ( -61.46%)
   displ. norm   :     0.0986845 α      lambda       -0.5391838E-05
   maximum displ.:     0.0712225 α      in ANC's #3, #1, #2, ...

........................................................................
.............................. CYCLE   37 ..............................
........................................................................

 iter      E             dE          RMSdq      gap      omega  full diag
   1    -67.6514390 -0.676514E+02  0.298E-02    3.10       0.0  T
   2    -67.6514392 -0.171987E-06  0.177E-02    3.10       1.1  T
   3    -67.6514390  0.174209E-06  0.365E-03    3.10       5.4  T
   4    -67.6514393 -0.265295E-06  0.854E-04    3.11      23.0  T
   5    -67.6514393 -0.121331E-08  0.409E-04    3.10      48.0  T
     SCC iter.                  ...        0 min,  0.005 sec
     gradient                   ...        0 min,  0.004 sec
 * total energy  :   -67.0618801 Eh     change       -0.6569494E-05 Eh
   gradient norm :     0.0004661 Eh/α   predicted    -0.2709035E-05 ( -58.76%)
   displ. norm   :     0.1008480 α      lambda       -0.3629569E-05
   maximum displ.:     0.0726166 α      in ANC's #3, #1, #2, ...

........................................................................
.............................. CYCLE   38 ..............................
........................................................................

 iter      E             dE          RMSdq      gap      omega  full diag
   1    -67.6514372 -0.676514E+02  0.303E-02    3.10       0.0  T
   2    -67.6514374 -0.174254E-06  0.179E-02    3.11       1.1  T
   3    -67.6514372  0.166237E-06  0.351E-03    3.11       5.6  T
   4    -67.6514375 -0.257532E-06  0.870E-04    3.11      22.5  T
   5    -67.6514375 -0.163999E-08  0.416E-04    3.11      47.1  T
     SCC iter.                  ...        0 min,  0.005 sec
     gradient                   ...        0 min,  0.004 sec
 * total energy  :   -67.0618841 Eh     change       -0.4008244E-05 Eh
   gradient norm :     0.0003793 Eh/α   predicted    -0.1823889E-05 ( -54.50%)
   displ. norm   :     0.0788031 α      lambda       -0.1447108E-05
   maximum displ.:     0.0563453 α      in ANC's #3, #1, #2, ...

   *** GEOMETRY OPTIMIZATION CONVERGED AFTER 38 ITERATIONS ***

------------------------------------------------------------------------
 total energy gain   :        -0.0774647 Eh      -48.6098 kcal/mol
 total RMSD          :         1.3162136 a0        0.6965 Å
 total power (kW/mol):        -5.3521996 (step) -426.1067 (real)
------------------------------------------------------------------------

 ANCopt (total)                0 d,  0 h,  0 min,  0.477 sec
 optimizer setup                ...        0 min,  0.000 sec (  0.022%)
 model hessian                  ...        0 min,  0.009 sec (  1.932%)
 ANC generation                 ...        0 min,  0.001 sec (  0.171%)
 coordinate transformation      ...        0 min,  0.000 sec (  0.069%)
 single point calculation       ...        0 min,  0.459 sec ( 96.209%)
 optimization log               ...        0 min,  0.003 sec (  0.600%)
 hessian update                 ...        0 min,  0.001 sec (  0.145%)
 rational function              ...        0 min,  0.003 sec (  0.574%)

================
 final structure:
================
26
 xtb: 6.7.1 (edcfbbe)
O            1.03217010881923        0.37388342438066        0.97215054799538
C            0.26340315703131        1.37362250443214        0.44301642970667
C           -0.97343890740706        1.58615668794293        1.04640165135939
C           -1.82822598833516        2.54764498222290        0.54605652581060
C           -1.46172892033553        3.30588768241398       -0.55416109826384
C           -0.23548988058034        3.08714786240394       -1.15658777274475
C            0.62798867472815        2.12304091334700       -0.66923590961077
C            2.37610906102819        0.33902013163346        0.68907643307279
C            2.95040691567852       -0.83591344065389        0.21369525097430
C            4.31909435359061       -0.91883893116903       -0.01623181682619
C            5.18355600869288        0.14798532793085        0.19530989937877
C            4.59553750632242        1.30981273493343        0.67601196307488
C            3.23172953393557        1.41095858063400        0.92850533673615
F            2.71169173541413        2.56654761886328        1.41166393835151
F            5.32748367121978        2.40503816516032        0.92968389319298
B            6.82554988788552       -0.03291409465148       -0.14273824330058
F            7.34329694176132       -1.02869736813968        0.67893799577315
F            6.96196903111843       -0.39990036508134       -1.47846705751918
F            7.52589417880671        1.14005085629156        0.07199389963260
F            4.78201391603565       -2.09182741837002       -0.47032220755412
F            2.14773860193018       -1.89777633370122       -0.02387800752250
H           -1.24041295267174        0.98727517269677        1.90308684821944
H           -2.78505784790810        2.70983886563288        1.02136508223467
H           -2.12934871019095        4.06232411689439       -0.93991723246775
H            0.05675424055297        3.66955909481431       -2.01815024328904
H            1.57940568287855        1.95167322913699       -1.15108610641677

 Bond Distances (Angstroems)
 ---------------------------
O1-C2=1.3676         O1-C8=1.3739         C2-O1=1.3676         C2-C3=1.3925         C2-C7=1.3898         C3-C2=1.3925         
C3-C4=1.3804         C3-H22=1.0788        C4-C3=1.3804         C4-C5=1.3855         C4-H23=1.0806        C5-C4=1.3855         
C5-C6=1.3836         C5-H24=1.0801        C6-C5=1.3836         C6-C7=1.3830         C6-H25=1.0802        C7-C2=1.3898         
C7-C6=1.3830         C7-H26=1.0802        C8-O1=1.3739         C8-C9=1.3915         C8-C13=1.3923        C9-C8=1.3915         
C9-C10=1.3903        C9-F21=1.3521        C10-C9=1.3903        C10-C11=1.3893       C10-F20=1.3403       C11-C10=1.3893       
C11-C12=1.3881       C11-B16=1.6862       C12-C11=1.3881       C12-C13=1.3907       C12-F15=1.3415       C13-C8=1.3923        
C13-C12=1.3907       C13-F14=1.3562       F14-C13=1.3562       F15-C12=1.3415       B16-C11=1.6862       B16-F17=1.3910       
B16-F18=1.3919       B16-F19=1.3829       F17-B16=1.3910       F18-B16=1.3919       F19-B16=1.3829       F20-C10=1.3403       
F21-C9=1.3521        H22-C3=1.0788        H23-C4=1.0806        H24-C5=1.0801        H25-C6=1.0802        H26-C7=1.0802        
 C  H  Rav=1.0800 sigma=0.0006  Rmin=1.0788  Rmax=1.0806     5
 C  B  Rav=1.6862 sigma=0.0000  Rmin=1.6862  Rmax=1.6862     1
 C  C  Rav=1.3881 sigma=0.0038  Rmin=1.3804  Rmax=1.3925    12
 O  C  Rav=1.3708 sigma=0.0031  Rmin=1.3676  Rmax=1.3739     2
 F  B  Rav=1.3886 sigma=0.0040  Rmin=1.3829  Rmax=1.3919     3
 F  C  Rav=1.3475 sigma=0.0068  Rmin=1.3403  Rmax=1.3562     4

 selected bond angles (degree)
 --------------------
C8-O1-C2=119.25                C3-C2-O1=116.31                C7-C2-O1=123.80                C7-C2-C3=119.83                
C4-C3-C2=119.95                H22-C3-C2=118.63               H22-C3-C4=121.42               C5-C4-C3=120.35                
H23-C4-C3=119.57               H23-C4-C5=120.09               C6-C5-C4=119.58                H24-C5-C4=120.22               
H24-C5-C6=120.20               C7-C6-C5=120.67                H25-C6-C5=120.12               H25-C6-C7=119.21               
C6-C7-C2=119.61                H26-C7-C2=120.17               H26-C7-C6=120.22               C9-C8-O1=119.71                
C13-C8-O1=123.11               C13-C8-C9=117.08               C10-C9-C8=120.87               F21-C9-C8=118.56               
F21-C9-C10=120.56              C11-C10-C9=122.79              F20-C10-C9=116.63              F20-C10-C11=120.58             

 selected dihedral angles (degree)
 ---------------------------------
C3-C2-O1-C8=197.61            C7-C2-O1-C8= 20.36            C4-C3-C2-O1=182.06            C4-C3-C2-C7=359.43            
H22-C3-C2-O1=  2.07           H22-C3-C2-C7=179.44           C5-C4-C3-C2=359.90            C5-C4-C3-H22=179.89           
H23-C4-C3-C2=180.22           H23-C4-C3-H22=  0.21          C6-C5-C4-C3=  0.48            C6-C5-C4-H23=180.16           
H24-C5-C4-C3=180.42           H24-C5-C4-H23=  0.09          C7-C6-C5-C4=359.81            C7-C6-C5-H24=179.87           
H25-C6-C5-C4=179.66           H25-C6-C5-H24=359.73          C6-C7-C2-O1=178.01            C6-C7-C2-C3=  0.86            
H26-C7-C2-O1=358.14           H26-C7-C2-C3=180.98           C2-C7-C6-C5=359.52            C2-C7-C6-H25=179.67           
H26-C7-C6-C5=179.40           H26-C7-C6-H25=359.54          C9-C8-O1-C2=231.20            C13-C8-O1-C2= 55.14           
C10-C9-C8-O1=183.29           C10-C9-C8-C13=359.58          F21-C9-C8-O1=  3.44           F21-C9-C8-C13=179.73          
C11-C10-C9-C8=359.30          C11-C10-C9-F21=179.14         F20-C10-C9-C8=179.81          F20-C10-C9-F21=359.66         
           -------------------------------------------------
          |                Final Singlepoint                |
           -------------------------------------------------

          ...................................................
          :                      SETUP                      :
          :.................................................:
          :  # basis functions                  89          :
          :  # atomic orbitals                  89          :
          :  # shells                           47          :
          :  # electrons                       112          :
          :  max. iterations                   250          :
          :  Hamiltonian                  GFN2-xTB          :
          :  restarted?                      false          :
          :  GBSA solvation                  false          :
          :  PC potential                    false          :
          :  electronic temp.          300.0000000     K    :
          :  accuracy                    1.0000000          :
          :  -> integral cutoff          0.2500000E+02      :
          :  -> integral neglect         0.1000000E-07      :
          :  -> SCF convergence          0.1000000E-05 Eh   :
          :  -> wf. convergence          0.1000000E-03 e    :
          :  Broyden damping             0.4000000          :
          :  net charge                         -1          :
          :  unpaired electrons                  0          :
          ...................................................

 iter      E             dE          RMSdq      gap      omega  full diag
   1    -67.6514375 -0.676514E+02  0.161E-04    3.11       0.0  T
   2    -67.6514375 -0.136396E-09  0.100E-04    3.11     195.5  T
   3    -67.6514375 -0.106965E-09  0.631E-05    3.11     310.8  T

   *** convergence criteria satisfied after 3 iterations ***

         #    Occupation            Energy/Eh            Energy/eV
      -------------------------------------------------------------
         1        2.0000           -0.7389764             -20.1086
       ...           ...                  ...                  ...
        50        2.0000           -0.3097837              -8.4296
        51        2.0000           -0.3067137              -8.3461
        52        2.0000           -0.3028827              -8.2419
        53        2.0000           -0.2989754              -8.1355
        54        2.0000           -0.2968956              -8.0789
        55        2.0000           -0.2961273              -8.0580
        56        2.0000           -0.2730667              -7.4305 (HOMO)
        57                         -0.1589014              -4.3239 (LUMO)
        58                         -0.1584924              -4.3128
        59                         -0.1493089              -4.0629
        60                         -0.1424021              -3.8750
        61                         -0.0270816              -0.7369
       ...                                ...                  ...
        89                          0.7384498              20.0942
      -------------------------------------------------------------
                  HL-Gap            0.1141653 Eh            3.1066 eV
             Fermi-level           -0.2159841 Eh           -5.8772 eV

 SCC (total)                   0 d,  0 h,  0 min,  0.009 sec
 SCC setup                      ...        0 min,  0.000 sec (  0.837%)
 Dispersion                     ...        0 min,  0.000 sec (  1.131%)
 classical contributions        ...        0 min,  0.000 sec (  0.188%)
 integral evaluation            ...        0 min,  0.001 sec ( 14.744%)
 iterations                     ...        0 min,  0.004 sec ( 42.070%)
 molecular gradient             ...        0 min,  0.003 sec ( 39.872%)
 printout                       ...        0 min,  0.000 sec (  0.984%)

         :::::::::::::::::::::::::::::::::::::::::::::::::::::
         ::                     SUMMARY                     ::
         :::::::::::::::::::::::::::::::::::::::::::::::::::::
         :: total energy             -67.061884123152 Eh    ::
         :: gradient norm              0.000380634294 Eh/a0 ::
         :: HOMO-LUMO gap              3.106596028377 eV    ::
         ::.................................................::
         :: SCC energy               -67.651447582457 Eh    ::
         :: -> isotropic ES            0.229054128735 Eh    ::
         :: -> anisotropic ES          0.004094153449 Eh    ::
         :: -> anisotropic XC         -0.018141743887 Eh    ::
         :: -> dispersion             -0.027905909770 Eh    ::
         :: repulsion energy           0.589563459305 Eh    ::
         :: add. restraining           0.000000000000 Eh    ::
         :: total charge              -1.000000000000 e     ::
         :::::::::::::::::::::::::::::::::::::::::::::::::::::

           -------------------------------------------------
          |                Property Printout                |
           -------------------------------------------------

    * Orbital Energies and Occupations

         #    Occupation            Energy/Eh            Energy/eV
      -------------------------------------------------------------
         1        2.0000           -0.7389764             -20.1086
       ...           ...                  ...                  ...
        44        2.0000           -0.3501531              -9.5282
        45        2.0000           -0.3478550              -9.4656
        46        2.0000           -0.3440406              -9.3618
        47        2.0000           -0.3406176              -9.2687
        48        2.0000           -0.3255605              -8.8590
        49        2.0000           -0.3124256              -8.5015
        50        2.0000           -0.3097837              -8.4296
        51        2.0000           -0.3067137              -8.3461
        52        2.0000           -0.3028827              -8.2419
        53        2.0000           -0.2989754              -8.1355
        54        2.0000           -0.2968956              -8.0789
        55        2.0000           -0.2961273              -8.0580
        56        2.0000           -0.2730667              -7.4305 (HOMO)
        57                         -0.1589014              -4.3239 (LUMO)
        58                         -0.1584924              -4.3128
        59                         -0.1493089              -4.0629
        60                         -0.1424021              -3.8750
        61                         -0.0270816              -0.7369
        62                         -0.0198646              -0.5405
        63                          0.0760760               2.0701
        64                          0.1092678               2.9733
        65                          0.1398617               3.8058
        66                          0.1559401               4.2433
        67                          0.1881815               5.1207
       ...                                ...                  ...
        89                          0.7384498              20.0942
      -------------------------------------------------------------
                  HL-Gap            0.1141653 Eh            3.1066 eV
             Fermi-level           -0.2159841 Eh           -5.8772 eV

     #   Z          covCN         q      C6AA      α(0)
     1   8 O        1.708    -0.234    17.886     5.710
     2   6 C        2.873     0.153    24.680     8.144
     3   6 C        2.920    -0.052    29.290     8.875
     4   6 C        2.921    -0.031    28.769     8.796
     5   6 C        2.919    -0.042    29.051     8.839
     6   6 C        2.922    -0.029    28.713     8.787
     7   6 C        2.917    -0.052    29.290     8.875
     8   6 C        2.867     0.098    25.823     8.330
     9   6 C        2.780     0.114    25.467     8.266
    10   6 C        2.790     0.150    24.723     8.145
    11   6 C        2.856    -0.118    30.978     9.123
    12   6 C        2.789     0.147    24.795     8.157
    13   6 C        2.780     0.109    25.568     8.282
    14   9 F        0.786    -0.211    11.346     3.979
    15   9 F        0.788    -0.183    11.066     3.929
    16   5 B        3.036     0.597    13.526     6.134
    17   9 F        0.721    -0.403    13.573     4.351
    18   9 F        0.721    -0.404    13.584     4.352
    19   9 F        0.721    -0.398    13.505     4.340
    20   9 F        0.788    -0.180    11.035     3.924
    21   9 F        0.786    -0.203    11.263     3.964
    22   1 H        0.926     0.045     2.379     2.412
    23   1 H        0.926     0.028     2.611     2.527
    24   1 H        0.926     0.025     2.658     2.549
    25   1 H        0.926     0.033     2.545     2.495
    26   1 H        0.926     0.040     2.454     2.450

 Mol. C6AA /au·bohr⁶  :      10428.566818
 Mol. C8AA /au·bohr⁸  :     254216.759474
 Mol. α(0) /au        :        155.733370


Wiberg/Mayer (AO) data.
largest (>0.10) Wiberg bond orders for each atom

 ---------------------------------------------------------------------------
     #   Z sym  total        # sym  WBO       # sym  WBO       # sym  WBO
 ---------------------------------------------------------------------------
     1   8 O    2.297 --     2 C    1.030     8 C    1.021
     2   6 C    3.929 --     7 C    1.377     3 C    1.361     1 O    1.030
     3   6 C    3.987 --     4 C    1.460     2 C    1.361    22 H    0.969
                             6 C    0.108
     4   6 C    3.992 --     3 C    1.460     5 C    1.427    23 H    0.971
                             7 C    0.106
     5   6 C    3.989 --     6 C    1.439     4 C    1.427    24 H    0.972
     6   6 C    3.992 --     7 C    1.446     5 C    1.439    25 H    0.971
                             3 C    0.108
     7   6 C    3.990 --     6 C    1.446     2 C    1.377    26 H    0.966
                             4 C    0.106
     8   6 C    3.939 --     9 C    1.339    13 C    1.338     1 O    1.021
     9   6 C    3.884 --    10 C    1.348     8 C    1.339    21 F    0.967
    10   6 C    3.897 --    11 C    1.374     9 C    1.348    20 F    0.991
    11   6 C    3.839 --    12 C    1.377    10 C    1.374    16 B    0.772
    12   6 C    3.896 --    11 C    1.377    13 C    1.347    15 F    0.988
    13   6 C    3.882 --    12 C    1.347     8 C    1.338    14 F    0.960
    14   9 F    1.090 --    13 C    0.960
    15   9 F    1.130 --    12 C    0.988
    16   5 B    3.323 --    19 F    0.849    17 F    0.836    18 F    0.835
                            11 C    0.772
    17   9 F    0.925 --    16 B    0.836
    18   9 F    0.923 --    16 B    0.835
    19   9 F    0.932 --    16 B    0.849
    20   9 F    1.134 --    10 C    0.991
    21   9 F    1.098 --     9 C    0.967
    22   1 H    0.998 --     3 C    0.969
    23   1 H    0.999 --     4 C    0.971
    24   1 H    0.999 --     5 C    0.972
    25   1 H    0.999 --     6 C    0.971
    26   1 H    0.998 --     7 C    0.966
 ---------------------------------------------------------------------------

Topologies differ in total number of bonds
Writing topology from bond orders to xtbtopo.mol

molecular dipole:
                 x           y           z       tot (Debye)
 q only:      -11.502       0.108      -0.116
   full:      -11.768       0.172      -0.078      29.916
molecular quadrupole (traceless):
                xx          xy          yy          xz          yz          zz
 q only:     -141.811      -0.430      63.739       3.076      -6.456      78.073
  q+dip:     -146.749      -1.130      63.528       2.019      -9.629      83.220
   full:     -148.611      -0.321      64.190       3.612      -8.689      84.421

           -------------------------------------------------
          |                Geometry Summary                 |
           -------------------------------------------------

      molecular mass/u    :      308.9677896
   center of mass at/Å    :        3.2808779       0.7061307       0.2013636
  moments of inertia/u·Å² :        0.7636208E+03   0.3042882E+04   0.3444203E+04
rotational constants/cm⁻¹ :        0.2207592E-01   0.5540022E-02   0.4894494E-02

 * 23 selected distances

     #   Z          #   Z                                           value/Å
     1   8 O        2   6 C                                       1.3676491
     2   6 C        3   6 C                                       1.3924881 (max)
     3   6 C        4   6 C                                       1.3803863
     4   6 C        5   6 C                                       1.3855437
     5   6 C        6   6 C                                       1.3836284
     2   6 C        7   6 C                                       1.3898403
     6   6 C        7   6 C                                       1.3829713
     1   8 O        8   6 C                                       1.3738700
     8   6 C        9   6 C                                       1.3915008
     9   6 C       10   6 C                                       1.3903412
    10   6 C       11   6 C                                       1.3893013
    11   6 C       12   6 C                                       1.3880503
     8   6 C       13   6 C                                       1.3922877
    12   6 C       13   6 C                                       1.3906674
    16   5 B       17   9 F                                       1.3909704
    16   5 B       18   9 F                                       1.3919271
    16   5 B       19   9 F                                       1.3829097
    10   6 C       20   9 F                                       1.3402966
     3   6 C       22   1 H                                       1.0788160 (min)
     4   6 C       23   1 H                                       1.0806260
     5   6 C       24   1 H                                       1.0801483
     6   6 C       25   1 H                                       1.0802313
     7   6 C       26   1 H                                       1.0801579

 * 5 distinct bonds (by element types)

   Z      Z             #   av. dist./Å        max./Å        min./Å
   1 H    6 C           5     1.0799959     1.0806260     1.0788160
   6 C    6 C          12     1.3880839     1.3924881     1.3803863
   6 C    8 O           2     1.3707595     1.3738700     1.3676491
   5 B    9 F           3     1.3886024     1.3919271     1.3829097
   6 C    9 F           1     1.3402966     1.3402966     1.3402966


optimized geometry written to: xtbopt.xyz


           -------------------------------------------------
          | TOTAL ENERGY              -67.061884123152 Eh   |
          | GRADIENT NORM               0.000380634294 Eh/α |
          | HOMO-LUMO GAP               3.106596028377 eV   |
           -------------------------------------------------

------------------------------------------------------------------------
 * finished run on 2024/12/20 at 01:54:50.825     
------------------------------------------------------------------------
 total:
 * wall-time:     0 d,  0 h,  0 min,  0.524 sec
 *  cpu-time:     0 d,  0 h,  0 min,  4.167 sec
 * ratio c/w:     7.946 speedup
 SCF:
 * wall-time:     0 d,  0 h,  0 min,  0.021 sec
 *  cpu-time:     0 d,  0 h,  0 min,  0.169 sec
 * ratio c/w:     7.943 speedup
 ANC optimizer:
 * wall-time:     0 d,  0 h,  0 min,  0.487 sec
 *  cpu-time:     0 d,  0 h,  0 min,  3.880 sec
 * ratio c/w:     7.970 speedup

