      -----------------------------------------------------------      
     |                   =====================                   |     
     |                           x T B                           |     
     |                   =====================                   |     
     |                         S. Grimme                         |     
     |          Mulliken Center for Theoretical Chemistry        |     
     |                    University of Bonn                     |     
      -----------------------------------------------------------      

   * xtb version 6.7.1 (edcfbbe) compiled by 'conda@3ef47c1a292c' on 2024-11-25

   xtb is free software: you can redistribute it and/or modify it under
   the terms of the GNU Lesser General Public License as published by
   the Free Software Foundation, either version 3 of the License, or
   (at your option) any later version.
   
   xtb is distributed in the hope that it will be useful,
   but WITHOUT ANY WARRANTY; without even the implied warranty of
   MERCHANTABILITY or FITNESS FOR A PARTICULAR PURPOSE.  See the
   GNU Lesser General Public License for more details.
   
   Cite this work as:
   * C. Bannwarth, E. Caldeweyher, S. Ehlert, A. Hansen, P. Pracht,
     J. Seibert, S. Spicher, S. Grimme, WIREs Comput. Mol. Sci., 2020, 11,
     e01493. DOI: 10.1002/wcms.1493
   
   for GFN2-xTB:
   * C. Bannwarth, S. Ehlert and S. Grimme., J. Chem. Theory Comput., 2019,
     15, 1652-1671. DOI: 10.1021/acs.jctc.8b01176
   for GFN1-xTB:
   * S. Grimme, C. Bannwarth, P. Shushkov, J. Chem. Theory Comput., 2017,
     13, 1989-2009. DOI: 10.1021/acs.jctc.7b00118
   for GFN0-xTB:
   * P. Pracht, E. Caldeweyher, S. Ehlert, S. Grimme, ChemRxiv, 2019, preprint.
     DOI: 10.26434/chemrxiv.8326202.v1
   for GFN-FF:
   * S. Spicher and S. Grimme, Angew. Chem. Int. Ed., 2020, 59, 15665-15673.
     DOI: 10.1002/anie.202004239
   
   for ALPB and GBSA implicit solvation:
   * S. Ehlert, M. Stahn, S. Spicher, S. Grimme, J. Chem. Theory Comput.,
     2021, 17, 4250-4261. DOI: 10.1021/acs.jctc.1c00471
   
   for ddCOSMO and CPCM-X implicit solvation:
   * M. Stahn, S. Ehlert, S. Grimme, J. Phys. Chem. A,
     2023, XX, XXXX-XXXX. DOI: 10.1021/acs.jpca.3c04382
   
   for DFT-D4:
   * E. Caldeweyher, C. Bannwarth and S. Grimme, J. Chem. Phys., 2017,
     147, 034112. DOI: 10.1063/1.4993215
   * E. Caldeweyher, S. Ehlert, A. Hansen, H. Neugebauer, S. Spicher,
     C. Bannwarth and S. Grimme, J. Chem. Phys., 2019, 150, 154122.
     DOI: 10.1063/1.5090222
   * E. Caldeweyher, J.-M. Mewes, S. Ehlert and S. Grimme, Phys. Chem. Chem. Phys.
     2020, 22, 8499-8512. DOI: 10.1039/D0CP00502A
   
   for sTDA-xTB:
   * S. Grimme and C. Bannwarth, J. Chem. Phys., 2016, 145, 054103.
     DOI: 10.1063/1.4959605
   
   in the mass-spec context:
   * V. Asgeirsson, C. Bauer and S. Grimme, Chem. Sci., 2017, 8, 4879.
     DOI: 10.1039/c7sc00601b
   * J. Koopman and S. Grimme, ACS Omega 2019, 4, 12, 15120-15133.
     DOI: 10.1021/acsomega.9b02011
   
   for metadynamics refer to:
   * S. Grimme, J. Chem. Theory Comput., 2019, 155, 2847-2862
     DOI: 10.1021/acs.jctc.9b00143
   
   for SPH calculations refer to:
   * S. Spicher and S. Grimme, J. Chem. Theory Comput., 2021, 17, 1701-1714
     DOI: 10.1021/acs.jctc.0c01306
   
   for ONIOM refer to:
   * C. Plett, A. Katbashev, S. Ehlert, S. Grimme, M. Bursch,
     Phys. Chem. Chem. Phys., 2023, 25, 17860-17868. DOI: 10.1039/D3CP02178E
   
   for DIPRO refer to:
   * J. Kohn, N. Gildemeister, S. Grimme, D. Fazzi, A. Hansen,
     J. Chem. Phys., 2023, just accepted.
   
   for PTB refer to:
   * S. Grimme, M. Mueller, A. Hansen, J. Chem. Phys., 2023, 158, 124111.
     DOI: 10.1063/5.0137838
   
   with help from (in alphabetical order)
   P. Atkinson, C. Bannwarth, F. Bohle, G. Brandenburg, E. Caldeweyher
   M. Checinski, S. Dohm, S. Ehlert, S. Ehrlich, I. Gerasimov, C. Hölzer
   A. Katbashev, J. Kohn, J. Koopman, C. Lavigne, S. Lehtola, F. März, M. Müller,
   F. Musil, H. Neugebauer, J. Pisarek, C. Plett, P. Pracht, F. Pultar,
   J. Seibert, P. Shushkov, S. Spicher, M. Stahn, M. Steiner, T. Strunk,
   J. Stückrath, T. Rose, and J. Unsleber
   
 * started run on 2024/12/20 at 01:54:51.043     
   ID    Z sym.   atoms
    1    9 F      1, 12-23
    2    6 C      2-7
    3   16 S      8
    4    8 O      9-11

           -------------------------------------------------
          |                Calculation Setup                |
           -------------------------------------------------

          program call               : xtb A141.xyz --opt --namespace A141 --charge -1
          calculation namespace      : A141
          coordinate file            : A141.xyz
          omp threads                :                     8


           -------------------------------------------------
          |                 G F N 2 - x T B                 |
           -------------------------------------------------

        Reference                      10.1021/acs.jctc.8b01176
      * Hamiltonian:
        H0-scaling (s, p, d)           1.850000    2.230000    2.230000
        zeta-weighting                 0.500000
      * Dispersion:
        s8                             2.700000
        a1                             0.520000
        a2                             5.000000
        s9                             5.000000
      * Repulsion:
        kExp                           1.500000    1.000000
        rExp                           1.000000
      * Coulomb:
        alpha                          2.000000
        third order                    shell-resolved
        anisotropic                    true
        a3                             3.000000
        a5                             4.000000
        cn-shift                       1.200000
        cn-exp                         4.000000
        max-rad                        5.000000


          ...................................................
          :                      SETUP                      :
          :.................................................:
          :  # basis functions                  98          :
          :  # atomic orbitals                  97          :
          :  # shells                           47          :
          :  # electrons                       140          :
          :  max. iterations                   250          :
          :  Hamiltonian                  GFN2-xTB          :
          :  restarted?                      false          :
          :  GBSA solvation                  false          :
          :  PC potential                    false          :
          :  electronic temp.          300.0000000     K    :
          :  accuracy                    1.0000000          :
          :  -> integral cutoff          0.2500000E+02      :
          :  -> integral neglect         0.1000000E-07      :
          :  -> SCF convergence          0.1000000E-05 Eh   :
          :  -> wf. convergence          0.1000000E-03 e    :
          :  Broyden damping             0.4000000          :
          :  net charge                         -1          :
          :  unpaired electrons                  0          :
          ...................................................

 iter      E             dE          RMSdq      gap      omega  full diag
   1    -90.0582158 -0.900582E+02  0.669E+00    8.56       0.0  T
   2    -90.2521621 -0.193946E+00  0.398E+00    7.78       1.0  T
   3    -90.2654192 -0.132570E-01  0.189E+00    6.95       1.0  T
   4    -90.2734875 -0.806835E-02  0.418E-01    5.69       1.0  T
   5    -90.2740751 -0.587642E-03  0.247E-01    5.69       1.0  T
   6    -90.2742697 -0.194565E-03  0.123E-01    5.80       1.0  T
   7    -90.2743162 -0.464950E-04  0.438E-02    5.84       1.0  T
   8    -90.2743226 -0.639701E-05  0.248E-02    5.83       1.0  T
   9    -90.2743251 -0.252335E-05  0.508E-03    5.84       4.1  T
  10    -90.2743252 -0.108919E-06  0.210E-03    5.83       9.9  T
  11    -90.2743252 -0.586765E-08  0.581E-04    5.83      35.9  T
  12    -90.2743252 -0.150774E-08  0.193E-04    5.83     107.9  T

   *** convergence criteria satisfied after 12 iterations ***

         #    Occupation            Energy/Eh            Energy/eV
      -------------------------------------------------------------
         1        2.0000           -0.8617293             -23.4488
       ...           ...                  ...                  ...
        64        2.0000           -0.3844489             -10.4614
        65        2.0000           -0.3203214              -8.7164
        66        2.0000           -0.3184064              -8.6643
        67        2.0000           -0.3045509              -8.2873
        68        2.0000           -0.2989787              -8.1356
        69        2.0000           -0.2980204              -8.1095
        70        2.0000           -0.2853724              -7.7654 (HOMO)
        71                         -0.0710053              -1.9322 (LUMO)
        72                         -0.0552819              -1.5043
        73                         -0.0420518              -1.1443
        74                         -0.0212950              -0.5795
        75                         -0.0037093              -0.1009
       ...                                ...                  ...
        97                          1.2779121              34.7738
      -------------------------------------------------------------
                  HL-Gap            0.2143670 Eh            5.8332 eV
             Fermi-level           -0.1781889 Eh           -4.8488 eV

 SCC (total)                   0 d,  0 h,  0 min,  0.024 sec
 SCC setup                      ...        0 min,  0.000 sec (  0.612%)
 Dispersion                     ...        0 min,  0.000 sec (  0.611%)
 classical contributions        ...        0 min,  0.000 sec (  0.180%)
 integral evaluation            ...        0 min,  0.003 sec ( 12.522%)
 iterations                     ...        0 min,  0.017 sec ( 69.906%)
 molecular gradient             ...        0 min,  0.004 sec ( 15.538%)
 printout                       ...        0 min,  0.000 sec (  0.563%)

         :::::::::::::::::::::::::::::::::::::::::::::::::::::
         ::                     SUMMARY                     ::
         :::::::::::::::::::::::::::::::::::::::::::::::::::::
         :: total energy             -90.030690942733 Eh    ::
         :: gradient norm              0.131762319839 Eh/a0 ::
         :: HOMO-LUMO gap              5.833224313521 eV    ::
         ::.................................................::
         :: SCC energy               -90.274095985657 Eh    ::
         :: -> isotropic ES            0.341426760375 Eh    ::
         :: -> anisotropic ES         -0.005383526131 Eh    ::
         :: -> anisotropic XC         -0.089982174578 Eh    ::
         :: -> dispersion             -0.028942712477 Eh    ::
         :: repulsion energy           0.243405042923 Eh    ::
         :: add. restraining           0.000000000000 Eh    ::
         :: total charge              -1.000000000000 e     ::
         :::::::::::::::::::::::::::::::::::::::::::::::::::::

      ----------------------------------------------------------- 
     |                   =====================                   |
     |                        A N C O P T                        |
     |                   =====================                   |
     |               Approximate Normal Coordinate               |
     |                Rational Function Optimizer                |
      ----------------------------------------------------------- 
      ----------------------------------------------------------- 
     |                   =====================                   |
     |                        A N C O P T                        |
     |                   =====================                   |
     |               Approximate Normal Coordinate               |
     |                Rational Function Optimizer                |
      ----------------------------------------------------------- 

          ...................................................
          :                      SETUP                      :
          :.................................................:
          :   optimization level            normal          :
          :   max. optcycles                   200          :
          :   ANC micro-cycles                  20          :
          :   degrees of freedom                63          :
          :.................................................:
          :   RF solver                   davidson          :
          :   write xtbopt.log                true          :
          :   linear?                        false          :
          :   energy convergence         0.5000000E-05 Eh   :
          :   grad. convergence          0.1000000E-02 Eh/α :
          :   maxmium RF displ.          1.0000000          :
          :   Hlow (freq-cutoff)         0.1000000E-01      :
          :   Hmax (freq-cutoff)         5.0000000          :
          :   S6 in model hess.         20.0000000          :
          ...................................................

generating ANC from exact Hessian ...
Using Lindh-Hessian (1995)
 Shifting diagonal of input Hessian by    6.8450274861024778E-003
 Lowest  eigenvalues of input Hessian
    0.000000    0.000000    0.000000    0.000000    0.000000    0.000000
    0.010000    0.010255    0.013197    0.014998    0.019121    0.024589
    0.028353    0.031915    0.040499    0.040690    0.051753    0.062418
 Highest eigenvalues
    1.630739    1.679090    1.737978    1.791824    3.350905    3.370638


........................................................................
.............................. CYCLE    1 ..............................
........................................................................

 iter      E             dE          RMSdq      gap      omega  full diag
   1    -90.2743252 -0.902743E+02  0.538E-05    5.83       0.0  T
   2    -90.2743252 -0.794387E-11  0.343E-05    5.83     608.5  T
   3    -90.2743252 -0.208900E-11  0.156E-05    5.83    1339.7  T
     SCC iter.                  ...        0 min,  0.004 sec
     gradient                   ...        0 min,  0.004 sec
 * total energy  :   -90.0306909 Eh     change       -0.1074625E-09 Eh
   gradient norm :     0.1317617 Eh/α   predicted     0.0000000E+00 (-100.00%)
   displ. norm   :     0.3070260 α      lambda       -0.1645074E-01
   maximum displ.:     0.1622239 α      in ANC's #4, #7, #6, ...

........................................................................
.............................. CYCLE    2 ..............................
........................................................................

 iter      E             dE          RMSdq      gap      omega  full diag
   1    -90.2939300 -0.902939E+02  0.260E-01    6.40       0.0  T
   2    -90.2940166 -0.866127E-04  0.169E-01    6.46       1.0  T
   3    -90.2940185 -0.184476E-05  0.511E-02    6.48       1.0  T
   4    -90.2940289 -0.103777E-04  0.187E-02    6.50       1.1  T
   5    -90.2940298 -0.924972E-06  0.685E-03    6.49       3.0  T
   6    -90.2940299 -0.860593E-07  0.245E-03    6.49       8.5  T
   7    -90.2940299 -0.163792E-07  0.101E-03    6.49      20.7  T
   8    -90.2940299 -0.350167E-08  0.598E-04    6.49      34.9  T
   9    -90.2940299 -0.142380E-08  0.170E-04    6.49     122.8  T
     SCC iter.                  ...        0 min,  0.011 sec
     gradient                   ...        0 min,  0.004 sec
 * total energy  :   -90.0430648 Eh     change       -0.1237390E-01 Eh
   gradient norm :     0.0752280 Eh/α   predicted    -0.9005680E-02 ( -27.22%)
   displ. norm   :     0.2760149 α      lambda       -0.9473565E-02
   maximum displ.:     0.1633229 α      in ANC's #4, #6, #7, ...

........................................................................
.............................. CYCLE    3 ..............................
........................................................................

 iter      E             dE          RMSdq      gap      omega  full diag
   1    -90.3104879 -0.903105E+02  0.267E-01    6.76       0.0  T
   2    -90.3106290 -0.141107E-03  0.194E-01    6.84       1.0  T
   3    -90.3106386 -0.962610E-05  0.730E-02    6.87       1.0  T
   4    -90.3106527 -0.140609E-04  0.195E-02    6.89       1.1  T
   5    -90.3106535 -0.808385E-06  0.780E-03    6.88       2.7  T
   6    -90.3106536 -0.100785E-06  0.281E-03    6.88       7.4  T
   7    -90.3106536 -0.247876E-07  0.968E-04    6.88      21.5  T
   8    -90.3106536 -0.328231E-08  0.631E-04    6.88      33.0  T
     SCC iter.                  ...        0 min,  0.010 sec
     gradient                   ...        0 min,  0.004 sec
 * total energy  :   -90.0486236 Eh     change       -0.5558710E-02 Eh
   gradient norm :     0.0154395 Eh/α   predicted    -0.5097657E-02 (  -8.29%)
   displ. norm   :     0.2093849 α      lambda       -0.1091263E-02
   maximum displ.:     0.1529621 α      in ANC's #4, #7, #6, ...

........................................................................
.............................. CYCLE    4 ..............................
........................................................................

 iter      E             dE          RMSdq      gap      omega  full diag
   1    -90.3114594 -0.903115E+02  0.877E-02    6.79       0.0  T
   2    -90.3114842 -0.248521E-04  0.672E-02    6.82       1.0  T
   3    -90.3114883 -0.409506E-05  0.326E-02    6.83       1.0  T
   4    -90.3114892 -0.920228E-06  0.838E-03    6.84       2.5  T
   5    -90.3114893 -0.976197E-07  0.293E-03    6.83       7.1  T
   6    -90.3114893 -0.169533E-07  0.951E-04    6.83      21.9  T
   7    -90.3114893 -0.278861E-08  0.309E-04    6.83      67.4  T
     SCC iter.                  ...        0 min,  0.009 sec
     gradient                   ...        0 min,  0.004 sec
 * total energy  :   -90.0494028 Eh     change       -0.7792363E-03 Eh
   gradient norm :     0.0087533 Eh/α   predicted    -0.5695542E-03 ( -26.91%)
   displ. norm   :     0.2296678 α      lambda       -0.5575628E-03
   maximum displ.:     0.1596432 α      in ANC's #4, #2, #1, ...

........................................................................
.............................. CYCLE    5 ..............................
........................................................................

 iter      E             dE          RMSdq      gap      omega  full diag
   1    -90.3101472 -0.903101E+02  0.849E-02    6.76       0.0  T
   2    -90.3101659 -0.187850E-04  0.567E-02    6.78       1.0  T
   3    -90.3101687 -0.276149E-05  0.247E-02    6.78       1.0  T
   4    -90.3101699 -0.115483E-05  0.846E-03    6.79       2.5  T
   5    -90.3101700 -0.995623E-07  0.261E-03    6.79       8.0  T
   6    -90.3101700 -0.140387E-07  0.845E-04    6.79      24.7  T
   7    -90.3101700 -0.209155E-08  0.287E-04    6.79      72.7  T
     SCC iter.                  ...        0 min,  0.009 sec
     gradient                   ...        0 min,  0.004 sec
 * total energy  :   -90.0497498 Eh     change       -0.3469703E-03 Eh
   gradient norm :     0.0069533 Eh/α   predicted    -0.2934942E-03 ( -15.41%)
   displ. norm   :     0.1166648 α      lambda       -0.1290285E-03
   maximum displ.:     0.0673466 α      in ANC's #4, #2, #1, ...

........................................................................
.............................. CYCLE    6 ..............................
........................................................................

 iter      E             dE          RMSdq      gap      omega  full diag
   1    -90.3100126 -0.903100E+02  0.415E-02    6.79       0.0  T
   2    -90.3100147 -0.212448E-05  0.238E-02    6.79       1.0  T
   3    -90.3100149 -0.207323E-06  0.812E-03    6.79       2.6  T
   4    -90.3100152 -0.324960E-06  0.369E-03    6.79       5.6  T
   5    -90.3100153 -0.140612E-07  0.796E-04    6.79      26.2  T
   6    -90.3100153 -0.235417E-08  0.258E-04    6.79      80.8  T
     SCC iter.                  ...        0 min,  0.007 sec
     gradient                   ...        0 min,  0.004 sec
 * total energy  :   -90.0498460 Eh     change       -0.9625017E-04 Eh
   gradient norm :     0.0056643 Eh/α   predicted    -0.6539517E-04 ( -32.06%)
   displ. norm   :     0.1349286 α      lambda       -0.1244674E-03
   maximum displ.:     0.0847231 α      in ANC's #2, #4, #3, ...

........................................................................
.............................. CYCLE    7 ..............................
........................................................................

 iter      E             dE          RMSdq      gap      omega  full diag
   1    -90.3104859 -0.903105E+02  0.463E-02    6.81       0.0  T
   2    -90.3104877 -0.176885E-05  0.251E-02    6.81       1.0  T
   3    -90.3104881 -0.402147E-06  0.685E-03    6.81       3.0  T
   4    -90.3104882 -0.103668E-06  0.356E-03    6.81       5.9  T
   5    -90.3104882 -0.234005E-07  0.517E-04    6.81      40.3  T
   6    -90.3104882 -0.214894E-08  0.170E-04    6.81     122.7  T
     SCC iter.                  ...        0 min,  0.007 sec
     gradient                   ...        0 min,  0.004 sec
 * total energy  :   -90.0499363 Eh     change       -0.9025879E-04 Eh
   gradient norm :     0.0040680 Eh/α   predicted    -0.6342484E-04 ( -29.73%)
   displ. norm   :     0.1359655 α      lambda       -0.9452559E-04
   maximum displ.:     0.0958377 α      in ANC's #2, #3, #1, ...

........................................................................
.............................. CYCLE    8 ..............................
........................................................................

 iter      E             dE          RMSdq      gap      omega  full diag
   1    -90.3110871 -0.903111E+02  0.447E-02    6.84       0.0  T
   2    -90.3110889 -0.180841E-05  0.239E-02    6.83       1.0  T
   3    -90.3110894 -0.432238E-06  0.765E-03    6.83       2.7  T
   4    -90.3110895 -0.130009E-06  0.394E-03    6.83       5.3  T
   5    -90.3110895 -0.322438E-07  0.693E-04    6.83      30.1  T
   6    -90.3110895 -0.270751E-08  0.196E-04    6.83     106.3  T
     SCC iter.                  ...        0 min,  0.007 sec
     gradient                   ...        0 min,  0.004 sec
 * total energy  :   -90.0500093 Eh     change       -0.7298920E-04 Eh
   gradient norm :     0.0039439 Eh/α   predicted    -0.4813888E-04 ( -34.05%)
   displ. norm   :     0.1754070 α      lambda       -0.1058602E-03
   maximum displ.:     0.1280852 α      in ANC's #2, #5, #3, ...

........................................................................
.............................. CYCLE    9 ..............................
........................................................................

 iter      E             dE          RMSdq      gap      omega  full diag
   1    -90.3115943 -0.903116E+02  0.565E-02    6.85       0.0  T
   2    -90.3115975 -0.319376E-05  0.299E-02    6.85       1.0  T
   3    -90.3115982 -0.718758E-06  0.111E-02    6.84       1.9  T
   4    -90.3115985 -0.313522E-06  0.525E-03    6.84       4.0  T
   5    -90.3115986 -0.608126E-07  0.901E-04    6.84      23.2  T
   6    -90.3115986 -0.282986E-08  0.285E-04    6.84      73.1  T
     SCC iter.                  ...        0 min,  0.007 sec
     gradient                   ...        0 min,  0.004 sec
 * total energy  :   -90.0500903 Eh     change       -0.8104119E-04 Eh
   gradient norm :     0.0044756 Eh/α   predicted    -0.5456330E-04 ( -32.67%)
   displ. norm   :     0.1941088 α      lambda       -0.1024575E-03
   maximum displ.:     0.1460949 α      in ANC's #2, #5, #3, ...

........................................................................
.............................. CYCLE   10 ..............................
........................................................................

 iter      E             dE          RMSdq      gap      omega  full diag
   1    -90.3118538 -0.903119E+02  0.618E-02    6.85       0.0  T
   2    -90.3118574 -0.361428E-05  0.322E-02    6.85       1.0  T
   3    -90.3118583 -0.857284E-06  0.121E-02    6.84       1.7  T
   4    -90.3118586 -0.354422E-06  0.552E-03    6.84       3.8  T
   5    -90.3118587 -0.714268E-07  0.903E-04    6.84      23.1  T
   6    -90.3118587 -0.268020E-08  0.292E-04    6.84      71.4  T
     SCC iter.                  ...        0 min,  0.007 sec
     gradient                   ...        0 min,  0.004 sec
 * total energy  :   -90.0501648 Eh     change       -0.7446978E-04 Eh
   gradient norm :     0.0048899 Eh/α   predicted    -0.5316300E-04 ( -28.61%)
   displ. norm   :     0.1575666 α      lambda       -0.7876845E-04
   maximum displ.:     0.1218029 α      in ANC's #2, #5, #10, ...

........................................................................
.............................. CYCLE   11 ..............................
........................................................................

 iter      E             dE          RMSdq      gap      omega  full diag
   1    -90.3120455 -0.903120E+02  0.492E-02    6.84       0.0  T
   2    -90.3120476 -0.215985E-05  0.254E-02    6.84       1.0  T
   3    -90.3120482 -0.533259E-06  0.926E-03    6.84       2.3  T
   4    -90.3120483 -0.157944E-06  0.405E-03    6.84       5.1  T
   5    -90.3120484 -0.418753E-07  0.795E-04    6.84      26.2  T
   6    -90.3120484 -0.202446E-08  0.201E-04    6.84     103.9  T
     SCC iter.                  ...        0 min,  0.007 sec
     gradient                   ...        0 min,  0.004 sec
 * total energy  :   -90.0502223 Eh     change       -0.5749515E-04 Eh
   gradient norm :     0.0044168 Eh/α   predicted    -0.4036843E-04 ( -29.79%)
   displ. norm   :     0.1570189 α      lambda       -0.6649706E-04
   maximum displ.:     0.1216080 α      in ANC's #2, #5, #10, ...

........................................................................
.............................. CYCLE   12 ..............................
........................................................................

 iter      E             dE          RMSdq      gap      omega  full diag
   1    -90.3116234 -0.903116E+02  0.465E-02    6.82       0.0  T
   2    -90.3116255 -0.209112E-05  0.245E-02    6.83       1.0  T
   3    -90.3116261 -0.558823E-06  0.843E-03    6.83       2.5  T
   4    -90.3116261 -0.765732E-07  0.291E-03    6.83       7.2  T
   5    -90.3116262 -0.725286E-08  0.338E-04    6.83      61.7  T
   6    -90.3116262 -0.116835E-08  0.143E-04    6.83     146.2  T
     SCC iter.                  ...        0 min,  0.007 sec
     gradient                   ...        0 min,  0.004 sec
 * total energy  :   -90.0502708 Eh     change       -0.4849425E-04 Eh
   gradient norm :     0.0039073 Eh/α   predicted    -0.3406931E-04 ( -29.75%)
   displ. norm   :     0.1296890 α      lambda       -0.6488115E-04
   maximum displ.:     0.0956615 α      in ANC's #2, #5, #1, ...

........................................................................
.............................. CYCLE   13 ..............................
........................................................................

 iter      E             dE          RMSdq      gap      omega  full diag
   1    -90.3118935 -0.903119E+02  0.398E-02    6.82       0.0  T
   2    -90.3118961 -0.255652E-05  0.207E-02    6.83       1.0  T
   3    -90.3118964 -0.323558E-06  0.833E-03    6.83       2.5  T
   4    -90.3118965 -0.100769E-06  0.320E-03    6.83       6.5  T
   5    -90.3118965 -0.223148E-07  0.958E-04    6.83      21.8  T
   6    -90.3118965 -0.402584E-08  0.169E-04    6.83     123.4  T
     SCC iter.                  ...        0 min,  0.007 sec
     gradient                   ...        0 min,  0.004 sec
 * total energy  :   -90.0503056 Eh     change       -0.3489148E-04 Eh
   gradient norm :     0.0034948 Eh/α   predicted    -0.3298679E-04 (  -5.46%)
   displ. norm   :     0.1661149 α      lambda       -0.4555338E-04
   maximum displ.:     0.1283370 α      in ANC's #2, #5, #10, ...

........................................................................
.............................. CYCLE   14 ..............................
........................................................................

 iter      E             dE          RMSdq      gap      omega  full diag
   1    -90.3106029 -0.903106E+02  0.490E-02    6.81       0.0  T
   2    -90.3106062 -0.323955E-05  0.268E-02    6.81       1.0  T
   3    -90.3106068 -0.593501E-06  0.979E-03    6.82       2.1  T
   4    -90.3106070 -0.217793E-06  0.373E-03    6.82       5.6  T
   5    -90.3106070 -0.344532E-07  0.106E-03    6.82      19.6  T
   6    -90.3106070 -0.394841E-08  0.184E-04    6.82     113.3  T
   7    -90.3106070 -0.114468E-09  0.103E-04    6.82     202.4  T
     SCC iter.                  ...        0 min,  0.009 sec
     gradient                   ...        0 min,  0.004 sec
 * total energy  :   -90.0503158 Eh     change       -0.1018261E-04 Eh
   gradient norm :     0.0037128 Eh/α   predicted    -0.2341551E-04 ( 129.96%)
   displ. norm   :     0.0657860 α      lambda       -0.3376630E-04
   maximum displ.:     0.0469742 α      in ANC's #2, #5, #3, ...

........................................................................
.............................. CYCLE   15 ..............................
........................................................................

 iter      E             dE          RMSdq      gap      omega  full diag
   1    -90.3114759 -0.903115E+02  0.213E-02    6.83       0.0  T
   2    -90.3114767 -0.780760E-06  0.119E-02    6.83       1.8  T
   3    -90.3114768 -0.986876E-07  0.419E-03    6.83       5.0  T
   4    -90.3114768 -0.592781E-07  0.159E-03    6.83      13.1  T
   5    -90.3114768 -0.458378E-08  0.327E-04    6.83      63.7  T
   6    -90.3114768 -0.725137E-09  0.886E-05    6.83     235.5  T
     SCC iter.                  ...        0 min,  0.008 sec
     gradient                   ...        0 min,  0.004 sec
 * total energy  :   -90.0503359 Eh     change       -0.2011198E-04 Eh
   gradient norm :     0.0014411 Eh/α   predicted    -0.1695698E-04 ( -15.69%)
   displ. norm   :     0.0413313 α      lambda       -0.9960142E-05
   maximum displ.:     0.0270194 α      in ANC's #2, #5, #6, ...

........................................................................
.............................. CYCLE   16 ..............................
........................................................................

 iter      E             dE          RMSdq      gap      omega  full diag
   1    -90.3118109 -0.903118E+02  0.136E-02    6.84       0.0  T
   2    -90.3118111 -0.197158E-06  0.744E-03    6.84       2.8  T
   3    -90.3118112 -0.308312E-07  0.236E-03    6.84       8.8  T
   4    -90.3118112 -0.952360E-08  0.995E-04    6.84      21.0  T
   5    -90.3118112 -0.208304E-08  0.236E-04    6.84      88.4  T
     SCC iter.                  ...        0 min,  0.006 sec
     gradient                   ...        0 min,  0.004 sec
 * total energy  :   -90.0503451 Eh     change       -0.9122077E-05 Eh
   gradient norm :     0.0009533 Eh/α   predicted    -0.4985385E-05 ( -45.35%)
   displ. norm   :     0.0600657 α      lambda       -0.5144111E-05
   maximum displ.:     0.0466600 α      in ANC's #2, #5, #1, ...

........................................................................
.............................. CYCLE   17 ..............................
........................................................................

 iter      E             dE          RMSdq      gap      omega  full diag
   1    -90.3117198 -0.903117E+02  0.176E-02    6.84       0.0  T
   2    -90.3117201 -0.236925E-06  0.920E-03    6.84       2.3  T
   3    -90.3117201 -0.711524E-07  0.307E-03    6.84       6.8  T
   4    -90.3117201 -0.118923E-07  0.126E-03    6.84      16.5  T
   5    -90.3117202 -0.473733E-08  0.258E-04    6.84      80.7  T
   6    -90.3117202 -0.275421E-09  0.642E-05    6.84     324.8  T
     SCC iter.                  ...        0 min,  0.007 sec
     gradient                   ...        0 min,  0.004 sec
 * total energy  :   -90.0503509 Eh     change       -0.5797104E-05 Eh
   gradient norm :     0.0008987 Eh/α   predicted    -0.2578262E-05 ( -55.52%)
   displ. norm   :     0.0790457 α      lambda       -0.4763804E-05
   maximum displ.:     0.0617927 α      in ANC's #2, #5, #1, ...

........................................................................
.............................. CYCLE   18 ..............................
........................................................................

 iter      E             dE          RMSdq      gap      omega  full diag
   1    -90.3116320 -0.903116E+02  0.226E-02    6.83       0.0  T
   2    -90.3116324 -0.381805E-06  0.119E-02    6.83       1.8  T
   3    -90.3116325 -0.113676E-06  0.401E-03    6.83       5.2  T
   4    -90.3116326 -0.184138E-07  0.157E-03    6.83      13.3  T
   5    -90.3116326 -0.719054E-08  0.347E-04    6.83      60.2  T
   6    -90.3116326 -0.474103E-09  0.805E-05    6.83     259.1  T
     SCC iter.                  ...        0 min,  0.007 sec
     gradient                   ...        0 min,  0.004 sec
 * total energy  :   -90.0503554 Eh     change       -0.4562982E-05 Eh
   gradient norm :     0.0007786 Eh/α   predicted    -0.2392630E-05 ( -47.56%)
   displ. norm   :     0.0314397 α      lambda       -0.1717998E-05
   maximum displ.:     0.0222636 α      in ANC's #2, #1, #5, ...

   *** GEOMETRY OPTIMIZATION CONVERGED AFTER 18 ITERATIONS ***

------------------------------------------------------------------------
 total energy gain   :        -0.0196645 Eh      -12.3396 kcal/mol
 total RMSD          :         0.3944322 a0        0.2087 Å
 total power (kW/mol):        -2.8682827 (step) -205.6957 (real)
------------------------------------------------------------------------

 ANCopt (total)                0 d,  0 h,  0 min,  0.251 sec
 optimizer setup                ...        0 min,  0.000 sec (  0.033%)
 model hessian                  ...        0 min,  0.011 sec (  4.539%)
 ANC generation                 ...        0 min,  0.000 sec (  0.149%)
 coordinate transformation      ...        0 min,  0.000 sec (  0.050%)
 single point calculation       ...        0 min,  0.235 sec ( 93.808%)
 optimization log               ...        0 min,  0.001 sec (  0.503%)
 hessian update                 ...        0 min,  0.000 sec (  0.112%)
 rational function              ...        0 min,  0.001 sec (  0.550%)

================
 final structure:
================
23
 xtb: 6.7.1 (edcfbbe)
F            1.17596230208552       -0.14497596648192        0.51130251435504
C            2.33159471029405       -0.36457485434702       -0.10557314118289
C            2.63144193133294        0.69414490207897       -1.21158498583612
C            2.27584980140633        2.19156332428743       -0.92280229149445
C            2.91159383752989        2.84111594546926        0.34621712212161
C            4.45093287752431        3.02069296060782        0.41755350107889
C            5.10978808964843        3.89649500376914       -0.63594050636616
S            4.31472586669301        5.63565633321858       -0.72429253197492
O            4.22732043293122        5.97447362874055        0.67223908306887
O            5.26381064592300        6.37963326499068       -1.50571795244191
O            3.07027969620332        5.30593093336018       -1.37428352403014
F            6.42882612714135        3.98767410878130       -0.34348160399145
F            5.03581468293626        3.28450406121573       -1.84441817518445
F            4.73751060698784        3.48411414323880        1.64319221399164
F            4.96496830640810        1.74233544086249        0.40778123723589
F            2.25354058128821        3.95436349143326        0.64347685319480
F            2.59465319877414        1.97350835092057        1.36347889135571
F            2.51347587491130        2.84922022593463       -2.05418878491422
F            0.93317330382501        2.22427204638118       -0.73331056196194
F            3.90873259929420        0.55676433488735       -1.59142485992319
F            1.88104884012988        0.33395709315223       -2.27979009768080
F            3.28915388614175       -0.44714434011822        0.80323994473747
F            2.23892180059023       -1.56702443238278       -0.68252234415724

 Bond Distances (Angstroems)
 ---------------------------
F1-C2=1.3282         C2-F1=1.3282         C2-C3=1.5601         C2-F22=1.3228        C2-F23=1.3369        C3-C2=1.5601         
C3-C4=1.5659         C3-F20=1.3396        C3-F21=1.3542        C4-C3=1.5659         C4-C5=1.5609         C4-F18=1.3300        
C4-F19=1.3564        C5-C4=1.5609         C5-C6=1.5514         C5-F16=1.3269        C5-F17=1.3741        C6-C5=1.5514         
C6-C7=1.5202         C6-F14=1.3413        C6-F15=1.3779        C7-C6=1.5202         C7-S8=1.9143         C7-F12=1.3541        
C7-F13=1.3566        S8-C7=1.9143         S8-O9=1.4397         S8-O10=1.4370        S8-O11=1.4422        O9-S8=1.4397         
O10-S8=1.4370        O11-S8=1.4422        F12-C7=1.3541        F13-C7=1.3566        F14-C6=1.3413        F15-C6=1.3779        
F16-C5=1.3269        F17-C5=1.3741        F18-C4=1.3300        F19-C4=1.3564        F20-C3=1.3396        F21-C3=1.3542        
F22-C2=1.3228        F23-C2=1.3369        
 C  C  Rav=1.5517 sigma=0.0164  Rmin=1.5202  Rmax=1.5659     5
 F  C  Rav=1.3461 sigma=0.0170  Rmin=1.3228  Rmax=1.3779    13
 S  C  Rav=1.9143 sigma=0.0000  Rmin=1.9143  Rmax=1.9143     1
 S  O  Rav=1.4396 sigma=0.0021  Rmin=1.4370  Rmax=1.4422     3

 selected bond angles (degree)
 --------------------
C3-C2-F1=112.60                F22-C2-F1=108.73               F22-C2-C3=112.97               F23-C2-F1=106.79               
F23-C2-C3=108.53               F23-C2-F22=106.89              C4-C3-C2=118.33                F20-C3-C2=108.34               
F20-C3-C4=111.52               F21-C3-C2=105.80               F21-C3-C4=105.90               F21-C3-F20=106.10              
C5-C4-C3=117.09                F18-C4-C3=105.99               F18-C4-C5=114.40               F19-C4-C3=105.88               
F19-C4-C5=106.23               F19-C4-F18=106.49              C6-C5-C4=119.32                F16-C5-C4=109.22               
F16-C5-C6=112.62               F17-C5-C4=104.19               F17-C5-C6=105.54               F17-C5-F16=104.45              
C7-C6-C5=117.70                F14-C6-C5=107.10               F14-C6-C7=109.97               F15-C6-C5=105.22               
F15-C6-C7=111.59               F15-C6-F14=104.32              S8-C7-C6=112.05                F12-C7-C6=108.14               
F12-C7-S8=110.69               F13-C7-C6=109.50               F13-C7-S8=110.25               F13-C7-F12=106.01              
O9-S8-C7=101.20                O10-S8-C7=102.78               O10-S8-O9=116.47               O11-S8-C7= 99.87               
O11-S8-O9=116.02               O11-S8-O10=116.31              

 selected dihedral angles (degree)
 ---------------------------------
C4-C3-C2-F1= 39.88            C4-C3-C2-F22=276.22           C4-C3-C2-F23=157.87           F20-C3-C2-F1=168.03           
F20-C3-C2-F22= 44.38          F20-C3-C2-F23=286.03          F21-C3-C2-F1=281.45           F21-C3-C2-F22=157.80          
F21-C3-C2-F23= 39.45          C5-C4-C3-C2= 56.57            C5-C4-C3-F20=289.92           C5-C4-C3-F21=174.94           
F18-C4-C3-C2=185.55           F18-C4-C3-F20= 58.91          F18-C4-C3-F21=303.92          F19-C4-C3-C2=298.41           
F19-C4-C3-F20=171.76          F19-C4-C3-F21= 56.77          C6-C5-C4-C3= 64.91            C6-C5-C4-F18=300.05           
C6-C5-C4-F19=182.88           F16-C5-C4-C3=196.45           F16-C5-C4-F18= 71.58          F16-C5-C4-F19=314.42          
F17-C5-C4-C3=307.59           F17-C5-C4-F18=182.73          F17-C5-C4-F19= 65.56          C7-C6-C5-C4= 60.96            
C7-C6-C5-F16=290.93           C7-C6-C5-F17=177.58           F14-C6-C5-C4=185.37           F14-C6-C5-F16= 55.34          
F14-C6-C5-F17=301.99          F15-C6-C5-C4=295.97           F15-C6-C5-F16=165.94          F15-C6-C5-F17= 52.59          
S8-C7-C6-C5= 53.90            S8-C7-C6-F14=290.93           S8-C7-C6-F15=175.67           F12-C7-C6-C5=176.16           
F12-C7-C6-F14= 53.20          F12-C7-C6-F15=297.93          F13-C7-C6-C5=291.25           F13-C7-C6-F14=168.28          
F13-C7-C6-F15= 53.02          O9-S8-C7-C6= 45.62            O9-S8-C7-F12=284.83           O9-S8-C7-F13=167.85           
O10-S8-C7-C6=166.34           O10-S8-C7-F12= 45.55          O10-S8-C7-F13=288.57          O11-S8-C7-C6=286.39           
O11-S8-C7-F12=165.60          O11-S8-C7-F13= 48.62          
           -------------------------------------------------
          |                Final Singlepoint                |
           -------------------------------------------------

          ...................................................
          :                      SETUP                      :
          :.................................................:
          :  # basis functions                  98          :
          :  # atomic orbitals                  97          :
          :  # shells                           47          :
          :  # electrons                       140          :
          :  max. iterations                   250          :
          :  Hamiltonian                  GFN2-xTB          :
          :  restarted?                      false          :
          :  GBSA solvation                  false          :
          :  PC potential                    false          :
          :  electronic temp.          300.0000000     K    :
          :  accuracy                    1.0000000          :
          :  -> integral cutoff          0.2500000E+02      :
          :  -> integral neglect         0.1000000E-07      :
          :  -> SCF convergence          0.1000000E-05 Eh   :
          :  -> wf. convergence          0.1000000E-03 e    :
          :  Broyden damping             0.4000000          :
          :  net charge                         -1          :
          :  unpaired electrons                  0          :
          ...................................................

 iter      E             dE          RMSdq      gap      omega  full diag
   1    -90.3116326 -0.903116E+02  0.259E-05    6.83       0.0  T
   2    -90.3116326 -0.181899E-11  0.154E-05    6.83    1351.3  T
   3    -90.3116326 -0.227374E-12  0.732E-06    6.83    2847.4  T

   *** convergence criteria satisfied after 3 iterations ***

         #    Occupation            Energy/Eh            Energy/eV
      -------------------------------------------------------------
         1        2.0000           -0.8585787             -23.3631
       ...           ...                  ...                  ...
        64        2.0000           -0.3868540             -10.5268
        65        2.0000           -0.3267789              -8.8921
        66        2.0000           -0.3256443              -8.8612
        67        2.0000           -0.3089905              -8.4081
        68        2.0000           -0.3087950              -8.4027
        69        2.0000           -0.2970577              -8.0834
        70        2.0000           -0.2938078              -7.9949 (HOMO)
        71                         -0.0429532              -1.1688 (LUMO)
        72                         -0.0251353              -0.6840
        73                         -0.0152945              -0.4162
        74                         -0.0131331              -0.3574
        75                          0.0078570               0.2138
       ...                                ...                  ...
        97                          1.3901382              37.8276
      -------------------------------------------------------------
                  HL-Gap            0.2508547 Eh            6.8261 eV
             Fermi-level           -0.1683805 Eh           -4.5819 eV

 SCC (total)                   0 d,  0 h,  0 min,  0.009 sec
 SCC setup                      ...        0 min,  0.000 sec (  0.733%)
 Dispersion                     ...        0 min,  0.000 sec (  0.781%)
 classical contributions        ...        0 min,  0.000 sec (  0.144%)
 integral evaluation            ...        0 min,  0.001 sec ( 16.175%)
 iterations                     ...        0 min,  0.004 sec ( 40.687%)
 molecular gradient             ...        0 min,  0.004 sec ( 40.279%)
 printout                       ...        0 min,  0.000 sec (  1.046%)

         :::::::::::::::::::::::::::::::::::::::::::::::::::::
         ::                     SUMMARY                     ::
         :::::::::::::::::::::::::::::::::::::::::::::::::::::
         :: total energy             -90.050355423782 Eh    ::
         :: gradient norm              0.000778579128 Eh/a0 ::
         :: HOMO-LUMO gap              6.826103028768 eV    ::
         ::.................................................::
         :: SCC energy               -90.311408634987 Eh    ::
         :: -> isotropic ES            0.322745606927 Eh    ::
         :: -> anisotropic ES         -0.004369364345 Eh    ::
         :: -> anisotropic XC         -0.093851886213 Eh    ::
         :: -> dispersion             -0.028509511674 Eh    ::
         :: repulsion energy           0.261053211205 Eh    ::
         :: add. restraining           0.000000000000 Eh    ::
         :: total charge              -1.000000000000 e     ::
         :::::::::::::::::::::::::::::::::::::::::::::::::::::

           -------------------------------------------------
          |                Property Printout                |
           -------------------------------------------------

    * Orbital Energies and Occupations

         #    Occupation            Energy/Eh            Energy/eV
      -------------------------------------------------------------
         1        2.0000           -0.8585787             -23.3631
       ...           ...                  ...                  ...
        58        2.0000           -0.4287487             -11.6668
        59        2.0000           -0.4215251             -11.4703
        60        2.0000           -0.4196653             -11.4197
        61        2.0000           -0.4048093             -11.0154
        62        2.0000           -0.3932332             -10.7004
        63        2.0000           -0.3922968             -10.6749
        64        2.0000           -0.3868540             -10.5268
        65        2.0000           -0.3267789              -8.8921
        66        2.0000           -0.3256443              -8.8612
        67        2.0000           -0.3089905              -8.4081
        68        2.0000           -0.3087950              -8.4027
        69        2.0000           -0.2970577              -8.0834
        70        2.0000           -0.2938078              -7.9949 (HOMO)
        71                         -0.0429532              -1.1688 (LUMO)
        72                         -0.0251353              -0.6840
        73                         -0.0152945              -0.4162
        74                         -0.0131331              -0.3574
        75                          0.0078570               0.2138
        76                          0.0254597               0.6928
        77                          0.0365439               0.9944
        78                          0.0454113               1.2357
        79                          0.0760989               2.0708
        80                          0.0833476               2.2680
        81                          0.0976770               2.6579
       ...                                ...                  ...
        97                          1.3901382              37.8276
      -------------------------------------------------------------
                  HL-Gap            0.2508547 Eh            6.8261 eV
             Fermi-level           -0.1683805 Eh           -4.5819 eV

     #   Z          covCN         q      C6AA      α(0)
     1   9 F        0.791    -0.166    10.891     3.898
     2   6 C        3.328     0.486    17.399     6.623
     3   6 C        3.517     0.310    17.049     6.092
     4   6 C        3.517     0.320    16.918     6.070
     5   6 C        3.519     0.314    16.985     6.078
     6   6 C        3.534     0.317    16.784     6.014
     7   6 C        3.500     0.188    19.016     6.471
     8  16 S        3.560     1.226   100.415    16.866
     9   8 O        0.860    -0.629    26.829     6.945
    10   8 O        0.860    -0.600    26.109     6.851
    11   8 O        0.860    -0.643    27.201     6.993
    12   9 F        0.795    -0.199    11.226     3.958
    13   9 F        0.795    -0.219    11.431     3.994
    14   9 F        0.791    -0.164    10.874     3.895
    15   9 F        0.789    -0.217    11.415     3.991
    16   9 F        0.790    -0.138    10.618     3.849
    17   9 F        0.792    -0.207    11.309     3.972
    18   9 F        0.790    -0.142    10.649     3.855
    19   9 F        0.791    -0.176    10.985     3.915
    20   9 F        0.789    -0.164    10.868     3.894
    21   9 F        0.791    -0.171    10.939     3.907
    22   9 F        0.791    -0.157    10.804     3.883
    23   9 F        0.793    -0.168    10.910     3.902

 Mol. C6AA /au·bohr⁶  :       8641.176012
 Mol. C8AA /au·bohr⁸  :     201539.431337
 Mol. α(0) /au        :        125.916054


Wiberg/Mayer (AO) data.
largest (>0.10) Wiberg bond orders for each atom

 ---------------------------------------------------------------------------
     #   Z sym  total        # sym  WBO       # sym  WBO       # sym  WBO
 ---------------------------------------------------------------------------
     1   9 F    1.108 --     2 C    0.975
     2   6 C    3.878 --    22 F    0.985     1 F    0.975    23 F    0.965
                             3 C    0.894
     3   6 C    3.891 --    20 F    0.984    21 F    0.968     4 C    0.906
                             2 C    0.894
     4   6 C    3.896 --    18 F    1.001    19 F    0.962     5 C    0.910
                             3 C    0.906
     5   6 C    3.885 --    16 F    1.008    17 F    0.935     6 C    0.917
                             4 C    0.910
     6   6 C    3.875 --    14 F    0.984     7 C    0.944    15 F    0.925
                             5 C    0.917
     7   6 C    3.729 --    12 F    0.960    13 F    0.948     6 C    0.944
                             8 S    0.609
     8  16 S    5.210 --    10 O    1.537     9 O    1.516    11 O    1.503
                             7 C    0.609
     9   8 O    1.835 --     8 S    1.516    10 O    0.119    11 O    0.114
    10   8 O    1.861 --     8 S    1.537     9 O    0.119    11 O    0.117
    11   8 O    1.821 --     8 S    1.503    10 O    0.117     9 O    0.114
    12   9 F    1.071 --     7 C    0.960
    13   9 F    1.053 --     7 C    0.948
    14   9 F    1.099 --     6 C    0.984
    15   9 F    1.042 --     6 C    0.925
    16   9 F    1.133 --     5 C    1.008
    17   9 F    1.048 --     5 C    0.935
    18   9 F    1.129 --     4 C    1.001
    19   9 F    1.080 --     4 C    0.962
    20   9 F    1.101 --     3 C    0.984
    21   9 F    1.084 --     3 C    0.968
    22   9 F    1.119 --     2 C    0.985
    23   9 F    1.100 --     2 C    0.965
 ---------------------------------------------------------------------------

Topologies differ in total number of bonds
Writing topology from bond orders to xtbtopo.mol

molecular dipole:
                 x           y           z       tot (Debye)
 q only:       -7.934      -9.014       1.117
   full:       -7.853      -9.138       1.127      30.759
molecular quadrupole (traceless):
                xx          xy          yy          xz          yz          zz
 q only:      -18.582    -112.178     -56.213      13.552      16.872      74.794
  q+dip:      -16.780    -113.765     -58.354      13.216      16.258      75.134
   full:      -16.543    -114.219     -58.523      13.349      16.608      75.066

           -------------------------------------------------
          |                Geometry Summary                 |
           -------------------------------------------------

      molecular mass/u    :      399.1066587
   center of mass at/Å    :        3.4405963       2.5885454      -0.4081250
  moments of inertia/u·Å² :        0.9944189E+03   0.2721523E+04   0.2796681E+04
rotational constants/cm⁻¹ :        0.1695224E-01   0.6194191E-02   0.6027728E-02

 * 17 selected distances

     #   Z          #   Z                                           value/Å
     1   9 F        2   6 C                                       1.3282492
     6   6 C        7   6 C                                       1.5201873 (max)
     8  16 S        9   8 O                                       1.4397006
     8  16 S       10   8 O                                       1.4369724
     8  16 S       11   8 O                                       1.4421698
     7   6 C       12   9 F                                       1.3541446
     7   6 C       13   9 F                                       1.3566221
     6   6 C       14   9 F                                       1.3412966
     6   6 C       15   9 F                                       1.3778702
     5   6 C       16   9 F                                       1.3269204
     5   6 C       17   9 F                                       1.3740510
     4   6 C       18   9 F                                       1.3300430
     4   6 C       19   9 F                                       1.3563766
     3   6 C       20   9 F                                       1.3396356
     3   6 C       21   9 F                                       1.3542110
     2   6 C       22   9 F                                       1.3227543 (min)
     2   6 C       23   9 F                                       1.3369158

 * 3 distinct bonds (by element types)

   Z      Z             #   av. dist./Å        max./Å        min./Å
   6 C    6 C           1     1.5201873     1.5201873     1.5201873
   6 C    9 F          13     1.3460839     1.3778702     1.3227543
   8 O   16 S           3     1.4396143     1.4421698     1.4369724


optimized geometry written to: xtbopt.xyz


           -------------------------------------------------
          | TOTAL ENERGY              -90.050355423782 Eh   |
          | GRADIENT NORM               0.000778579128 Eh/α |
          | HOMO-LUMO GAP               6.826103028768 eV   |
           -------------------------------------------------

------------------------------------------------------------------------
 * finished run on 2024/12/20 at 01:54:51.347     
------------------------------------------------------------------------
 total:
 * wall-time:     0 d,  0 h,  0 min,  0.303 sec
 *  cpu-time:     0 d,  0 h,  0 min,  2.400 sec
 * ratio c/w:     7.913 speedup
 SCF:
 * wall-time:     0 d,  0 h,  0 min,  0.024 sec
 *  cpu-time:     0 d,  0 h,  0 min,  0.191 sec
 * ratio c/w:     7.883 speedup
 ANC optimizer:
 * wall-time:     0 d,  0 h,  0 min,  0.261 sec
 *  cpu-time:     0 d,  0 h,  0 min,  2.085 sec
 * ratio c/w:     7.984 speedup

