51
 energy: -63.064536074767 gnorm: 0.061073251739 xtb: 6.7.1 (edcfbbe)
C            0.97756000000000       -0.11917000000000       -0.53686000000000
C            0.71674000000000       -1.46354000000000        0.12529000000000
C            1.08238000000000       -1.49329000000000        1.61104000000000
C            0.33357000000000       -0.49073000000000        2.49389000000000
C           -1.19175000000000       -0.63630000000000        2.50900000000000
C           -1.72469000000000       -1.98284000000000        3.01250000000000
C           -1.25256000000000       -2.40667000000000        4.40810000000000
C           -1.48129000000000       -1.38151000000000        5.52228000000000
C           -2.94576000000000       -1.02595000000000        5.79678000000000
C           -3.78681000000000       -2.15638000000000        6.38909000000000
N           -3.19800000000000       -2.65804000000000        7.65864000000000
C           -3.13224000000000       -1.84796000000000        8.74010000000000
C           -2.54159000000000       -2.28490000000000        9.92196000000000
C           -2.03085000000000       -3.58307000000000       10.02592000000000
C           -2.15910000000000       -4.40802000000000        8.90288000000000
C           -2.74156000000000       -3.92857000000000        7.73244000000000
C           -1.37717000000000       -4.05736000000000       11.26265000000000
C           -0.20628000000000       -4.82859000000000       11.21894000000000
C            0.38076000000000       -5.24296000000000       12.40553000000000
N           -0.10907000000000       -4.94410000000000       13.62293000000000
C           -1.23241000000000       -4.20357000000000       13.66195000000000
C           -1.89163000000000       -3.74707000000000       12.52976000000000
H            0.31207000000000        0.65614000000000       -0.14592000000000
H            0.80351000000000       -0.19100000000000       -1.61522000000000
H            2.01252000000000        0.20176000000000       -0.38159000000000
H           -0.33237000000000       -1.74454000000000       -0.01625000000000
H            1.31351000000000       -2.22578000000000       -0.39024000000000
H            0.92285000000000       -2.50874000000000        1.99181000000000
H            2.15805000000000       -1.29988000000000        1.71150000000000
H            0.72049000000000       -0.57660000000000        3.51588000000000
H            0.58101000000000        0.52904000000000        2.17574000000000
H           -1.60850000000000        0.16835000000000        3.12669000000000
H           -1.58609000000000       -0.46121000000000        1.50107000000000
H           -2.82076000000000       -1.94669000000000        2.99954000000000
H           -1.44850000000000       -2.76997000000000        2.30042000000000
H           -1.74344000000000       -3.35117000000000        4.66987000000000
H           -0.18038000000000       -2.63379000000000        4.36672000000000
H           -1.01438000000000       -1.75665000000000        6.44044000000000
H           -0.94286000000000       -0.45735000000000        5.28366000000000
H           -2.95871000000000       -0.16999000000000        6.48213000000000
H           -3.42618000000000       -0.67363000000000        4.87726000000000
H           -4.79660000000000       -1.80634000000000        6.63286000000000
H           -3.88405000000000       -2.99110000000000        5.68780000000000
H           -3.53610000000000       -0.84390000000000        8.64607000000000
H           -2.46661000000000       -1.58978000000000       10.75731000000000
H           -1.80905000000000       -5.43925000000000        8.92961000000000
H           -2.83820000000000       -4.55653000000000        6.85104000000000
H            0.26909000000000       -5.10117000000000       10.28236000000000
H            1.28902000000000       -5.84007000000000       12.40621000000000
H           -1.60329000000000       -3.97889000000000       14.65867000000000
H           -2.79965000000000       -3.16678000000000       12.65640000000000
51
 energy: -63.068832225819 gnorm: 0.024835209395 xtb: 6.7.1 (edcfbbe)
C            0.97475332361685       -0.11792896044701       -0.53452792859650
C            0.71236784254454       -1.46283355052602        0.12885464329909
C            1.07735450617142       -1.49750717458109        1.61344268495644
C            0.33215631001611       -0.49576584789571        2.49739794414615
C           -1.19139611318987       -0.63554045485671        2.51746117635163
C           -1.72865037782805       -1.97954252912698        3.01620753147841
C           -1.25327487415095       -2.40720919570682        4.40795062326049
C           -1.48095304927139       -1.38762453854183        5.52614033782255
C           -2.93964811363435       -1.02381455776571        5.81147879140225
C           -3.77245568931167       -2.15766176588889        6.41035623834833
N           -3.19404968452247       -2.66547032203614        7.66624364279681
C           -3.12171030446239       -1.86001863212704        8.73853075519842
C           -2.54403140509105       -2.28584945351083        9.91601613685914
C           -2.02655900799180       -3.58183914810618       10.02336532373434
C           -2.14724233098877       -4.40280216660370        8.89670339794992
C           -2.72809826239413       -3.92194217705120        7.74123409467719
C           -1.37943515236096       -4.05330894808945       11.25531640639961
C           -0.21977976275781       -4.83192264822001       11.21060992031730
C            0.36524753354164       -5.23458369718663       12.40043231012362
N           -0.12367308565644       -4.93458671790176       13.59740497698293
C           -1.23029251946594       -4.20297342279256       13.64371511005915
C           -1.88770333495654       -3.73434990627643       12.51727007088315
H            0.31612171445098        0.65544946667343       -0.14264794556491
H            0.80407000063637       -0.18855298247544       -1.60813769789295
H            2.00584235740769        0.19556888647349       -0.37610761474338
H           -0.33695835092755       -1.73708975537455       -0.00577707938295
H            1.30900017588290       -2.22597821773739       -0.38003601455572
H            0.91185537248811       -2.51059456645780        1.99182701531983
H            2.14877563318654       -1.29451129886139        1.70956008273217
H            0.71930360293330       -0.58736011263159        3.51680871723048
H            0.57295152711923        0.51780523431301        2.16551504264366
H           -1.60160261709214        0.16994396900950        3.13496436293265
H           -1.57707907350678       -0.47610725288542        1.50734134955437
H           -2.82260075533351       -1.93751835962758        3.00038818550867
H           -1.43876255835932       -2.76311624538487        2.31127741138640
H           -1.74503572295108       -3.35139521008632        4.66328663261780
H           -0.18166954829524       -2.61838151599749        4.36555954635698
H           -1.01455248046042       -1.76299105698056        6.44389429626594
H           -0.95668872441904       -0.46456080839652        5.27035416671772
H           -2.95781274450141       -0.16539651783770        6.48931646622421
H           -3.42442694445646       -0.70320319572050        4.88666843385970
H           -4.78294122621315       -1.79899428038660        6.63068522240015
H           -3.85280978213221       -2.98946259451793        5.70888534244053
H           -3.52892382736979       -0.86365912918395        8.64134914530351
H           -2.48290902156916       -1.59786315648883       10.74836339906573
H           -1.80209445514246       -5.42731174615970        8.92288397298253
H           -2.82644017290372       -4.54495232120252        6.86382579204972
H            0.25298432315929       -5.09267495252118       10.27445121174710
H            1.27030328095212       -5.82816846949599       12.40687712089339
H           -1.59740438121836       -3.98460622670281       14.63821514702550
H           -2.79877204922079       -3.16534176811605       12.63545410043083
51
 energy: -63.069637992058 gnorm: 0.006211800954 xtb: 6.7.1 (edcfbbe)
C            0.97256199323252       -0.11806115424695       -0.52779980961085
C            0.70237811644044       -1.46416633099676        0.13310148825103
C            1.07165037344614       -1.50207256622200        1.61689758669534
C            0.33143006174820       -0.49819669011116        2.50279323949941
C           -1.19233550006889       -0.63400286207120        2.52382979591414
C           -1.73128962197029       -1.97691366362608        3.02274794784529
C           -1.25397838469463       -2.40806711982231        4.41269531078089
C           -1.47513720443118       -1.38837008248292        5.53238562662409
C           -2.93344824933474       -1.02651732950994        5.82015983203246
C           -3.76350798571434       -2.16429539919375        6.42234749300630
N           -3.18991734535500       -2.66916665117718        7.66635978348156
C           -3.11936074726352       -1.86693164980766        8.73669418171231
C           -2.55057435976781       -2.28587009927376        9.91431588057688
C           -2.02261223670198       -3.57956095583028       10.02080761087173
C           -2.13163780973281       -4.39825407081100        8.88982528802542
C           -2.71284195259183       -3.91687456130259        7.74170271455889
C           -1.38127166720477       -4.04883975837932       11.24850451489820
C           -0.22595794067096       -4.83141983994219       11.19897140460759
C            0.35602688667519       -5.23104160133356       12.39236534072749
N           -0.13618462866218       -4.92730082212158       13.57712988448880
C           -1.23369989522977       -4.19866067859613       13.63141675134866
C           -1.89184746285529       -3.72430973621331       12.50667466907446
H            0.31811444351239        0.65513143551388       -0.13438352769941
H            0.80276411405275       -0.18802044960882       -1.59914877428245
H            2.00369955956066        0.18733354484904       -0.36647220424065
H           -0.34834195799491       -1.73012678951823        0.00186425342650
H            1.29533858438194       -2.22827534512348       -0.37514113412060
H            0.90216494702468       -2.51432544604242        1.99152928255851
H            2.14121588781077       -1.29770487805633        1.71054686807386
H            0.72110686172336       -0.59237448184691        3.51955722021751
H            0.57018829185395        0.51134533749814        2.16429456164848
H           -1.59735873890625        0.17223665787903        3.14090112405841
H           -1.57483200388107       -0.48042914251416        1.51378728291381
H           -2.82357949580884       -1.93160894222074        3.00626964016014
H           -1.43723282561041       -2.75805655636257        2.32023432970729
H           -1.74305806605709       -3.35403511219485        4.66296398394390
H           -0.18312114320413       -2.60958876011651        4.36630792961410
H           -1.00574130552918       -1.76475941472024        6.44730117488504
H           -0.95682839132847       -0.46733378061993        5.26677959553996
H           -2.95308107105836       -0.16612079242137        6.49201031168073
H           -3.42304964029894       -0.72466175012537        4.89403351320853
H           -4.77430611679630       -1.80279248431905        6.63124568167966
H           -3.83136814989385       -2.99233662923539        5.71709563228211
H           -3.52887563645261       -0.87387059380743        8.63621143907938
H           -2.49756093343692       -1.60341809446489       10.74721661623094
H           -1.77783587749650       -5.41610643977416        8.91476797758258
H           -2.80721512675809       -4.53722428341999        6.86408316576160
H            0.23593388879801       -5.09178825050301       10.25966253222451
H            1.25796530816264       -5.82644601231471       12.40027053099196
H           -1.59955745072150       -3.98039329399375       14.62462900239280
H           -2.79934239494041       -3.15145562934401       12.61430545507086
51
 energy: -63.069805296833 gnorm: 0.003384728014 xtb: 6.7.1 (edcfbbe)
C            0.97051246161511       -0.11895973891892       -0.52215155196798
C            0.69386966441155       -1.46529777068005        0.13691131903635
C            1.06665054076397       -1.50672403520591        1.62002084066137
C            0.33103396481944       -0.50000309644277        2.50710729968906
C           -1.19325298302461       -0.63276581815933        2.52990328182302
C           -1.73263000724361       -1.97611289351686        3.02780764772514
C           -1.25066610661527       -2.40845331000843        4.41602896812952
C           -1.47180219962342       -1.38861902533250        5.53591128763910
C           -2.93039465490586       -1.02678164320568        5.82148164623304
C           -3.75923810101970       -2.16845252600175        6.42242711477222
N           -3.18745075273266       -2.67053945259255        7.66258945744994
C           -3.12304300852325       -1.86952915151567        8.73484001684700
C           -2.55567692118495       -2.28608118039122        9.91331767254126
C           -2.01942559864838       -3.57737281189919       10.01771733610085
C           -2.11739679667521       -4.39456926051099        8.88389848560070
C           -2.70015759349220       -3.91456213248358        7.73650617497520
C           -1.38116984663081       -4.04594484147378       11.24473481198925
C           -0.22841064705217       -4.83293433233266       11.19265238094423
C            0.35196723460087       -5.23302204826576       12.38741951807027
N           -0.14227515939255       -4.92493911706240       13.56981656808775
C           -1.23699558623742       -4.19293282120288       13.62669882567474
C           -1.89367076824181       -3.71632905466660       12.50118596615243
H            0.31954645736168        0.65632599876300       -0.12704595159985
H            0.80068958534830       -0.18646815588201       -1.59358254094137
H            2.00320165009008        0.18033148771128       -0.35914117999922
H           -0.35869017883018       -1.72433260454176        0.00799543090681
H            1.28108943614486       -2.23187826033186       -0.37373065472661
H            0.89432598565333       -2.51856047969871        1.99387763870249
H            2.13673804379844       -1.30574888926473        1.71127510877408
H            0.72227570819505       -0.59483461175411        3.52286733750969
H            0.57157782500455        0.50824703086194        2.16730094252530
H           -1.59631541608698        0.17384961389806        3.14730389931272
H           -1.57589489133709       -0.47887315940883        1.52040316564914
H           -2.82468020315512       -1.92983323197896        3.01351120335598
H           -1.44011246913840       -2.75629482223714        2.32407123640884
H           -1.73842064652576       -3.35474989629596        4.66602608908266
H           -0.17994346298543       -2.60851782588873        4.36656953310444
H           -1.00144894656565       -1.76423478811851        6.45036894097483
H           -0.95422978372271       -0.46829362752886        5.26867587706986
H           -2.95233971211317       -0.16660772992553        6.49281374557485
H           -3.41953543054030       -0.72891619873429        4.89478812767795
H           -4.77089133852206       -1.80811852860446        6.62742192202534
H           -3.82211383673932       -2.99360989481044        5.71326147943720
H           -3.53691743350236       -0.87798590331971        8.63347910703269
H           -2.50914320613426       -1.60679075070749       10.74907336443062
H           -1.75378991570286       -5.40896446710753        8.90830929357806
H           -2.78797190158606       -4.53378702007288        6.85682879176437
H            0.22840008213429       -5.09252432793654       10.25084961234953
H            1.25314042751200       -5.82968313821590       12.39508174219962
H           -1.60452557688803       -3.97408393295126       14.61921883175003
H           -2.79974798613418       -3.14023582404833       12.60195283789575
51
 energy: -63.069976685282 gnorm: 0.005001344047 xtb: 6.7.1 (edcfbbe)
C            0.96642396720460       -0.12140303518310       -0.51147780191421
C            0.67759741307565       -1.46749453037333        0.14391186236997
C            1.05719057629196       -1.51524486400531        1.62531894737068
C            0.33087422089324       -0.50378808551705        2.51523363147005
C           -1.19414808132460       -0.63072041057898        2.54078448103854
C           -1.73385979591833       -1.97484637792033        3.03686743588764
C           -1.24472163193418       -2.40892249510435        4.42219414268469
C           -1.46558385896436       -1.38802485746334        5.54141996698419
C           -2.92522776349247       -1.02690142624719        5.82047913951856
C           -3.75393298132904       -2.17415884772349        6.41691518681912
N           -3.18353654498242       -2.67254412533715        7.65367940540055
C           -3.13410204216089       -1.87423185389524        8.73058983204882
C           -2.56687341795285       -2.28762766185272        9.91008197892234
C           -2.01355572800873       -3.57294113274678       10.01030536077207
C           -2.09056215904168       -4.38636432291370        8.87137239573192
C           -2.67585540954836       -3.90990381579585        7.72359150322047
C           -1.37953459336168       -4.04064718791093       11.23803867332636
C           -0.23049907769487       -4.83441015864594       11.18503950177033
C            0.34614486827804       -5.23635342676259       12.38149409712250
N           -0.15136567694605       -4.92292655578141       13.56197057427122
C           -1.24261003685748       -4.18448320325756       13.61961681624345
C           -1.89486174807388       -3.70445196915201       12.49229507677335
H            0.32217682310389        0.65856473290488       -0.11351975883882
H            0.79587551892908       -0.18373430531133       -1.58336935813506
H            2.00214453978171        0.16762370268299       -0.34680124778152
H           -0.37860057698067       -1.71398974711504        0.01944780344135
H            1.25327400326733       -2.23923226831841       -0.37224118554933
H            0.87925638726655       -2.52634490151129        1.99852586469416
H            2.12915137757041       -1.32255591039114        1.71242458611231
H            0.72458601926274       -0.59990899220155        3.52982003578876
H            0.57594428889171        0.50303599292408        2.17477858970867
H           -1.59396400692806        0.17555783388332        3.16063074484232
H           -1.57863354581968       -0.47292940197100        1.53265920541836
H           -2.82587766103981       -1.92747305072480        3.02819528206752
H           -1.44635018763479       -2.75359051683093        2.32942718926790
H           -1.72937808845949       -3.35623562070502        4.67352737684824
H           -0.17392426674206       -2.60737764902923        4.36794571574443
H           -0.99645565747698       -1.76251724993463        6.45677558074997
H           -0.94681791250315       -0.46844557013065        5.27447497125575
H           -2.95160871443707       -0.16857201105599        6.49359225643152
H           -3.41092875225206       -0.72956115879097        4.89276926697665
H           -4.76769258021926       -1.81741575993226        6.61699870287157
H           -3.81010680461668       -2.99525511793007        5.70206543255246
H           -3.55974672340509       -0.88675875324601        8.62950210407409
H           -2.53190342541311       -1.61275582060786       10.75056055903844
H           -1.70873769869572       -5.39479815672200        8.89416648640935
H           -2.74943888746340       -4.52649851737272        6.83963349810594
H            0.22032512340619       -5.09445812597276       10.24048761335462
H            1.24379657052077       -5.83874082904937       12.38976408985945
H           -1.61131524903497       -3.96168880806943       14.61106726563013
H           -2.79780041103050       -3.12165367530197       12.58361912122861
51
 energy: -63.070089879820 gnorm: 0.005668227142 xtb: 6.7.1 (edcfbbe)
C            0.96246780976126       -0.12401252412600       -0.50295880843137
C            0.66374632828737       -1.46916654075638        0.14975013197861
C            1.04918354697570       -1.52258863563960        1.62934045360856
C            0.33129860927964       -0.50752736234039        2.52194309461457
C           -1.19407798967733       -0.62906226339502        2.55051927170300
C           -1.73430456666193       -1.97377133454153        3.04428778833553
C           -1.23938923734639       -2.40900248052706        4.42701775546934
C           -1.46077391225950       -1.38777897587343        5.54572544420291
C           -2.92115329231277       -1.02610551128675        5.81874659099817
C           -3.75099476463087       -2.17699641192045        6.40881761242733
N           -3.18133557552216       -2.67418769774733        7.64523501547913
C           -3.14701633306940       -1.87928865545910        8.72630716459188
C           -2.57793541741743       -2.29015771459104        9.90581829257793
C           -2.00839645448173       -3.56895224717360       10.00258169900683
C           -2.06804467880151       -4.37793938435202        8.85926132492874
C           -2.65503683223780       -3.90479966363542        7.71073770434995
C           -1.37693837956284       -4.03601966396306       11.23192206306572
C           -0.23066889096221       -4.83470634085470       11.18146188760517
C            0.34107137804172       -5.23968385619519       12.37905563326048
N           -0.15777160047259       -4.92249157255608       13.55866696672258
C           -1.24551150771281       -4.17766424010046       13.61400311187024
C           -1.89363294032706       -3.69616965341209       12.48502932042045
H            0.32433890179935        0.66014275762626       -0.10263136211169
H            0.79078895054293       -0.18196921711325       -1.57511460791438
H            2.00061095736056        0.15676000137982       -0.33795995734094
H           -0.39540750164480       -1.70537971278226        0.02934715130380
H            1.22931922864627       -2.24541647618795       -0.37116410069086
H            0.86627750761335       -2.53306008805569        2.00220754961929
H            2.12296356517299       -1.33753935376892        1.71286953263653
H            0.72701769426471       -0.60543419233548        3.53567331321015
H            0.58064246040969        0.49851998626664        2.18184993914197
H           -1.59073869630672        0.17636696968071        3.17370600860391
H           -1.58091442367343       -0.46642408268446        1.54389330513270
H           -2.82644753261889       -1.92566762052277        3.04055108653087
H           -1.45139084995990       -2.75138405193578        2.33345955744303
H           -1.72136783378523       -3.35728024578773        4.67993334998671
H           -0.16839427414659       -2.60635929884984        4.36954810102986
H           -0.99449244875180       -1.76210638344212        6.46264615317704
H           -0.93958020251760       -0.46877475225679        5.28078060530446
H           -2.95103619134217       -0.17039415614581        6.49521455646160
H           -3.40250750391113       -0.72531932758659        4.89004198388549
H           -4.76639738710242       -1.82340258469512        6.60616748730779
H           -3.80298364844082       -2.99588865128017        5.69092448121910
H           -3.58614714039782       -0.89704097869188        8.62709987422607
H           -2.55414712158900       -1.61838099945545       10.74961996045334
H           -1.67104347046404       -5.38100007604436        8.87934359442585
H           -2.71477281914255       -4.51793123132871        6.82284361627518
H            0.21963950598736       -5.09541798017350       10.23684879552346
H            1.23601278387394       -5.84627486166476       12.38927255898830
H           -1.61555956668478       -3.95273277100534       14.60461285415531
H           -2.79441824208163       -3.10923789071127       12.57179509323090
51
 energy: -63.070236406062 gnorm: 0.004775080682 xtb: 6.7.1 (edcfbbe)
C            0.95641921249538       -0.12819966752275       -0.49178875928828
C            0.64433334415995       -1.47149518452216        0.15757009600398
C            1.03788260607310       -1.53289022719375        1.63435254722922
C            0.33240980172632       -0.51336901642918        2.53128585587187
C           -1.19324550329539       -0.62664425390974        2.56472932908229
C           -1.73432723412526       -1.97208184366780        3.05465113386953
C           -1.23225188106090       -2.40905052045728        4.43369543319201
C           -1.45417352269597       -1.38800104357508        5.55205258369360
C           -2.91531174752540       -1.02434742410164        5.81671414430960
C           -3.74841742788005       -2.17872768166652        6.39505435376037
N           -3.18003307874062       -2.67670252895036        7.63288100433775
C           -3.16901218881216       -1.88840409219295        8.71983958882143
C           -2.59565482613911       -2.29559985129665        9.89857718101914
C           -2.00073296839444       -3.56341647337802        9.99025938089725
C           -2.03623857168498       -4.36445257327459        8.84032756059088
C           -2.62582446307194       -3.89591146311633        7.69104280611538
C           -1.37185724783864       -4.02931741117656       11.22221535404901
C           -0.22862520526734       -4.83332221015306       11.17861631977799
C            0.33490207903889       -5.24266184563961       12.37802811168746
N           -0.16593724977947       -4.92235769571975       13.55653207611695
C           -1.24914353783743       -4.16973049924532       13.60578183651314
C           -1.89038586813044       -3.68667049628178       12.47413462666273
H            0.32748993687666        0.66188953667537       -0.08801628898956
H            0.78241844081948       -0.18036055513049       -1.56396726587069
H            1.99780658158670        0.14112099531152       -0.32756145797188
H           -0.41866631170102       -1.69368780197859        0.04318625923359
H            1.19586424903719       -2.25387640652075       -0.36962294776868
H            0.84785329495615       -2.54245141709766        2.00660398374950
H            2.11409178274363       -1.35856842136985        1.71282918554077
H            0.73112775937678       -0.61462735719416        3.54371652849947
H            0.58773065083754        0.49170751496844        2.19206100274910
H           -1.58454610462998        0.17701363437476        3.19392027535778
H           -1.58399326114882       -0.45615248500389        1.56061752555749
H           -2.82660496823923       -1.92312264067525        3.05730259493108
H           -1.45724122458205       -2.74798761125161        2.33933897267614
H           -1.71014737744864       -3.35906966947866        4.68845223644811
H           -0.16088168978248       -2.60413677908437        4.37234254004709
H           -0.99340344284033       -1.76347898338832        6.47147748495082
H           -0.92852370620587       -0.46993660393284        5.29114277474752
H           -2.94907397586580       -0.17350695976123        6.49958635224323
H           -3.38952010485167       -0.71520847736699        4.88675903938831
H           -4.76564310766354       -1.82895465917015        6.58973222904298
H           -3.79556594740817       -2.99549902251360        5.67443833248853
H           -3.63043496266919       -0.91556236768539        8.62505413699990
H           -2.58933944591561       -1.62774741788743       10.74613691500810
H           -1.61823528821391       -5.35932094214420        8.85465661928588
H           -2.66466919483370       -4.50254155225907        6.79736608084146
H            0.22578843864198       -5.09626077475821       10.23659368843219
H            1.22451904706033       -5.85715851991498       12.39258566008169
H           -1.61988250209571       -3.94001655020408       14.59512731540114
H           -2.78844208705608       -3.09524370208640       12.55823766258642
51
 energy: -63.070337168925 gnorm: 0.003190397578 xtb: 6.7.1 (edcfbbe)
C            0.95108091688493       -0.13258422222120       -0.48296142525341
C            0.62636529021828       -1.47365622167430        0.16394929681644
C            1.02712202291311       -1.54238525538143        1.63811405164533
C            0.33371957639723       -0.51892663609435        2.53941668432116
C           -1.19210621655920       -0.62389945374452        2.57856835848619
C           -1.73419975160647       -1.96994345559381        3.06455587907954
C           -1.22599647447534       -2.40900507330805        4.44010048189747
C           -1.44773037701158       -1.38912349283265        5.55916154971799
C           -2.90909852293404       -1.02216433856035        5.81718015019679
C           -3.74689967841348       -2.17856186037428        6.38174325999851
N           -3.18111897766860       -2.67989179373057        7.62158268235443
C           -3.19281352842401       -1.90001958932634        8.71404369850361
C           -2.61468206249387       -2.30358471329291        9.89154975127724
C           -1.99375982988288       -3.55937187386202        9.97792775208629
C           -2.00698420945750       -4.35115968909828        8.82121369004893
C           -2.59973117820792       -3.88633540406734        7.67208295193477
C           -1.36625749595380       -4.02346802929318       11.21187391264619
C           -0.22507244916847       -4.83087660837881       11.17673657889214
C            0.32953180319532       -5.24414821559903       12.37848119613547
N           -0.17286792765925       -4.92070257918604       13.55548142417371