17
 energy: -24.385051070139 gnorm: 0.108528306432 xtb: 6.7.1 (edcfbbe)
C            1.26865000000000        0.15542000000000       -0.22018000000000
C            0.46090000000000        0.10865000000000       -1.50296000000000
N            0.83557000000000       -1.04423000000000       -2.32688000000000
C            0.38652000000000       -2.35568000000000       -2.19088000000000
C            1.02865000000000       -3.04577000000000       -3.17712000000000
N            1.79144000000000       -2.08484000000000       -3.81381000000000
N            1.70460000000000       -0.86704000000000       -3.31565000000000
N            2.66674000000000       -2.35429000000000       -4.89800000000000
H            1.10028000000000       -0.74463000000000        0.37977000000000
H            0.98651000000000        1.02612000000000        0.37909000000000
H            2.33998000000000        0.21552000000000       -0.43653000000000
H           -0.60896000000000        0.03503000000000       -1.27847000000000
H            0.61432000000000        1.02596000000000       -2.08284000000000
H           -0.30946000000000       -2.60103000000000       -1.41128000000000
H            1.05964000000000       -4.06674000000000       -3.50397000000000
H            2.88200000000000       -1.50367000000000       -5.41471000000000
H            2.34234000000000       -3.10427000000000       -5.50303000000000
17
 energy: -24.395082609049 gnorm: 0.044139045960 xtb: 6.7.1 (edcfbbe)
C            1.27560925975235        0.14415140559424       -0.22076065395948
C            0.45599673886870        0.10285454283199       -1.50113242389228
N            0.82415222010132       -1.03763250816996       -2.32432545700679
C            0.40368284579720       -2.32755692249668       -2.19421732672408
C            1.03814987124000       -3.02595659293944       -3.18636227807819
N            1.78608810408578       -2.09257328637830       -3.83960735842040
N            1.66679808666711       -0.90074872890146       -3.32351367670664
N            2.65511349879804       -2.34708414312324       -4.87875641574201
H            1.10470795107511       -0.74412445125863        0.38645609950587
H            0.98908293839606        1.01512379058252        0.36373621199466
H            2.33982488960240        0.21681059600517       -0.44040739893880
H           -0.61118076925267        0.02675810999642       -1.27414680389404
H            0.62620281891982        1.00349379614294       -2.09639082204491
H           -0.29020435885185       -2.58989843433618       -1.42146148348609
H            1.05294247125063       -4.05133146909042       -3.49502474493146
H            2.88801771822395       -1.49856860854837       -5.38654276210915
H            2.34473571532605       -3.09920709591059       -5.48499270556620
17
 energy: -24.397255301401 gnorm: 0.011420998769 xtb: 6.7.1 (edcfbbe)
C            1.28111213290818        0.13566362859618       -0.22654734689165
C            0.45645265607400        0.09767665632161       -1.50752808365720
N            0.81571578974585       -1.03566748207899       -2.32792398145736
C            0.41444661997746       -2.31002731463188       -2.19224764541277
C            1.04123839082828       -3.01441063877346       -3.18849083193589
N            1.77834941759489       -2.09480702984556       -3.85381396432346
N            1.63839917187397       -0.91554352149791       -3.33418974427617
N            2.63437160015072       -2.33096961771061       -4.86164266354999
H            1.10871480312778       -0.74866354125301        0.38064255429305
H            0.99117953469769        1.00695168083714        0.35176655668782
H            2.34080643359945        0.21354847823808       -0.45110946646993
H           -0.60785751194324        0.02248117081622       -1.27534126715017
H            0.63890909033723        0.99172193975199       -2.10562666294942
H           -0.27376448583939       -2.60128731975174       -1.42463681985855
H            1.03509077078018       -4.04727483635522       -3.47243087885500
H            2.90511265156874       -1.48514916050043       -5.35544706219118
H            2.35144293451822       -3.08973309216240       -5.47288269200212
17
 energy: -24.397568112717 gnorm: 0.008336399221 xtb: 6.7.1 (edcfbbe)
C            1.28466707888057        0.13165028025112       -0.23182566292623
C            0.45443150289394        0.10008575799054       -1.51064683817573
N            0.80618269801363       -1.03358254193921       -2.33132631117017
C            0.41224965064868       -2.30930164388714       -2.18774309724483
C            1.03849663279902       -3.01483666883643       -3.18503768603474
N            1.76927931837483       -2.09316543826217       -3.85664758896434
N            1.62211395028131       -0.91072102343786       -3.34346175171288
N            2.62889460096352       -2.32299848337535       -4.85961146929991
H            1.11191160452293       -0.75437785530886        0.37290666052675
H            0.99898022220494        1.00218861810053        0.34983306811847
H            2.34382000015812        0.20660368162211       -0.46051331769467
H           -0.60905403341443        0.03039358308240       -1.27363111633678
H            0.64110775473406        0.99442416542389       -2.10678363392175
H           -0.26867663538159       -2.61593303009310       -1.41938586482934
H            1.02722511835662       -4.05097069679164       -3.45555716740825
H            2.92020859637140       -1.47818198520932       -5.34329057556191
H            2.36788193959247       -3.08676671932952       -5.47472764736367
17
 energy: -24.397774532040 gnorm: 0.004033557670 xtb: 6.7.1 (edcfbbe)
C            1.28862032229561        0.12516867245200       -0.24031269733318
C            0.45011184048009        0.10588708137572       -1.51541208959572
N            0.79027111303537       -1.03019419263123       -2.33642185990781
C            0.40863514719128       -2.30883952738530       -2.18196595936430
C            1.03855644689114       -3.01692299723321       -3.17777382715790
N            1.75849586651136       -2.09233720826934       -3.85843339012471
N            1.60203290689606       -0.90480586889339       -3.35359597967024
N            2.62072674769894       -2.31266635809453       -4.85996204219222
H            1.11427823540526       -0.76461833285019        0.35906619121976
H            1.01354136003879        0.99421796419509        0.34927146916253
H            2.34715283571696        0.19269969365487       -0.47642597825539
H           -0.61284584304960        0.04943611088877       -1.27205127816405
H            0.64471555933167        1.00049272837708       -2.10874990856861
H           -0.26208205918420       -2.63759243552547       -1.41395339049053
H            1.02107275470230       -4.05747895348841       -3.42772702294369
H            2.93695707586880       -1.46730349646323       -5.32331260388644
H            2.38947969017019       -3.08063288010926       -5.47968963272749
17
 energy: -24.397792883643 gnorm: 0.001902125443 xtb: 6.7.1 (edcfbbe)
C            1.28917821495583        0.12338222448298       -0.24250441470164
C            0.44910530667845        0.10741818023244       -1.51632691904826
N            0.78672491411718       -1.02979028608694       -2.33714537483626
C            0.40773549187231       -2.30857696274507       -2.18131816612793
C            1.03992838726409       -3.01722880050213       -3.17591091344432
N            1.75792068531983       -2.09290531799445       -3.85744012171324
N            1.59919055440572       -0.90466599152171       -3.35431535842499
N            2.61903546918402       -2.31110374371150       -4.86071966972028
H            1.11386036493782       -0.76720412918257        0.35552106197620
H            1.01766247255224        0.99196354593971        0.34932723069962
H            2.34751635717207        0.18862889629986       -0.48057247897439
H           -0.61391005131351        0.05453163529575       -1.27255442828414
H            0.64540231926718        1.00123891520130       -2.11033581865114
H           -0.26140176868776       -2.64016020557722       -1.41379317161126
H            1.02279660320625       -4.05838357239711       -3.42183487794893
H            2.93763134630025       -1.46426592240007       -5.31719165142257
H            2.39134333276806       -3.07836846533328       -5.48033492776645
17
 energy: -24.397799722047 gnorm: 0.001148059920 xtb: 6.7.1 (edcfbbe)
C            1.28997645763865        0.12129039603165       -0.24519708111205
C            0.44797780240735        0.10884702679642       -1.51695826453408
N            0.78260797895098       -1.02973791245284       -2.33789340451127
C            0.40658802752497       -2.30855417472898       -2.18071117606610
C            1.04124417608026       -3.01737335779771       -3.17416920540298
N            1.75689578821678       -2.09346214561280       -3.85634747085943
N            1.59586569435240       -0.90491625939852       -3.35498951259916
N            2.61742099765094       -2.30979137359874       -4.86130844578608
H            1.11316726413613       -0.76969263786003        0.35185558759394
H            1.02302246397206        0.98953434926960        0.34897529281157
H            2.34805170608835        0.18360825373256       -0.48543926043595
H           -0.61508772098368        0.05927079101783       -1.27288108581431
H            0.64557933788603        1.00122332269967       -2.11272172174552
H           -0.26145382022194       -2.64018798840151       -1.41288516954649
H            1.02716595726217       -4.05902957933929       -3.41699686345276
H            2.93848503572080       -1.46014634542729       -5.30902708382655
H            2.39221285331775       -3.07637236493005       -5.48075513471275
17
 energy: -24.397801319380 gnorm: 0.000396431203 xtb: 6.7.1 (edcfbbe)
C            1.29013814449072        0.12124510578921       -0.24523404822284
C            0.44793252743120        0.10853736274134       -1.51684797526763
N            0.78268211772393       -1.02979665395961       -2.33810529521384
C            0.40669790150262       -2.30878067143612       -2.18067498972733
C            1.04089983568477       -3.01739020581020       -3.17434035298335
N            1.75649715797703       -2.09314717227815       -3.85668487685370
N            1.59534706068212       -0.90466346025915       -3.35547569887183
N            2.61774586304303       -2.30979625932686       -4.86069593678604
H            1.11325012960067       -0.76935802777630        0.35234553635036
H            1.02319732649076        0.98983907879141        0.34847541598430
H            2.34820125667659        0.18337328096944       -0.48543536429336
H           -0.61503344741301        0.05828730247659       -1.27240467044761
H            0.64520936220271        1.00104219826496       -2.11248768559917
H           -0.26187445902603       -2.63884478828114       -1.41229292771923
H            1.02776527119685       -4.05899295176942       -3.41825717444035
H            2.93895359592634       -1.46027777973727       -5.30904551539602
H            2.39211035580975       -3.07676635839877       -5.48028844051234
