      -----------------------------------------------------------      
     |                   =====================                   |     
     |                           x T B                           |     
     |                   =====================                   |     
     |                         S. Grimme                         |     
     |          Mulliken Center for Theoretical Chemistry        |     
     |                    University of Bonn                     |     
      -----------------------------------------------------------      

   * xtb version 6.7.1 (edcfbbe) compiled by 'conda@3ef47c1a292c' on 2024-11-25

   xtb is free software: you can redistribute it and/or modify it under
   the terms of the GNU Lesser General Public License as published by
   the Free Software Foundation, either version 3 of the License, or
   (at your option) any later version.
   
   xtb is distributed in the hope that it will be useful,
   but WITHOUT ANY WARRANTY; without even the implied warranty of
   MERCHANTABILITY or FITNESS FOR A PARTICULAR PURPOSE.  See the
   GNU Lesser General Public License for more details.
   
   Cite this work as:
   * C. Bannwarth, E. Caldeweyher, S. Ehlert, A. Hansen, P. Pracht,
     J. Seibert, S. Spicher, S. Grimme, WIREs Comput. Mol. Sci., 2020, 11,
     e01493. DOI: 10.1002/wcms.1493
   
   for GFN2-xTB:
   * C. Bannwarth, S. Ehlert and S. Grimme., J. Chem. Theory Comput., 2019,
     15, 1652-1671. DOI: 10.1021/acs.jctc.8b01176
   for GFN1-xTB:
   * S. Grimme, C. Bannwarth, P. Shushkov, J. Chem. Theory Comput., 2017,
     13, 1989-2009. DOI: 10.1021/acs.jctc.7b00118
   for GFN0-xTB:
   * P. Pracht, E. Caldeweyher, S. Ehlert, S. Grimme, ChemRxiv, 2019, preprint.
     DOI: 10.26434/chemrxiv.8326202.v1
   for GFN-FF:
   * S. Spicher and S. Grimme, Angew. Chem. Int. Ed., 2020, 59, 15665-15673.
     DOI: 10.1002/anie.202004239
   
   for ALPB and GBSA implicit solvation:
   * S. Ehlert, M. Stahn, S. Spicher, S. Grimme, J. Chem. Theory Comput.,
     2021, 17, 4250-4261. DOI: 10.1021/acs.jctc.1c00471
   
   for ddCOSMO and CPCM-X implicit solvation:
   * M. Stahn, S. Ehlert, S. Grimme, J. Phys. Chem. A,
     2023, XX, XXXX-XXXX. DOI: 10.1021/acs.jpca.3c04382
   
   for DFT-D4:
   * E. Caldeweyher, C. Bannwarth and S. Grimme, J. Chem. Phys., 2017,
     147, 034112. DOI: 10.1063/1.4993215
   * E. Caldeweyher, S. Ehlert, A. Hansen, H. Neugebauer, S. Spicher,
     C. Bannwarth and S. Grimme, J. Chem. Phys., 2019, 150, 154122.
     DOI: 10.1063/1.5090222
   * E. Caldeweyher, J.-M. Mewes, S. Ehlert and S. Grimme, Phys. Chem. Chem. Phys.
     2020, 22, 8499-8512. DOI: 10.1039/D0CP00502A
   
   for sTDA-xTB:
   * S. Grimme and C. Bannwarth, J. Chem. Phys., 2016, 145, 054103.
     DOI: 10.1063/1.4959605
   
   in the mass-spec context:
   * V. Asgeirsson, C. Bauer and S. Grimme, Chem. Sci., 2017, 8, 4879.
     DOI: 10.1039/c7sc00601b
   * J. Koopman and S. Grimme, ACS Omega 2019, 4, 12, 15120-15133.
     DOI: 10.1021/acsomega.9b02011
   
   for metadynamics refer to:
   * S. Grimme, J. Chem. Theory Comput., 2019, 155, 2847-2862
     DOI: 10.1021/acs.jctc.9b00143
   
   for SPH calculations refer to:
   * S. Spicher and S. Grimme, J. Chem. Theory Comput., 2021, 17, 1701-1714
     DOI: 10.1021/acs.jctc.0c01306
   
   for ONIOM refer to:
   * C. Plett, A. Katbashev, S. Ehlert, S. Grimme, M. Bursch,
     Phys. Chem. Chem. Phys., 2023, 25, 17860-17868. DOI: 10.1039/D3CP02178E
   
   for DIPRO refer to:
   * J. Kohn, N. Gildemeister, S. Grimme, D. Fazzi, A. Hansen,
     J. Chem. Phys., 2023, just accepted.
   
   for PTB refer to:
   * S. Grimme, M. Mueller, A. Hansen, J. Chem. Phys., 2023, 158, 124111.
     DOI: 10.1063/5.0137838
   
   with help from (in alphabetical order)
   P. Atkinson, C. Bannwarth, F. Bohle, G. Brandenburg, E. Caldeweyher
   M. Checinski, S. Dohm, S. Ehlert, S. Ehrlich, I. Gerasimov, C. Hölzer
   A. Katbashev, J. Kohn, J. Koopman, C. Lavigne, S. Lehtola, F. März, M. Müller,
   F. Musil, H. Neugebauer, J. Pisarek, C. Plett, P. Pracht, F. Pultar,
   J. Seibert, P. Shushkov, S. Spicher, M. Stahn, M. Steiner, T. Strunk,
   J. Stückrath, T. Rose, and J. Unsleber
   
 * started run on 2024/12/20 at 02:03:17.742     
   ID    Z sym.   atoms
    1    6 C      1-3, 5-8, 10, 12-18, 21, 23-26
    2    7 N      4, 9, 22
    3    8 O      11, 19, 20
    4    1 H      27-54

           -------------------------------------------------
          |                Calculation Setup                |
           -------------------------------------------------

          program call               : xtb C0027.xyz --opt --namespace C0027 --charge +1
          calculation namespace      : C0027
          coordinate file            : C0027.xyz
          omp threads                :                     8


           -------------------------------------------------
          |                 G F N 2 - x T B                 |
           -------------------------------------------------

        Reference                      10.1021/acs.jctc.8b01176
      * Hamiltonian:
        H0-scaling (s, p, d)           1.850000    2.230000    2.230000
        zeta-weighting                 0.500000
      * Dispersion:
        s8                             2.700000
        a1                             0.520000
        a2                             5.000000
        s9                             5.000000
      * Repulsion:
        kExp                           1.500000    1.000000
        rExp                           1.000000
      * Coulomb:
        alpha                          2.000000
        third order                    shell-resolved
        anisotropic                    true
        a3                             3.000000
        a5                             4.000000
        cn-shift                       1.200000
        cn-exp                         4.000000
        max-rad                        5.000000


          ...................................................
          :                      SETUP                      :
          :.................................................:
          :  # basis functions                 132          :
          :  # atomic orbitals                 132          :
          :  # shells                           80          :
          :  # electrons                       140          :
          :  max. iterations                   250          :
          :  Hamiltonian                  GFN2-xTB          :
          :  restarted?                      false          :
          :  GBSA solvation                  false          :
          :  PC potential                    false          :
          :  electronic temp.          300.0000000     K    :
          :  accuracy                    1.0000000          :
          :  -> integral cutoff          0.2500000E+02      :
          :  -> integral neglect         0.1000000E-07      :
          :  -> SCF convergence          0.1000000E-05 Eh   :
          :  -> wf. convergence          0.1000000E-03 e    :
          :  Broyden damping             0.4000000          :
          :  net charge                          1          :
          :  unpaired electrons                  0          :
          ...................................................

 iter      E             dE          RMSdq      gap      omega  full diag
   1    -78.5648114 -0.785648E+02  0.372E+00    2.74       0.0  T
   2    -78.7276592 -0.162848E+00  0.216E+00    3.17       1.0  T
   3    -78.7359416 -0.828246E-02  0.116E+00    2.70       1.0  T
   4    -78.7408216 -0.487999E-02  0.248E-01    2.27       1.0  T
   5    -78.7430773 -0.225562E-02  0.910E-02    2.43       1.0  T
   6    -78.7432283 -0.151007E-03  0.431E-02    2.43       1.0  T
   7    -78.7432319 -0.366113E-05  0.206E-02    2.45       1.0  T
   8    -78.7432445 -0.125449E-04  0.531E-03    2.45       2.6  T
   9    -78.7432450 -0.538969E-06  0.244E-03    2.45       5.6  T
  10    -78.7432451 -0.520708E-07  0.117E-03    2.45      11.6  T
  11    -78.7432451 -0.263874E-07  0.467E-04    2.45      29.1  T
  12    -78.7432451 -0.297062E-08  0.201E-04    2.45      67.7  T

   *** convergence criteria satisfied after 12 iterations ***

         #    Occupation            Energy/Eh            Energy/eV
      -------------------------------------------------------------
         1        2.0000           -0.8764189             -23.8486
       ...           ...                  ...                  ...
        64        2.0000           -0.5310296             -14.4501
        65        2.0000           -0.5235582             -14.2467
        66        2.0000           -0.5066377             -13.7863
        67        2.0000           -0.5030578             -13.6889
        68        2.0000           -0.4930339             -13.4161
        69        2.0000           -0.4910311             -13.3616
        70        2.0000           -0.4884394             -13.2911 (HOMO)
        71                         -0.3983826             -10.8405 (LUMO)
        72                         -0.3676329             -10.0038
        73                         -0.3644821              -9.9181
        74                         -0.3517393              -9.5713
        75                         -0.3112821              -8.4704
       ...                                ...                  ...
       132                          0.5514869              15.0067
      -------------------------------------------------------------
                  HL-Gap            0.0900568 Eh            2.4506 eV
             Fermi-level           -0.4434110 Eh          -12.0658 eV

 SCC (total)                   0 d,  0 h,  0 min,  0.048 sec
 SCC setup                      ...        0 min,  0.000 sec (  0.377%)
 Dispersion                     ...        0 min,  0.001 sec (  1.713%)
 classical contributions        ...        0 min,  0.000 sec (  0.188%)
 integral evaluation            ...        0 min,  0.003 sec (  6.935%)
 iterations                     ...        0 min,  0.033 sec ( 69.188%)
 molecular gradient             ...        0 min,  0.010 sec ( 21.201%)
 printout                       ...        0 min,  0.000 sec (  0.362%)

         :::::::::::::::::::::::::::::::::::::::::::::::::::::
         ::                     SUMMARY                     ::
         :::::::::::::::::::::::::::::::::::::::::::::::::::::
         :: total energy             -77.718940316470 Eh    ::
         :: gradient norm              0.095045881590 Eh/a0 ::
         :: HOMO-LUMO gap              2.450570538436 eV    ::
         ::.................................................::
         :: SCC energy               -78.742505253490 Eh    ::
         :: -> isotropic ES            0.145756628742 Eh    ::
         :: -> anisotropic ES         -0.002470589859 Eh    ::
         :: -> anisotropic XC          0.038123850334 Eh    ::
         :: -> dispersion             -0.055105253069 Eh    ::
         :: repulsion energy           1.023564937020 Eh    ::
         :: add. restraining           0.000000000000 Eh    ::
         :: total charge               1.000000000000 e     ::
         :::::::::::::::::::::::::::::::::::::::::::::::::::::

      ----------------------------------------------------------- 
     |                   =====================                   |
     |                        A N C O P T                        |
     |                   =====================                   |
     |               Approximate Normal Coordinate               |
     |                Rational Function Optimizer                |
      ----------------------------------------------------------- 
      ----------------------------------------------------------- 
     |                   =====================                   |
     |                        A N C O P T                        |
     |                   =====================                   |
     |               Approximate Normal Coordinate               |
     |                Rational Function Optimizer                |
      ----------------------------------------------------------- 

          ...................................................
          :                      SETUP                      :
          :.................................................:
          :   optimization level            normal          :
          :   max. optcycles                   200          :
          :   ANC micro-cycles                  20          :
          :   degrees of freedom               156          :
          :.................................................:
          :   RF solver                   davidson          :
          :   write xtbopt.log                true          :
          :   linear?                        false          :
          :   energy convergence         0.5000000E-05 Eh   :
          :   grad. convergence          0.1000000E-02 Eh/α :
          :   maxmium RF displ.          1.0000000          :
          :   Hlow (freq-cutoff)         0.1000000E-01      :
          :   Hmax (freq-cutoff)         5.0000000          :
          :   S6 in model hess.         20.0000000          :
          ...................................................

generating ANC from exact Hessian ...
Using Lindh-Hessian (1995)
 Shifting diagonal of input Hessian by    9.8800347417521833E-003
 Lowest  eigenvalues of input Hessian
    0.000000    0.000000    0.000000    0.000000    0.000000    0.000000
    0.010000    0.010263    0.010336    0.010571    0.010689    0.010825
    0.011294    0.011413    0.011498    0.011671    0.012168    0.013407
 Highest eigenvalues
    1.928220    1.973852    2.037000    2.112178    2.224246    2.235499


........................................................................
.............................. CYCLE    1 ..............................
........................................................................

 iter      E             dE          RMSdq      gap      omega  full diag
   1    -78.7432451 -0.787432E+02  0.836E-05    2.45       0.0  T
   2    -78.7432451 -0.707985E-10  0.517E-05    2.45     263.1  T
   3    -78.7432451 -0.391225E-10  0.349E-05    2.45     389.4  T
     SCC iter.                  ...        0 min,  0.009 sec
     gradient                   ...        0 min,  0.012 sec
 * total energy  :   -77.7189403 Eh     change       -0.9472245E-09 Eh
   gradient norm :     0.0950464 Eh/α   predicted     0.0000000E+00 (-100.00%)
   displ. norm   :     0.3136122 α      lambda       -0.1616124E-01
   maximum displ.:     0.0876488 α      in ANC's #17, #36, #15, ...

........................................................................
.............................. CYCLE    2 ..............................
........................................................................

 iter      E             dE          RMSdq      gap      omega  full diag
   1    -78.7949524 -0.787950E+02  0.206E-01    2.59       0.0  T
   2    -78.7951605 -0.208154E-03  0.120E-01    2.60       1.0  T
   3    -78.7951561  0.444695E-05  0.510E-02    2.60       1.0  T
   4    -78.7951882 -0.321053E-04  0.731E-03    2.61       1.9  T
   5    -78.7951895 -0.125786E-05  0.375E-03    2.61       3.6  T
   6    -78.7951896 -0.128738E-06  0.215E-03    2.61       6.3  T
   7    -78.7951897 -0.889899E-07  0.526E-04    2.61      25.9  T
   8    -78.7951897 -0.307575E-08  0.236E-04    2.61      57.5  T
     SCC iter.                  ...        0 min,  0.019 sec
     gradient                   ...        0 min,  0.010 sec
 * total energy  :   -77.7291674 Eh     change       -0.1022704E-01 Eh
   gradient norm :     0.0355901 Eh/α   predicted    -0.8881459E-02 ( -13.16%)
   displ. norm   :     0.3058567 α      lambda       -0.4308152E-02
   maximum displ.:     0.1234792 α      in ANC's #15, #13, #17, ...

........................................................................
.............................. CYCLE    3 ..............................
........................................................................

 iter      E             dE          RMSdq      gap      omega  full diag
   1    -78.8207822 -0.788208E+02  0.138E-01    2.67       0.0  T
   2    -78.8208616 -0.794307E-04  0.792E-02    2.67       1.0  T
   3    -78.8208595  0.212610E-05  0.294E-02    2.67       1.0  T
   4    -78.8208681 -0.860906E-05  0.444E-03    2.68       3.1  T
   5    -78.8208688 -0.715127E-06  0.205E-03    2.68       6.6  T
   6    -78.8208689 -0.627268E-07  0.104E-03    2.68      13.0  T
   7    -78.8208689 -0.204869E-07  0.291E-04    2.68      46.8  T
   8    -78.8208689 -0.952213E-09  0.126E-04    2.68     108.0  T
     SCC iter.                  ...        0 min,  0.020 sec
     gradient                   ...        0 min,  0.010 sec
 * total energy  :   -77.7316473 Eh     change       -0.2479927E-02 Eh
   gradient norm :     0.0190983 Eh/α   predicted    -0.2356262E-02 (  -4.99%)
   displ. norm   :     0.2743474 α      lambda       -0.1268024E-02
   maximum displ.:     0.1124905 α      in ANC's #15, #11, #17, ...

........................................................................
.............................. CYCLE    4 ..............................
........................................................................

 iter      E             dE          RMSdq      gap      omega  full diag
   1    -78.8220545 -0.788221E+02  0.741E-02    2.69       0.0  T
   2    -78.8220704 -0.158852E-04  0.427E-02    2.69       1.0  T
   3    -78.8220695  0.866061E-06  0.113E-02    2.69       1.2  T
   4    -78.8220708 -0.125834E-05  0.304E-03    2.69       4.5  T
   5    -78.8220713 -0.510978E-06  0.962E-04    2.69      14.2  T
   6    -78.8220713 -0.910347E-08  0.505E-04    2.69      26.9  T
     SCC iter.                  ...        0 min,  0.014 sec
     gradient                   ...        0 min,  0.010 sec
 * total energy  :   -77.7325701 Eh     change       -0.9228374E-03 Eh
   gradient norm :     0.0093608 Eh/α   predicted    -0.6817423E-03 ( -26.13%)
   displ. norm   :     0.3734565 α      lambda       -0.9984142E-03
   maximum displ.:     0.1595573 α      in ANC's #4, #11, #15, ...

........................................................................
.............................. CYCLE    5 ..............................
........................................................................

 iter      E             dE          RMSdq      gap      omega  full diag
   1    -78.8197932 -0.788198E+02  0.748E-02    2.69       0.0  T
   2    -78.8198064 -0.131610E-04  0.433E-02    2.68       1.0  T
   3    -78.8198054  0.969403E-06  0.977E-03    2.68       1.4  T
   4    -78.8198070 -0.152881E-05  0.287E-03    2.68       4.7  T
   5    -78.8198074 -0.401961E-06  0.107E-03    2.68      12.8  T
   6    -78.8198074 -0.977336E-08  0.493E-04    2.68      27.6  T
   7    -78.8198074 -0.362272E-08  0.149E-04    2.68      91.3  T
     SCC iter.                  ...        0 min,  0.017 sec
     gradient                   ...        0 min,  0.010 sec
 * total energy  :   -77.7332802 Eh     change       -0.7100916E-03 Eh
   gradient norm :     0.0099104 Eh/α   predicted    -0.5688460E-03 ( -19.89%)
   displ. norm   :     0.3563596 α      lambda       -0.6201513E-03
   maximum displ.:     0.1846193 α      in ANC's #4, #11, #13, ...

........................................................................
.............................. CYCLE    6 ..............................
........................................................................

 iter      E             dE          RMSdq      gap      omega  full diag
   1    -78.8191032 -0.788191E+02  0.636E-02    2.68       0.0  T
   2    -78.8191153 -0.120505E-04  0.367E-02    2.67       1.0  T
   3    -78.8191140  0.125662E-05  0.106E-02    2.67       1.3  T
   4    -78.8191159 -0.187583E-05  0.323E-03    2.67       4.2  T
   5    -78.8191163 -0.448242E-06  0.101E-03    2.67      13.5  T
   6    -78.8191163 -0.535903E-08  0.453E-04    2.67      30.0  T
   7    -78.8191163 -0.218064E-08  0.151E-04    2.67      90.3  T
     SCC iter.                  ...        0 min,  0.019 sec
     gradient                   ...        0 min,  0.010 sec
 * total energy  :   -77.7337599 Eh     change       -0.4796318E-03 Eh
   gradient norm :     0.0109678 Eh/α   predicted    -0.3494732E-03 ( -27.14%)
   displ. norm   :     0.4070594 α      lambda       -0.6285494E-03
   maximum displ.:     0.2328740 α      in ANC's #4, #11, #5, ...

........................................................................
.............................. CYCLE    7 ..............................
........................................................................

 iter      E             dE          RMSdq      gap      omega  full diag
   1    -78.8196624 -0.788197E+02  0.821E-02    2.67       0.0  T
   2    -78.8196868 -0.244295E-04  0.471E-02    2.65       1.0  T
   3    -78.8196840  0.282807E-05  0.160E-02    2.65       1.0  T
   4    -78.8196880 -0.397112E-05  0.476E-03    2.65       2.9  T
   5    -78.8196891 -0.112988E-05  0.123E-03    2.65      11.1  T
   6    -78.8196891 -0.717463E-08  0.554E-04    2.65      24.5  T
   7    -78.8196891 -0.311320E-08  0.201E-04    2.65      67.7  T
     SCC iter.                  ...        0 min,  0.017 sec
     gradient                   ...        0 min,  0.014 sec
 * total energy  :   -77.7342588 Eh     change       -0.4989899E-03 Eh
   gradient norm :     0.0095068 Eh/α   predicted    -0.3663535E-03 ( -26.58%)
   displ. norm   :     0.4401661 α      lambda       -0.6185880E-03
   maximum displ.:     0.2707537 α      in ANC's #4, #11, #5, ...

........................................................................
.............................. CYCLE    8 ..............................
........................................................................

 iter      E             dE          RMSdq      gap      omega  full diag
   1    -78.8217598 -0.788218E+02  0.101E-01    2.64       0.0  T
   2    -78.8217816 -0.217152E-04  0.581E-02    2.63       1.0  T
   3    -78.8217739  0.764420E-05  0.182E-02    2.62       1.0  T
   4    -78.8217836 -0.970731E-05  0.472E-03    2.62       2.9  T
   5    -78.8217847 -0.109210E-05  0.136E-03    2.62      10.0  T
   6    -78.8217847 -0.728716E-08  0.620E-04    2.62      21.9  T
   7    -78.8217847 -0.438024E-08  0.217E-04    2.62      62.6  T
     SCC iter.                  ...        0 min,  0.018 sec
     gradient                   ...        0 min,  0.010 sec
 * total energy  :   -77.7347438 Eh     change       -0.4849279E-03 Eh
   gradient norm :     0.0071909 Eh/α   predicted    -0.3692224E-03 ( -23.86%)
   displ. norm   :     0.4331427 α      lambda       -0.5175328E-03
   maximum displ.:     0.2788734 α      in ANC's #4, #5, #11, ...

........................................................................
.............................. CYCLE    9 ..............................
........................................................................

 iter      E             dE          RMSdq      gap      omega  full diag
   1    -78.8238033 -0.788238E+02  0.108E-01    2.62       0.0  T
   2    -78.8238184 -0.150872E-04  0.630E-02    2.60       1.0  T
   3    -78.8238078  0.105369E-04  0.177E-02    2.60       1.0  T
   4    -78.8238207 -0.128565E-04  0.397E-03    2.60       3.4  T
   5    -78.8238214 -0.764745E-06  0.130E-03    2.60      10.5  T
   6    -78.8238215 -0.466426E-08  0.488E-04    2.60      27.9  T
   7    -78.8238215 -0.329344E-08  0.207E-04    2.60      65.9  T
     SCC iter.                  ...        0 min,  0.017 sec
     gradient                   ...        0 min,  0.010 sec
 * total energy  :   -77.7351456 Eh     change       -0.4018119E-03 Eh
   gradient norm :     0.0077263 Eh/α   predicted    -0.3073164E-03 ( -23.52%)
   displ. norm   :     0.3977429 α      lambda       -0.4077291E-03
   maximum displ.:     0.2605877 α      in ANC's #4, #5, #14, ...

........................................................................
.............................. CYCLE   10 ..............................
........................................................................

 iter      E             dE          RMSdq      gap      omega  full diag
   1    -78.8260343 -0.788260E+02  0.106E-01    2.59       0.0  T
   2    -78.8260391 -0.482800E-05  0.622E-02    2.59       1.0  T
   3    -78.8260268  0.123369E-04  0.160E-02    2.59       1.0  T
   4    -78.8260415 -0.147339E-04  0.189E-03    2.59       7.2  T
   5    -78.8260416 -0.254704E-07  0.991E-04    2.59      13.7  T
   6    -78.8260416 -0.468276E-08  0.456E-04    2.59      29.9  T
     SCC iter.                  ...        0 min,  0.014 sec
     gradient                   ...        0 min,  0.010 sec
 * total energy  :   -77.7354431 Eh     change       -0.2975580E-03 Eh
   gradient norm :     0.0067564 Eh/α   predicted    -0.2361171E-03 ( -20.65%)
   displ. norm   :     0.3592614 α      lambda       -0.2787741E-03
   maximum displ.:     0.2329509 α      in ANC's #4, #5, #14, ...

........................................................................
.............................. CYCLE   11 ..............................
........................................................................

 iter      E             dE          RMSdq      gap      omega  full diag
   1    -78.8254899 -0.788255E+02  0.906E-02    2.58       0.0  T
   2    -78.8254979 -0.794995E-05  0.531E-02    2.58       1.0  T
   3    -78.8254896  0.826417E-05  0.142E-02    2.57       1.0  T
   4    -78.8254996 -0.100029E-04  0.278E-03    2.57       4.9  T
   5    -78.8255000 -0.389910E-06  0.105E-03    2.57      13.0  T
   6    -78.8255000 -0.521428E-08  0.459E-04    2.57      29.6  T
   7    -78.8255000 -0.300332E-08  0.154E-04    2.57      88.4  T
     SCC iter.                  ...        0 min,  0.017 sec
     gradient                   ...        0 min,  0.010 sec
 * total energy  :   -77.7356165 Eh     change       -0.1733836E-03 Eh
   gradient norm :     0.0073315 Eh/α   predicted    -0.1573790E-03 (  -9.23%)
   displ. norm   :     0.2399255 α      lambda       -0.1743622E-03
   maximum displ.:     0.1443215 α      in ANC's #4, #5, #14, ...

........................................................................
.............................. CYCLE   12 ..............................
........................................................................

 iter      E             dE          RMSdq      gap      omega  full diag
   1    -78.8268873 -0.788269E+02  0.594E-02    2.56       0.0  T
   2    -78.8268942 -0.690744E-05  0.349E-02    2.57       1.0  T
   3    -78.8268913  0.297897E-05  0.101E-02    2.57       1.3  T
   4    -78.8268949 -0.363056E-05  0.235E-03    2.57       5.8  T
   5    -78.8268952 -0.332301E-06  0.661E-04    2.57      20.6  T
   6    -78.8268952 -0.705849E-08  0.328E-04    2.57      41.5  T
     SCC iter.                  ...        0 min,  0.016 sec
     gradient                   ...        0 min,  0.010 sec
 * total energy  :   -77.7357177 Eh     change       -0.1011625E-03 Eh
   gradient norm :     0.0049219 Eh/α   predicted    -0.9220060E-04 (  -8.86%)
   displ. norm   :     0.1249116 α      lambda       -0.6661512E-04
   maximum displ.:     0.0630604 α      in ANC's #4, #5, #3, ...

........................................................................
.............................. CYCLE   13 ..............................
........................................................................

 iter      E             dE          RMSdq      gap      omega  full diag
   1    -78.8264366 -0.788264E+02  0.244E-02    2.57       0.0  T
   2    -78.8264375 -0.930597E-06  0.143E-02    2.57       1.0  T
   3    -78.8264365  0.951263E-06  0.502E-03    2.57       2.7  T
   4    -78.8264377 -0.118284E-05  0.871E-04    2.57      15.6  T
   5    -78.8264378 -0.426859E-07  0.267E-04    2.57      50.9  T
   6    -78.8264378 -0.407184E-09  0.125E-04    2.57     108.9  T
     SCC iter.                  ...        0 min,  0.015 sec
     gradient                   ...        0 min,  0.010 sec
 * total energy  :   -77.7357685 Eh     change       -0.5084264E-04 Eh
   gradient norm :     0.0026326 Eh/α   predicted    -0.3382775E-04 ( -33.47%)
   displ. norm   :     0.1475061 α      lambda       -0.7153500E-04
   maximum displ.:     0.0742154 α      in ANC's #5, #6, #3, ...

........................................................................
.............................. CYCLE   14 ..............................
........................................................................

 iter      E             dE          RMSdq      gap      omega  full diag
   1    -78.8262188 -0.788262E+02  0.301E-02    2.56       0.0  T
   2    -78.8262199 -0.110232E-05  0.178E-02    2.56       1.0  T
   3    -78.8262179  0.199789E-05  0.671E-03    2.56       2.0  T
   4    -78.8262204 -0.246895E-05  0.843E-04    2.56      16.1  T
   5    -78.8262204 -0.267781E-07  0.348E-04    2.56      39.1  T
   6    -78.8262204 -0.185537E-09  0.147E-04    2.56      92.7  T
     SCC iter.                  ...        0 min,  0.015 sec
     gradient                   ...        0 min,  0.010 sec
 * total energy  :   -77.7358164 Eh     change       -0.4785748E-04 Eh
   gradient norm :     0.0027143 Eh/α   predicted    -0.3654877E-04 ( -23.63%)
   displ. norm   :     0.1051576 α      lambda       -0.3498369E-04
   maximum displ.:     0.0574335 α      in ANC's #5, #6, #3, ...

........................................................................
.............................. CYCLE   15 ..............................
........................................................................

 iter      E             dE          RMSdq      gap      omega  full diag
   1    -78.8253991 -0.788254E+02  0.222E-02    2.56       0.0  T
   2    -78.8253996 -0.476569E-06  0.131E-02    2.56       1.0  T
   3    -78.8253987  0.827484E-06  0.433E-03    2.56       3.1  T
   4    -78.8253997 -0.101187E-05  0.639E-04    2.56      21.3  T
   5    -78.8253998 -0.135169E-07  0.297E-04    2.56      45.7  T
   6    -78.8253998 -0.335802E-09  0.145E-04    2.56      93.8  T
     SCC iter.                  ...        0 min,  0.015 sec
     gradient                   ...        0 min,  0.010 sec
 * total energy  :   -77.7358417 Eh     change       -0.2527984E-04 Eh
   gradient norm :     0.0028855 Eh/α   predicted    -0.1768559E-04 ( -30.04%)
   displ. norm   :     0.1071422 α      lambda       -0.3245771E-04
   maximum displ.:     0.0550852 α      in ANC's #5, #6, #12, ...

........................................................................
.............................. CYCLE   16 ..............................
........................................................................

 iter      E             dE          RMSdq      gap      omega  full diag
   1    -78.8256548 -0.788257E+02  0.271E-02    2.56       0.0  T
   2    -78.8256557 -0.981986E-06  0.160E-02    2.55       1.0  T
   3    -78.8256547  0.105474E-05  0.492E-03    2.55       2.8  T
   4    -78.8256560 -0.128341E-05  0.980E-04    2.55      13.9  T
   5    -78.8256560 -0.481707E-07  0.395E-04    2.55      34.5  T
   6    -78.8256560 -0.459224E-09  0.198E-04    2.55      68.8  T
     SCC iter.                  ...        0 min,  0.015 sec
     gradient                   ...        0 min,  0.010 sec
 * total energy  :   -77.7358650 Eh     change       -0.2334781E-04 Eh
   gradient norm :     0.0022654 Eh/α   predicted    -0.1641632E-04 ( -29.69%)
   displ. norm   :     0.0916514 α      lambda       -0.2494547E-04
   maximum displ.:     0.0569434 α      in ANC's #5, #6, #3, ...

........................................................................
.............................. CYCLE   17 ..............................
........................................................................

 iter      E             dE          RMSdq      gap      omega  full diag
   1    -78.8254881 -0.788255E+02  0.225E-02    2.55       0.0  T
   2    -78.8254888 -0.688458E-06  0.132E-02    2.55       1.0  T
   3    -78.8254881  0.635417E-06  0.406E-03    2.55       3.4  T
   4    -78.8254889 -0.795604E-06  0.768E-04    2.55      17.7  T
   5    -78.8254890 -0.293990E-07  0.335E-04    2.55      40.7  T
     SCC iter.                  ...        0 min,  0.012 sec
     gradient                   ...        0 min,  0.010 sec
 * total energy  :   -77.7358835 Eh     change       -0.1844428E-04 Eh
   gradient norm :     0.0015419 Eh/α   predicted    -0.1257830E-04 ( -31.80%)
   displ. norm   :     0.1354062 α      lambda       -0.2030277E-04
   maximum displ.:     0.0877147 α      in ANC's #5, #6, #3, ...

........................................................................
.............................. CYCLE   18 ..............................
........................................................................

 iter      E             dE          RMSdq      gap      omega  full diag
   1    -78.8260158 -0.788260E+02  0.323E-02    2.55       0.0  T
   2    -78.8260169 -0.108163E-05  0.190E-02    2.55       1.0  T
   3    -78.8260153  0.160156E-05  0.581E-03    2.55       2.3  T
   4    -78.8260173 -0.195680E-05  0.921E-04    2.55      14.8  T
   5    -78.8260173 -0.331612E-07  0.429E-04    2.55      31.7  T
   6    -78.8260173 -0.921986E-09  0.213E-04    2.55      64.0  T
     SCC iter.                  ...        0 min,  0.014 sec
     gradient                   ...        0 min,  0.010 sec
 * total energy  :   -77.7359033 Eh     change       -0.1984609E-04 Eh
   gradient norm :     0.0019459 Eh/α   predicted    -0.1023515E-04 ( -48.43%)
   displ. norm   :     0.1021613 α      lambda       -0.1324390E-04
   maximum displ.:     0.0650735 α      in ANC's #5, #11, #3, ...

........................................................................
.............................. CYCLE   19 ..............................
........................................................................

 iter      E             dE          RMSdq      gap      omega  full diag
   1    -78.8261453 -0.788261E+02  0.204E-02    2.54       0.0  T
   2    -78.8261455 -0.186514E-06  0.120E-02    2.54       1.1  T
   3    -78.8261449  0.626704E-06  0.338E-03    2.54       4.0  T
   4    -78.8261456 -0.744202E-06  0.368E-04    2.54      36.9  T
   5    -78.8261456 -0.109496E-08  0.196E-04    2.54      69.4  T
     SCC iter.                  ...        0 min,  0.012 sec
     gradient                   ...        0 min,  0.010 sec
 * total energy  :   -77.7359196 Eh     change       -0.1633986E-04 Eh
   gradient norm :     0.0017063 Eh/α   predicted    -0.6653547E-05 ( -59.28%)
   displ. norm   :     0.1866855 α      lambda       -0.2151562E-04
   maximum displ.:     0.1161258 α      in ANC's #5, #11, #3, ...

........................................................................
.............................. CYCLE   20 ..............................
........................................................................

 iter      E             dE          RMSdq      gap      omega  full diag
   1    -78.8265654 -0.788266E+02  0.352E-02    2.54       0.0  T
   2    -78.8265660 -0.536092E-06  0.207E-02    2.54       1.0  T
   3    -78.8265642  0.173605E-05  0.547E-03    2.54       2.5  T
   4    -78.8265663 -0.205522E-05  0.643E-04    2.54      21.2  T
   5    -78.8265663 -0.621860E-08  0.352E-04    2.54      38.7  T
   6    -78.8265663 -0.527493E-09  0.110E-04    2.54     123.5  T
     SCC iter.                  ...        0 min,  0.014 sec
     gradient                   ...        0 min,  0.010 sec
 * total energy  :   -77.7359418 Eh     change       -0.2217534E-04 Eh
   gradient norm :     0.0013921 Eh/α   predicted    -0.1092679E-04 ( -50.73%)
   displ. norm   :     0.1751615 α      lambda       -0.1405188E-04
   maximum displ.:     0.1080112 α      in ANC's #5, #11, #3, ...
 * RMSD in coord.:     0.4987569 α      energy gain  -0.1700150E-01 Eh

generating ANC from exact Hessian ...
Using Lindh-Hessian (1995)
 Shifting diagonal of input Hessian by    9.9055005715743358E-003
 Lowest  eigenvalues of input Hessian
    0.000000    0.000000    0.000000    0.000000    0.000000    0.000000
    0.010000    0.010274    0.010367    0.010812    0.010883    0.011376
    0.011465    0.011621    0.011785    0.011881    0.012275    0.013626
 Highest eigenvalues
    2.023783    2.041290    2.157229    2.245634    2.299124    2.391238


........................................................................
.............................. CYCLE   21 ..............................
........................................................................

 iter      E             dE          RMSdq      gap      omega  full diag
   1    -78.8261960 -0.788262E+02  0.323E-02    2.54       0.0  T
   2    -78.8261966 -0.504022E-06  0.190E-02    2.54       1.0  T
   3    -78.8261953  0.120816E-05  0.475E-03    2.54       2.9  T
   4    -78.8261968 -0.142365E-05  0.653E-04    2.54      20.8  T
   5    -78.8261968 -0.133396E-07  0.300E-04    2.54      45.4  T
   6    -78.8261968 -0.208459E-09  0.106E-04    2.54     128.9  T
     SCC iter.                  ...        0 min,  0.015 sec
     gradient                   ...        0 min,  0.010 sec
 * total energy  :   -77.7359540 Eh     change       -0.1216244E-04 Eh
   gradient norm :     0.0015187 Eh/α   predicted     0.0000000E+00 (-100.00%)
   displ. norm   :     0.0239840 α      lambda       -0.7233674E-05
   maximum displ.:     0.0090347 α      in ANC's #10, #9, #12, ...

........................................................................
.............................. CYCLE   22 ..............................
........................................................................

 iter      E             dE          RMSdq      gap      omega  full diag
   1    -78.8266888 -0.788267E+02  0.894E-03    2.54       0.0  T
   2    -78.8266889 -0.876708E-07  0.526E-03    2.54       2.6  T
   3    -78.8266888  0.122091E-06  0.169E-03    2.54       8.0  T
   4    -78.8266889 -0.146049E-06  0.261E-04    2.54      52.1  T
   5    -78.8266889 -0.293018E-08  0.963E-05    2.54     141.3  T
     SCC iter.                  ...        0 min,  0.012 sec
     gradient                   ...        0 min,  0.010 sec
 * total energy  :   -77.7359608 Eh     change       -0.6821054E-05 Eh
   gradient norm :     0.0006425 Eh/α   predicted    -0.3973023E-05 ( -41.75%)
   displ. norm   :     0.0414870 α      lambda       -0.6201573E-05
   maximum displ.:     0.0180831 α      in ANC's #10, #9, #4, ...

........................................................................
.............................. CYCLE   23 ..............................
........................................................................

 iter      E             dE          RMSdq      gap      omega  full diag
   1    -78.8268815 -0.788269E+02  0.944E-03    2.54       0.0  T
   2    -78.8268816 -0.720241E-07  0.551E-03    2.54       2.5  T
   3    -78.8268814  0.135245E-06  0.181E-03    2.54       7.5  T
   4    -78.8268816 -0.167275E-06  0.240E-04    2.54      56.6  T
   5    -78.8268816 -0.140180E-08  0.124E-04    2.54     109.7  T
     SCC iter.                  ...        0 min,  0.012 sec
     gradient                   ...        0 min,  0.014 sec
 * total energy  :   -77.7359682 Eh     change       -0.7424541E-05 Eh
   gradient norm :     0.0009971 Eh/α   predicted    -0.3105418E-05 ( -58.17%)
   displ. norm   :     0.1216466 α      lambda       -0.1326351E-04
   maximum displ.:     0.0547993 α      in ANC's #10, #9, #11, ...

........................................................................
.............................. CYCLE   24 ..............................
........................................................................

 iter      E             dE          RMSdq      gap      omega  full diag
   1    -78.8265088 -0.788265E+02  0.259E-02    2.54       0.0  T
   2    -78.8265092 -0.367285E-06  0.152E-02    2.54       1.0  T
   3    -78.8265080  0.118492E-05  0.487E-03    2.54       2.8  T
   4    -78.8265094 -0.143392E-05  0.542E-04    2.54      25.1  T
   5    -78.8265094 -0.132609E-08  0.293E-04    2.54      46.4  T
   6    -78.8265094 -0.855167E-09  0.116E-04    2.54     117.4  T
     SCC iter.                  ...        0 min,  0.015 sec
     gradient                   ...        0 min,  0.010 sec
 * total energy  :   -77.7359817 Eh     change       -0.1348013E-04 Eh
   gradient norm :     0.0013687 Eh/α   predicted    -0.6683329E-05 ( -50.42%)
   displ. norm   :     0.1248609 α      lambda       -0.9517565E-05
   maximum displ.:     0.0581876 α      in ANC's #10, #11, #9, ...

........................................................................
.............................. CYCLE   25 ..............................
........................................................................

 iter      E             dE          RMSdq      gap      omega  full diag
   1    -78.8262627 -0.788263E+02  0.248E-02    2.54       0.0  T
   2    -78.8262631 -0.344529E-06  0.146E-02    2.55       1.0  T
   3    -78.8262622  0.905908E-06  0.411E-03    2.54       3.3  T
   4    -78.8262633 -0.109097E-05  0.512E-04    2.55      26.6  T
   5    -78.8262633 -0.219191E-08  0.267E-04    2.55      51.0  T
   6    -78.8262633 -0.287898E-09  0.114E-04    2.55     119.0  T
     SCC iter.                  ...        0 min,  0.015 sec
     gradient                   ...        0 min,  0.010 sec
 * total energy  :   -77.7359926 Eh     change       -0.1092883E-04 Eh
   gradient norm :     0.0013563 Eh/α   predicted    -0.4791967E-05 ( -56.15%)
   displ. norm   :     0.2154427 α      lambda       -0.1591469E-04
   maximum displ.:     0.0980847 α      in ANC's #10, #11, #8, ...

........................................................................
.............................. CYCLE   26 ..............................
........................................................................

 iter      E             dE          RMSdq      gap      omega  full diag
   1    -78.8257275 -0.788257E+02  0.419E-02    2.55       0.0  T
   2    -78.8257287 -0.118227E-05  0.246E-02    2.55       1.0  T
   3    -78.8257262  0.250171E-05  0.681E-03    2.55       2.0  T
   4    -78.8257292 -0.300975E-05  0.911E-04    2.55      14.9  T
   5    -78.8257292 -0.161182E-07  0.466E-04    2.55      29.2  T
   6    -78.8257292 -0.929106E-09  0.193E-04    2.55      70.6  T
     SCC iter.                  ...        0 min,  0.014 sec
     gradient                   ...        0 min,  0.010 sec
 * total energy  :   -77.7360102 Eh     change       -0.1752441E-04 Eh
   gradient norm :     0.0013399 Eh/α   predicted    -0.8188685E-05 ( -53.27%)
   displ. norm   :     0.2605456 α      lambda       -0.1998313E-04
   maximum displ.:     0.1166745 α      in ANC's #10, #11, #8, ...

........................................................................
.............................. CYCLE   27 ..............................
........................................................................

 iter      E             dE          RMSdq      gap      omega  full diag
   1    -78.8251007 -0.788251E+02  0.488E-02    2.56       0.0  T
   2    -78.8251023 -0.155717E-05  0.286E-02    2.56       1.0  T
   3    -78.8250995  0.283366E-05  0.735E-03    2.56       1.9  T
   4    -78.8251029 -0.340747E-05  0.107E-03    2.56      12.7  T
   5    -78.8251029 -0.298443E-07  0.519E-04    2.56      26.2  T
   6    -78.8251029 -0.123268E-08  0.207E-04    2.56      65.8  T
     SCC iter.                  ...        0 min,  0.015 sec
     gradient                   ...        0 min,  0.010 sec
 * total energy  :   -77.7360303 Eh     change       -0.2014058E-04 Eh
   gradient norm :     0.0020638 Eh/α   predicted    -0.1029348E-04 ( -48.89%)
   displ. norm   :     0.1200789 α      lambda       -0.2064602E-04
   maximum displ.:     0.0544026 α      in ANC's #11, #10, #6, ...

........................................................................
.............................. CYCLE   28 ..............................
........................................................................

 iter      E             dE          RMSdq      gap      omega  full diag
   1    -78.8255591 -0.788256E+02  0.213E-02    2.57       0.0  T
   2    -78.8255595 -0.352731E-06  0.125E-02    2.57       1.1  T
   3    -78.8255590  0.477294E-06  0.322E-03    2.57       4.2  T
   4    -78.8255596 -0.577103E-06  0.528E-04    2.57      25.8  T
   5    -78.8255596 -0.107770E-07  0.234E-04    2.57      58.1  T
     SCC iter.                  ...        0 min,  0.012 sec
     gradient                   ...        0 min,  0.010 sec
 * total energy  :   -77.7360470 Eh     change       -0.1672009E-04 Eh
   gradient norm :     0.0018572 Eh/α   predicted    -0.1049134E-04 ( -37.25%)
   displ. norm   :     0.3596018 α      lambda       -0.3301087E-04
   maximum displ.:     0.1699145 α      in ANC's #11, #10, #5, ...

........................................................................
.............................. CYCLE   29 ..............................
........................................................................

 iter      E             dE          RMSdq      gap      omega  full diag
   1    -78.8251598 -0.788252E+02  0.614E-02    2.58       0.0  T
   2    -78.8251618 -0.206475E-05  0.360E-02    2.58       1.0  T
   3    -78.8251583  0.353812E-05  0.843E-03    2.58       1.6  T
   4    -78.8251626 -0.425936E-05  0.130E-03    2.58      10.5  T
   5    -78.8251626 -0.435487E-07  0.633E-04    2.58      21.5  T
   6    -78.8251626 -0.275040E-08  0.252E-04    2.58      54.1  T
     SCC iter.                  ...        0 min,  0.014 sec
     gradient                   ...        0 min,  0.010 sec
 * total energy  :   -77.7360732 Eh     change       -0.2613587E-04 Eh
   gradient norm :     0.0024152 Eh/α   predicted    -0.1745980E-04 ( -33.20%)
   displ. norm   :     0.0600475 α      lambda       -0.2389660E-04
   maximum displ.:     0.0292079 α      in ANC's #2, #18, #5, ...

........................................................................
.............................. CYCLE   30 ..............................
........................................................................

 iter      E             dE          RMSdq      gap      omega  full diag
   1    -78.8267890 -0.788268E+02  0.135E-02    2.58       0.0  T
   2    -78.8267892 -0.192643E-06  0.784E-03    2.58       1.7  T
   3    -78.8267890  0.165699E-06  0.197E-03    2.58       6.9  T
   4    -78.8267892 -0.209278E-06  0.447E-04    2.58      30.4  T
   5    -78.8267892 -0.629198E-08  0.207E-04    2.58      65.8  T
     SCC iter.                  ...        0 min,  0.012 sec
     gradient                   ...        0 min,  0.010 sec
 * total energy  :   -77.7360852 Eh     change       -0.1204233E-04 Eh
   gradient norm :     0.0018722 Eh/α   predicted    -0.1199176E-04 (  -0.42%)
   displ. norm   :     0.1814638 α      lambda       -0.2176107E-04
   maximum displ.:     0.0899982 α      in ANC's #11, #5, #10, ...

........................................................................
.............................. CYCLE   31 ..............................
........................................................................

 iter      E             dE          RMSdq      gap      omega  full diag
   1    -78.8260799 -0.788261E+02  0.271E-02    2.58       0.0  T
   2    -78.8260805 -0.531552E-06  0.159E-02    2.58       1.0  T
   3    -78.8260798  0.695950E-06  0.411E-03    2.57       3.3  T
   4    -78.8260806 -0.841233E-06  0.757E-04    2.57      18.0  T
   5    -78.8260806 -0.189924E-07  0.319E-04    2.57      42.7  T
     SCC iter.                  ...        0 min,  0.012 sec
     gradient                   ...        0 min,  0.013 sec
 * total energy  :   -77.7361120 Eh     change       -0.2682996E-04 Eh
   gradient norm :     0.0011087 Eh/α   predicted    -0.1104078E-04 ( -58.85%)
   displ. norm   :     0.3027780 α      lambda       -0.3312981E-04
   maximum displ.:     0.1491648 α      in ANC's #11, #5, #13, ...

........................................................................
.............................. CYCLE   32 ..............................
........................................................................

 iter      E             dE          RMSdq      gap      omega  full diag
   1    -78.8249374 -0.788249E+02  0.431E-02    2.57       0.0  T
   2    -78.8249389 -0.144257E-05  0.253E-02    2.57       1.0  T
   3    -78.8249373  0.158336E-05  0.670E-03    2.57       2.0  T
   4    -78.8249392 -0.193610E-05  0.131E-03    2.57      10.4  T
   5    -78.8249393 -0.537147E-07  0.531E-04    2.57      25.6  T
   6    -78.8249393 -0.752763E-09  0.203E-04    2.57      67.1  T
     SCC iter.                  ...        0 min,  0.017 sec
     gradient                   ...        0 min,  0.011 sec
 * total energy  :   -77.7361389 Eh     change       -0.2690006E-04 Eh
   gradient norm :     0.0026873 Eh/α   predicted    -0.1724310E-04 ( -35.90%)
   displ. norm   :     0.0678257 α      lambda       -0.1953899E-04
   maximum displ.:     0.0311053 α      in ANC's #8, #6, #2, ...

........................................................................
.............................. CYCLE   33 ..............................
........................................................................

 iter      E             dE          RMSdq      gap      omega  full diag
   1    -78.8258130 -0.788258E+02  0.170E-02    2.56       0.0  T
   2    -78.8258132 -0.217433E-06  0.994E-03    2.56       1.4  T
   3    -78.8258129  0.378702E-06  0.288E-03    2.56       4.7  T
   4    -78.8258133 -0.455073E-06  0.396E-04    2.56      34.4  T
   5    -78.8258133 -0.481390E-08  0.174E-04    2.56      78.0  T
     SCC iter.                  ...        0 min,  0.016 sec
     gradient                   ...        0 min,  0.010 sec
 * total energy  :   -77.7361515 Eh     change       -0.1257299E-04 Eh
   gradient norm :     0.0020697 Eh/α   predicted    -0.9818273E-05 ( -21.91%)
   displ. norm   :     0.1080101 α      lambda       -0.1864681E-04
   maximum displ.:     0.0527876 α      in ANC's #5, #11, #2, ...

........................................................................
.............................. CYCLE   34 ..............................
........................................................................

 iter      E             dE          RMSdq      gap      omega  full diag
   1    -78.8258444 -0.788258E+02  0.171E-02    2.56       0.0  T
   2    -78.8258445 -0.120809E-06  0.101E-02    2.56       1.3  T
   3    -78.8258443  0.153250E-06  0.191E-03    2.56       7.1  T
   4    -78.8258445 -0.189010E-06  0.403E-04    2.56      33.8  T
   5    -78.8258445 -0.384313E-08  0.193E-04    2.56      70.4  T
     SCC iter.                  ...        0 min,  0.014 sec
     gradient                   ...        0 min,  0.011 sec
 * total energy  :   -77.7361676 Eh     change       -0.1607320E-04 Eh
   gradient norm :     0.0016713 Eh/α   predicted    -0.9432897E-05 ( -41.31%)
   displ. norm   :     0.4670284 α      lambda       -0.4927917E-04
   maximum displ.:     0.2190424 α      in ANC's #5, #11, #1, ...

........................................................................
.............................. CYCLE   35 ..............................
........................................................................

 iter      E             dE          RMSdq      gap      omega  full diag
   1    -78.8242443 -0.788242E+02  0.711E-02    2.55       0.0  T
   2    -78.8242463 -0.199509E-05  0.419E-02    2.55       1.0  T
   3    -78.8242450  0.128470E-05  0.607E-03    2.55       2.2  T
   4    -78.8242468 -0.173170E-05  0.168E-03    2.55       8.1  T
   5    -78.8242468 -0.694971E-07  0.823E-04    2.55      16.5  T
   6    -78.8242468 -0.445816E-08  0.238E-04    2.55      57.1  T
     SCC iter.                  ...        0 min,  0.016 sec
     gradient                   ...        0 min,  0.012 sec
 * total energy  :   -77.7361985 Eh     change       -0.3092984E-04 Eh
   gradient norm :     0.0034814 Eh/α   predicted    -0.2703207E-04 ( -12.60%)
   displ. norm   :     0.0775741 α      lambda       -0.2684927E-04
   maximum displ.:     0.0372533 α      in ANC's #11, #7, #5, ...

........................................................................
.............................. CYCLE   36 ..............................
........................................................................

 iter      E             dE          RMSdq      gap      omega  full diag
   1    -78.8258529 -0.788259E+02  0.144E-02    2.55       0.0  T
   2    -78.8258531 -0.230901E-06  0.835E-03    2.55       1.6  T
   3    -78.8258529  0.196193E-06  0.238E-03    2.55       5.7  T
   4    -78.8258532 -0.245289E-06  0.525E-04    2.55      25.9  T
   5    -78.8258532 -0.884663E-08  0.217E-04    2.55      62.8  T
     SCC iter.                  ...        0 min,  0.013 sec
     gradient                   ...        0 min,  0.010 sec
 * total energy  :   -77.7362119 Eh     change       -0.1338506E-04 Eh
   gradient norm :     0.0020331 Eh/α   predicted    -0.1351857E-04 (   1.00%)
   displ. norm   :     0.0508114 α      lambda       -0.1264288E-04
   maximum displ.:     0.0220778 α      in ANC's #1, #10, #11, ...

........................................................................
.............................. CYCLE   37 ..............................
........................................................................

 iter      E             dE          RMSdq      gap      omega  full diag
   1    -78.8259993 -0.788260E+02  0.766E-03    2.55       0.0  T
   2    -78.8259993 -0.350414E-07  0.452E-03    2.55       3.0  T
   3    -78.8259993  0.407290E-07  0.950E-04    2.55      14.3  T
   4    -78.8259993 -0.494417E-07  0.190E-04    2.55      71.6  T
     SCC iter.                  ...        0 min,  0.010 sec
     gradient                   ...        0 min,  0.010 sec
 * total energy  :   -77.7362230 Eh     change       -0.1113324E-04 Eh
   gradient norm :     0.0012074 Eh/α   predicted    -0.6342065E-05 ( -43.03%)
   displ. norm   :     0.3587010 α      lambda       -0.4066109E-04
   maximum displ.:     0.1600419 α      in ANC's #1, #11, #10, ...

........................................................................
.............................. CYCLE   38 ..............................
........................................................................

 iter      E             dE          RMSdq      gap      omega  full diag
   1    -78.8253273 -0.788253E+02  0.484E-02    2.55       0.0  T
   2    -78.8253285 -0.116663E-05  0.285E-02    2.55       1.0  T
   3    -78.8253280  0.506541E-06  0.404E-03    2.55       3.4  T
   4    -78.8253287 -0.704073E-06  0.116E-03    2.55      11.7  T
   5    -78.8253287 -0.412678E-07  0.544E-04    2.55      25.0  T
   6    -78.8253287 -0.234294E-08  0.189E-04    2.55      72.0  T
     SCC iter.                  ...        0 min,  0.014 sec
     gradient                   ...        0 min,  0.010 sec
 * total energy  :   -77.7362491 Eh     change       -0.2611231E-04 Eh
   gradient norm :     0.0036591 Eh/α   predicted    -0.2149290E-04 ( -17.69%)
   displ. norm   :     0.0308095 α      lambda       -0.1413210E-04
   maximum displ.:     0.0174797 α      in ANC's #1, #6, #7, ...

........................................................................
.............................. CYCLE   39 ..............................
........................................................................

 iter      E             dE          RMSdq      gap      omega  full diag
   1    -78.8258807 -0.788259E+02  0.601E-03    2.55       0.0  T
   2    -78.8258808 -0.516637E-07  0.350E-03    2.54       3.9  T
   3    -78.8258807  0.482457E-07  0.113E-03    2.54      12.1  T
   4    -78.8258808 -0.610593E-07  0.234E-04    2.54      58.1  T
   5    -78.8258808 -0.182374E-08  0.968E-05    2.54     140.5  T
     SCC iter.                  ...        0 min,  0.013 sec
     gradient                   ...        0 min,  0.010 sec
 * total energy  :   -77.7362603 Eh     change       -0.1116485E-04 Eh
   gradient norm :     0.0025450 Eh/α   predicted    -0.7077168E-05 ( -36.61%)
   displ. norm   :     0.1249758 α      lambda       -0.2579070E-04
   maximum displ.:     0.0721044 α      in ANC's #1, #9, #5, ...

........................................................................
.............................. CYCLE   40 ..............................
........................................................................

 iter      E             dE          RMSdq      gap      omega  full diag
   1    -78.8262457 -0.788262E+02  0.180E-02    2.54       0.0  T
   2    -78.8262460 -0.323758E-06  0.106E-02    2.54       1.3  T
   3    -78.8262456  0.431299E-06  0.327E-03    2.54       4.2  T
   4    -78.8262461 -0.529609E-06  0.577E-04    2.54      23.6  T
   5    -78.8262462 -0.114343E-07  0.229E-04    2.54      59.5  T
     SCC iter.                  ...        0 min,  0.013 sec
     gradient                   ...        0 min,  0.010 sec
 * total energy  :   -77.7362791 Eh     change       -0.1877170E-04 Eh
   gradient norm :     0.0006711 Eh/α   predicted    -0.1310417E-04 ( -30.19%)
   displ. norm   :     0.2896965 α      lambda       -0.2092210E-04
   maximum displ.:     0.1634777 α      in ANC's #1, #11, #9, ...

........................................................................
.............................. CYCLE   41 ..............................
........................................................................

 iter      E             dE          RMSdq      gap      omega  full diag
   1    -78.8257201 -0.788257E+02  0.371E-02    2.53       0.0  T
   2    -78.8257211 -0.967109E-06  0.218E-02    2.53       1.0  T
   3    -78.8257202  0.892107E-06  0.484E-03    2.53       2.8  T
   4    -78.8257213 -0.109539E-05  0.112E-03    2.53      12.1  T
   5    -78.8257213 -0.421401E-07  0.450E-04    2.53      30.2  T
   6    -78.8257213 -0.733166E-09  0.139E-04    2.53      97.8  T
     SCC iter.                  ...        0 min,  0.018 sec
     gradient                   ...        0 min,  0.010 sec
 * total energy  :   -77.7363006 Eh     change       -0.2151533E-04 Eh
   gradient norm :     0.0021428 Eh/α   predicted    -0.1085829E-04 ( -49.53%)
   displ. norm   :     0.1479089 α      lambda       -0.1693382E-04
   maximum displ.:     0.0940383 α      in ANC's #1, #9, #11, ...

........................................................................
.............................. CYCLE   42 ..............................
........................................................................

 iter      E             dE          RMSdq      gap      omega  full diag
   1    -78.8258548 -0.788259E+02  0.196E-02    2.53       0.0  T
   2    -78.8258550 -0.167120E-06  0.115E-02    2.53       1.2  T
   3    -78.8258549  0.644129E-07  0.146E-03    2.52       9.3  T
   4    -78.8258550 -0.898872E-07  0.471E-04    2.52      28.9  T
   5    -78.8258550 -0.710038E-08  0.211E-04    2.52      64.4  T
     SCC iter.                  ...        0 min,  0.012 sec
     gradient                   ...        0 min,  0.010 sec
 * total energy  :   -77.7363150 Eh     change       -0.1441237E-04 Eh
   gradient norm :     0.0021678 Eh/α   predicted    -0.8658262E-05 ( -39.92%)
   displ. norm   :     0.2129910 α      lambda       -0.2875467E-04
   maximum displ.:     0.1420039 α      in ANC's #1, #9, #11, ...
 * RMSD in coord.:     0.4048364 α      energy gain  -0.3731812E-03 Eh

generating ANC from exact Hessian ...
Using Lindh-Hessian (1995)
 Shifting diagonal of input Hessian by    9.9040885141919045E-003
 Lowest  eigenvalues of input Hessian
    0.000000    0.000000    0.000000    0.000000    0.000000    0.000000
    0.010000    0.010277    0.010375    0.010793    0.010882    0.011395
    0.011491    0.011633    0.011862    0.011926    0.012345    0.013597
 Highest eigenvalues
    2.025189    2.044531    2.158780    2.247330    2.299548    2.393760


........................................................................
.............................. CYCLE   43 ..............................
........................................................................

 iter      E             dE          RMSdq      gap      omega  full diag
   1    -78.8259753 -0.788260E+02  0.302E-02    2.52       0.0  T
   2    -78.8259755 -0.234612E-06  0.178E-02    2.52       1.0  T
   3    -78.8259755  0.353620E-07  0.141E-03    2.52       9.7  T
   4    -78.8259756 -0.782210E-07  0.554E-04    2.52      24.6  T
   5    -78.8259756 -0.728635E-08  0.284E-04    2.52      47.9  T
     SCC iter.                  ...        0 min,  0.013 sec
     gradient                   ...        0 min,  0.010 sec
 * total energy  :   -77.7363375 Eh     change       -0.2245221E-04 Eh
   gradient norm :     0.0018078 Eh/α   predicted     0.0000000E+00 (-100.00%)
   displ. norm   :     0.0339106 α      lambda       -0.1123606E-04
   maximum displ.:     0.0177258 α      in ANC's #7, #6, #1, ...

........................................................................
.............................. CYCLE   44 ..............................
........................................................................

 iter      E             dE          RMSdq      gap      omega  full diag
   1    -78.8267419 -0.788267E+02  0.768E-03    2.52       0.0  T
   2    -78.8267420 -0.106851E-06  0.443E-03    2.52       3.1  T
   3    -78.8267420  0.419161E-07  0.129E-03    2.52      10.6  T
   4    -78.8267421 -0.531274E-07  0.356E-04    2.52      38.3  T
   5    -78.8267421 -0.590705E-08  0.118E-04    2.52     115.6  T
     SCC iter.                  ...        0 min,  0.012 sec
     gradient                   ...        0 min,  0.010 sec
 * total energy  :   -77.7363499 Eh     change       -0.1248386E-04 Eh
   gradient norm :     0.0006191 Eh/α   predicted    -0.5790039E-05 ( -53.62%)
   displ. norm   :     0.0821969 α      lambda       -0.1433702E-04
   maximum displ.:     0.0431033 α      in ANC's #7, #1, #6, ...

........................................................................
.............................. CYCLE   45 ..............................
........................................................................

 iter      E             dE          RMSdq      gap      omega  full diag
   1    -78.8270151 -0.788270E+02  0.149E-02    2.53       0.0  T
   2    -78.8270152 -0.173343E-06  0.875E-03    2.53       1.6  T
   3    -78.8270151  0.193065E-06  0.215E-03    2.53       6.3  T
   4    -78.8270153 -0.231816E-06  0.467E-04    2.53      29.2  T
   5    -78.8270153 -0.871249E-08  0.181E-04    2.53      75.3  T
     SCC iter.                  ...        0 min,  0.012 sec
     gradient                   ...        0 min,  0.010 sec
 * total energy  :   -77.7363663 Eh     change       -0.1637427E-04 Eh
   gradient norm :     0.0013175 Eh/α   predicted    -0.7192721E-05 ( -56.07%)
   displ. norm   :     0.1393572 α      lambda       -0.1739675E-04
   maximum displ.:     0.0671189 α      in ANC's #7, #1, #6, ...

........................................................................
.............................. CYCLE   46 ..............................
........................................................................

 iter      E             dE          RMSdq      gap      omega  full diag
   1    -78.8266691 -0.788267E+02  0.249E-02    2.53       0.0  T
   2    -78.8266693 -0.229025E-06  0.147E-02    2.53       1.0  T
   3    -78.8266689  0.410703E-06  0.286E-03    2.53       4.8  T
   4    -78.8266694 -0.491003E-06  0.539E-04    2.53      25.2  T
   5    -78.8266694 -0.706721E-08  0.257E-04    2.53      52.9  T
     SCC iter.                  ...        0 min,  0.012 sec
     gradient                   ...        0 min,  0.010 sec
 * total energy  :   -77.7363860 Eh     change       -0.1968627E-04 Eh
   gradient norm :     0.0017020 Eh/α   predicted    -0.8773562E-05 ( -55.43%)
   displ. norm   :     0.2022053 α      lambda       -0.1927500E-04
   maximum displ.:     0.0904714 α      in ANC's #7, #1, #11, ...

........................................................................
.............................. CYCLE   47 ..............................
........................................................................

 iter      E             dE          RMSdq      gap      omega  full diag
   1    -78.8259799 -0.788260E+02  0.355E-02    2.53       0.0  T
   2    -78.8259802 -0.283046E-06  0.209E-02    2.54       1.0  T
   3    -78.8259797  0.448234E-06  0.304E-03    2.54       4.5  T
   4    -78.8259803 -0.555974E-06  0.644E-04    2.54      21.1  T
   5    -78.8259803 -0.600861E-08  0.314E-04    2.54      43.4  T
     SCC iter.                  ...        0 min,  0.012 sec
     gradient                   ...        0 min,  0.010 sec
 * total energy  :   -77.7364056 Eh     change       -0.1961057E-04 Eh
   gradient norm :     0.0016778 Eh/α   predicted    -0.9813444E-05 ( -49.96%)
   displ. norm   :     0.1557841 α      lambda       -0.1356907E-04
   maximum displ.:     0.0680670 α      in ANC's #1, #9, #7, ...

........................................................................
.............................. CYCLE   48 ..............................
........................................................................

 iter      E             dE          RMSdq      gap      omega  full diag
   1    -78.8256097 -0.788256E+02  0.283E-02    2.54       0.0  T
   2    -78.8256100 -0.206304E-06  0.166E-02    2.54       1.0  T
   3    -78.8256097  0.221859E-06  0.224E-03    2.54       6.1  T
   4    -78.8256100 -0.278747E-06  0.526E-04    2.54      25.9  T
   5    -78.8256100 -0.694000E-08  0.247E-04    2.54      55.1  T
     SCC iter.                  ...        0 min,  0.012 sec
     gradient                   ...        0 min,  0.019 sec
 * total energy  :   -77.7364210 Eh     change       -0.1542422E-04 Eh
   gradient norm :     0.0014439 Eh/α   predicted    -0.6858867E-05 ( -55.53%)
   displ. norm   :     0.1624560 α      lambda       -0.1879203E-04
   maximum displ.:     0.0826241 α      in ANC's #9, #1, #11, ...

........................................................................
.............................. CYCLE   49 ..............................
........................................................................

 iter      E             dE          RMSdq      gap      omega  full diag
   1    -78.8257427 -0.788257E+02  0.314E-02    2.54       0.0  T
   2    -78.8257430 -0.343713E-06  0.184E-02    2.54       1.0  T
   3    -78.8257428  0.198276E-06  0.248E-03    2.54       5.5  T
   4    -78.8257431 -0.255590E-06  0.667E-04    2.54      20.4  T
   5    -78.8257431 -0.139679E-07  0.275E-04    2.54      49.6  T
     SCC iter.                  ...        0 min,  0.073 sec
     gradient                   ...        0 min,  0.010 sec
 * total energy  :   -77.7364424 Eh     change       -0.2140787E-04 Eh
   gradient norm :     0.0015916 Eh/α   predicted    -0.9509469E-05 ( -55.58%)
   displ. norm   :     0.1524981 α      lambda       -0.1841305E-04
   maximum displ.:     0.0848634 α      in ANC's #9, #1, #2, ...

........................................................................
.............................. CYCLE   50 ..............................
........................................................................

 iter      E             dE          RMSdq      gap      omega  full diag
   1    -78.8260129 -0.788260E+02  0.298E-02    2.54       0.0  T
   2    -78.8260132 -0.302958E-06  0.175E-02    2.54       1.0  T
   3    -78.8260131  0.128627E-06  0.212E-03    2.54       6.4  T
   4    -78.8260132 -0.180663E-06  0.623E-04    2.54      21.8  T
   5    -78.8260133 -0.108744E-07  0.282E-04    2.54      48.2  T
     SCC iter.                  ...        0 min,  0.012 sec
     gradient                   ...        0 min,  0.010 sec
 * total energy  :   -77.7364638 Eh     change       -0.2135123E-04 Eh
   gradient norm :     0.0019306 Eh/α   predicted    -0.9303706E-05 ( -56.43%)
   displ. norm   :     0.2144446 α      lambda       -0.2230364E-04
   maximum displ.:     0.1201421 α      in ANC's #9, #1, #2, ...

........................................................................
.............................. CYCLE   51 ..............................
........................................................................

 iter      E             dE          RMSdq      gap      omega  full diag
   1    -78.8259117 -0.788259E+02  0.392E-02    2.54       0.0  T
   2    -78.8259121 -0.393349E-06  0.230E-02    2.54       1.0  T
   3    -78.8259120  0.675343E-07  0.195E-03    2.54       7.0  T
   4    -78.8259122 -0.138790E-06  0.661E-04    2.54      20.6  T
   5    -78.8259122 -0.959253E-08  0.352E-04    2.54      38.6  T
     SCC iter.                  ...        0 min,  0.012 sec
     gradient                   ...        0 min,  0.014 sec
 * total energy  :   -77.7364903 Eh     change       -0.2648974E-04 Eh
   gradient norm :     0.0021855 Eh/α   predicted    -0.1138440E-04 ( -57.02%)
   displ. norm   :     0.2172759 α      lambda       -0.3237569E-04
   maximum displ.:     0.1228031 α      in ANC's #9, #1, #2, ...

........................................................................
.............................. CYCLE   52 ..............................
........................................................................

 iter      E             dE          RMSdq      gap      omega  full diag
   1    -78.8258302 -0.788258E+02  0.368E-02    2.54       0.0  T
   2    -78.8258305 -0.295380E-06  0.216E-02    2.54       1.0  T
   3    -78.8258305  0.426884E-07  0.168E-03    2.54       8.1  T
   4    -78.8258306 -0.111351E-06  0.660E-04    2.54      20.6  T
   5    -78.8258306 -0.899377E-08  0.355E-04    2.54      38.3  T
     SCC iter.                  ...        0 min,  0.020 sec
     gradient                   ...        0 min,  0.010 sec
 * total energy  :   -77.7365175 Eh     change       -0.2722149E-04 Eh
   gradient norm :     0.0020746 Eh/α   predicted    -0.1695348E-04 ( -37.72%)
   displ. norm   :     0.3393177 α      lambda       -0.4877376E-04
   maximum displ.:     0.1913258 α      in ANC's #9, #1, #2, ...

........................................................................
.............................. CYCLE   53 ..............................
........................................................................

 iter      E             dE          RMSdq      gap      omega  full diag
   1    -78.8254561 -0.788255E+02  0.552E-02    2.55       0.0  T
   2    -78.8254569 -0.761604E-06  0.324E-02    2.54       1.0  T
   3    -78.8254566  0.338538E-06  0.334E-03    2.55       4.1  T
   4    -78.8254571 -0.531746E-06  0.113E-03    2.55      12.0  T
   5    -78.8254571 -0.328211E-07  0.577E-04    2.55      23.6  T
   6    -78.8254571 -0.259729E-08  0.135E-04    2.55     100.8  T
     SCC iter.                  ...        0 min,  0.014 sec
     gradient                   ...        0 min,  0.010 sec
 * total energy  :   -77.7365530 Eh     change       -0.3553089E-04 Eh
   gradient norm :     0.0021349 Eh/α   predicted    -0.2719575E-04 ( -23.46%)
   displ. norm   :     0.2217353 α      lambda       -0.3824231E-04
   maximum displ.:     0.1338140 α      in ANC's #1, #9, #2, ...

........................................................................
.............................. CYCLE   54 ..............................
........................................................................

 iter      E             dE          RMSdq      gap      omega  full diag
   1    -78.8262783 -0.788263E+02  0.340E-02    2.54       0.0  T
   2    -78.8262788 -0.496227E-06  0.199E-02    2.54       1.0  T
   3    -78.8262783  0.491520E-06  0.350E-03    2.54       3.9  T
   4    -78.8262790 -0.637677E-06  0.862E-04    2.54      15.8  T
   5    -78.8262790 -0.180514E-07  0.424E-04    2.54      32.1  T
     SCC iter.                  ...        0 min,  0.015 sec
     gradient                   ...        0 min,  0.010 sec
 * total energy  :   -77.7365790 Eh     change       -0.2593763E-04 Eh
   gradient norm :     0.0012806 Eh/α   predicted    -0.2006477E-04 ( -22.64%)
   displ. norm   :     0.4823952 α      lambda       -0.4203092E-04
   maximum displ.:     0.2858796 α      in ANC's #1, #9, #2, ...

........................................................................
.............................. CYCLE   55 ..............................
........................................................................

 iter      E             dE          RMSdq      gap      omega  full diag
   1    -78.8237457 -0.788237E+02  0.755E-02    2.54       0.0  T
   2    -78.8237476 -0.196175E-05  0.443E-02    2.54       1.0  T
   3    -78.8237469  0.761199E-06  0.538E-03    2.54       2.5  T
   4    -78.8237481 -0.121956E-05  0.187E-03    2.54       7.3  T
   5    -78.8237482 -0.837937E-07  0.940E-04    2.54      14.5  T
   6    -78.8237482 -0.387026E-08  0.227E-04    2.54      59.9  T
     SCC iter.                  ...        0 min,  0.015 sec
     gradient                   ...        0 min,  0.010 sec
 * total energy  :   -77.7365831 Eh     change       -0.4110720E-05 Eh
   gradient norm :     0.0053480 Eh/α   predicted    -0.2319011E-04 ( 464.14%)
   displ. norm   :     0.0896262 α      lambda       -0.7715250E-04
   maximum displ.:     0.0493206 α      in ANC's #9, #5, #2, ...

........................................................................
.............................. CYCLE   56 ..............................
........................................................................

 iter      E             dE          RMSdq      gap      omega  full diag
   1    -78.8263115 -0.788263E+02  0.235E-02    2.54       0.0  T
   2    -78.8263119 -0.419058E-06  0.138E-02    2.54       1.0  T
   3    -78.8263119  0.655401E-07  0.198E-03    2.54       6.9  T
   4    -78.8263120 -0.110071E-06  0.675E-04    2.54      20.2  T
   5    -78.8263120 -0.122655E-07  0.319E-04    2.54      42.7  T
     SCC iter.                  ...        0 min,  0.012 sec
     gradient                   ...        0 min,  0.010 sec
 * total energy  :   -77.7366295 Eh     change       -0.4644835E-04 Eh
   gradient norm :     0.0023615 Eh/α   predicted    -0.3888722E-04 ( -16.28%)
   displ. norm   :     0.0777379 α      lambda       -0.2591825E-04
   maximum displ.:     0.0467054 α      in ANC's #1, #5, #10, ...

........................................................................
.............................. CYCLE   57 ..............................
........................................................................

 iter      E             dE          RMSdq      gap      omega  full diag
   1    -78.8268319 -0.788268E+02  0.121E-02    2.54       0.0  T
   2    -78.8268321 -0.159448E-06  0.711E-03    2.54       1.9  T
   3    -78.8268320  0.714855E-07  0.148E-03    2.54       9.2  T
   4    -78.8268321 -0.886817E-07  0.447E-04    2.54      30.4  T
   5    -78.8268321 -0.958120E-08  0.172E-04    2.54      79.0  T
     SCC iter.                  ...        0 min,  0.012 sec
     gradient                   ...        0 min,  0.010 sec
 * total energy  :   -77.7366500 Eh     change       -0.2051031E-04 Eh
   gradient norm :     0.0016314 Eh/α   predicted    -0.1304241E-04 ( -36.41%)
   displ. norm   :     0.2716901 α      lambda       -0.4041084E-04
   maximum displ.:     0.1666929 α      in ANC's #1, #5, #11, ...

........................................................................
.............................. CYCLE   58 ..............................
........................................................................

 iter      E             dE          RMSdq      gap      omega  full diag
   1    -78.8271638 -0.788272E+02  0.388E-02    2.54       0.0  T
   2    -78.8271648 -0.105247E-05  0.229E-02    2.53       1.0  T
   3    -78.8271640  0.857400E-06  0.455E-03    2.53       3.0  T
   4    -78.8271650 -0.103801E-05  0.117E-03    2.53      11.7  T
   5    -78.8271651 -0.608092E-07  0.463E-04    2.53      29.4  T
   6    -78.8271651 -0.595975E-09  0.156E-04    2.53      87.0  T
     SCC iter.                  ...        0 min,  0.014 sec
     gradient                   ...        0 min,  0.010 sec
 * total energy  :   -77.7366897 Eh     change       -0.3964581E-04 Eh
   gradient norm :     0.0019410 Eh/α   predicted    -0.2087010E-04 ( -47.36%)
   displ. norm   :     0.3179620 α      lambda       -0.2705960E-04
   maximum displ.:     0.2079348 α      in ANC's #1, #9, #11, ...

........................................................................
.............................. CYCLE   59 ..............................
........................................................................

 iter      E             dE          RMSdq      gap      omega  full diag
   1    -78.8260730 -0.788261E+02  0.434E-02    2.53       0.0  T
   2    -78.8260739 -0.924859E-06  0.255E-02    2.53       1.0  T
   3    -78.8260734  0.527293E-06  0.378E-03    2.53       3.6  T
   4    -78.8260741 -0.698340E-06  0.112E-03    2.53      12.2  T
   5    -78.8260741 -0.459072E-07  0.533E-04    2.53      25.5  T
   6    -78.8260741 -0.147672E-08  0.160E-04    2.53      84.9  T
     SCC iter.                  ...        0 min,  0.015 sec
     gradient                   ...        0 min,  0.010 sec
 * total energy  :   -77.7367174 Eh     change       -0.2771731E-04 Eh
   gradient norm :     0.0021674 Eh/α   predicted    -0.1414157E-04 ( -48.98%)
   displ. norm   :     0.1414488 α      lambda       -0.2183378E-04
   maximum displ.:     0.0984318 α      in ANC's #1, #5, #11, ...

........................................................................
.............................. CYCLE   60 ..............................
........................................................................

 iter      E             dE          RMSdq      gap      omega  full diag
   1    -78.8263742 -0.788264E+02  0.180E-02    2.53       0.0  T
   2    -78.8263743 -0.184259E-06  0.106E-02    2.53       1.3  T
   3    -78.8263741  0.244252E-06  0.230E-03    2.53       5.9  T
   4    -78.8263744 -0.301172E-06  0.463E-04    2.53      29.4  T
   5    -78.8263744 -0.582280E-08  0.233E-04    2.53      58.3  T
     SCC iter.                  ...        0 min,  0.012 sec
     gradient                   ...        0 min,  0.010 sec
 * total energy  :   -77.7367351 Eh     change       -0.1772991E-04 Eh
   gradient norm :     0.0019163 Eh/α   predicted    -0.1113623E-04 ( -37.19%)
   displ. norm   :     0.3065476 α      lambda       -0.3253176E-04
   maximum displ.:     0.2135727 α      in ANC's #1, #5, #11, ...

........................................................................
.............................. CYCLE   61 ..............................
........................................................................

 iter      E             dE          RMSdq      gap      omega  full diag
   1    -78.8268983 -0.788269E+02  0.403E-02    2.53       0.0  T
   2    -78.8268992 -0.872002E-06  0.238E-02    2.52       1.0  T
   3    -78.8268976  0.155665E-05  0.554E-03    2.52       2.5  T
   4    -78.8268995 -0.188647E-05  0.954E-04    2.52      14.3  T
   5    -78.8268995 -0.222094E-07  0.504E-04    2.52      27.0  T
   6    -78.8268995 -0.150716E-08  0.213E-04    2.52      63.9  T
[...]
          :  net charge                          1          :
          :  unpaired electrons                  0          :
          ...................................................

 iter      E             dE          RMSdq      gap      omega  full diag
   1    -78.8272318 -0.788272E+02  0.953E-05    2.54       0.0  T
   2    -78.8272318 -0.482743E-10  0.600E-05    2.54     226.9  T
   3    -78.8272318  0.586908E-11  0.379E-05    2.54     358.7  T

   *** convergence criteria satisfied after 3 iterations ***

         #    Occupation            Energy/Eh            Energy/eV
      -------------------------------------------------------------
         1        2.0000           -0.8858732             -24.1058
       ...           ...                  ...                  ...
        64        2.0000           -0.5309769             -14.4486
        65        2.0000           -0.5253107             -14.2944
        66        2.0000           -0.5104589             -13.8903
        67        2.0000           -0.5081515             -13.8275
        68        2.0000           -0.4943272             -13.4513
        69        2.0000           -0.4927123             -13.4074
        70        2.0000           -0.4904970             -13.3471 (HOMO)
        71                         -0.3971734             -10.8076 (LUMO)
        72                         -0.3651347              -9.9358
        73                         -0.3510066              -9.5514
        74                         -0.3418588              -9.3025
        75                         -0.3091070              -8.4112
       ...                                ...                  ...
       132                          0.5816363              15.8271
      -------------------------------------------------------------
                  HL-Gap            0.0933236 Eh            2.5395 eV
             Fermi-level           -0.4438352 Eh          -12.0774 eV

 SCC (total)                   0 d,  0 h,  0 min,  0.021 sec
 SCC setup                      ...        0 min,  0.000 sec (  0.513%)
 Dispersion                     ...        0 min,  0.000 sec (  1.628%)
 classical contributions        ...        0 min,  0.000 sec (  0.272%)
 integral evaluation            ...        0 min,  0.002 sec ( 11.622%)
 iterations                     ...        0 min,  0.008 sec ( 36.928%)
 molecular gradient             ...        0 min,  0.010 sec ( 48.092%)
 printout                       ...        0 min,  0.000 sec (  0.871%)

         :::::::::::::::::::::::::::::::::::::::::::::::::::::
         ::                     SUMMARY                     ::
         :::::::::::::::::::::::::::::::::::::::::::::::::::::
         :: total energy             -77.736939669174 Eh    ::
         :: gradient norm              0.000356076248 Eh/a0 ::
         :: HOMO-LUMO gap              2.539464410714 eV    ::
         ::.................................................::
         :: SCC energy               -78.826545737103 Eh    ::
         :: -> isotropic ES            0.147877042726 Eh    ::
         :: -> anisotropic ES         -0.004478426665 Eh    ::
         :: -> anisotropic XC          0.034881201914 Eh    ::
         :: -> dispersion             -0.057474711646 Eh    ::
         :: repulsion energy           1.089606067928 Eh    ::
         :: add. restraining           0.000000000000 Eh    ::
         :: total charge               1.000000000000 e     ::
         :::::::::::::::::::::::::::::::::::::::::::::::::::::

           -------------------------------------------------
          |                Property Printout                |
           -------------------------------------------------

    * Orbital Energies and Occupations

         #    Occupation            Energy/Eh            Energy/eV
      -------------------------------------------------------------
         1        2.0000           -0.8858732             -24.1058
       ...           ...                  ...                  ...
        58        2.0000           -0.5645766             -15.3629
        59        2.0000           -0.5629298             -15.3181
        60        2.0000           -0.5625684             -15.3083
        61        2.0000           -0.5586334             -15.2012
        62        2.0000           -0.5508652             -14.9898
        63        2.0000           -0.5482479             -14.9186
        64        2.0000           -0.5309769             -14.4486
        65        2.0000           -0.5253107             -14.2944
        66        2.0000           -0.5104589             -13.8903
        67        2.0000           -0.5081515             -13.8275
        68        2.0000           -0.4943272             -13.4513
        69        2.0000           -0.4927123             -13.4074
        70        2.0000           -0.4904970             -13.3471 (HOMO)
        71                         -0.3971734             -10.8076 (LUMO)
        72                         -0.3651347              -9.9358
        73                         -0.3510066              -9.5514
        74                         -0.3418588              -9.3025
        75                         -0.3091070              -8.4112
        76                         -0.2849377              -7.7536
        77                         -0.1794413              -4.8828
        78                         -0.1782714              -4.8510
        79                         -0.1397963              -3.8041
        80                         -0.1105281              -3.0076
        81                         -0.0956012              -2.6014
       ...                                ...                  ...
       132                          0.5816363              15.8271
      -------------------------------------------------------------
                  HL-Gap            0.0933236 Eh            2.5395 eV
             Fermi-level           -0.4438352 Eh          -12.0774 eV

     #   Z          covCN         q      C6AA      α(0)
     1   6 C        3.752    -0.116    22.781     6.807
     2   6 C        3.801    -0.066    21.762     6.642
     3   6 C        3.743    -0.026    21.111     6.555
     4   7 N        2.853     0.062    20.160     6.669
     5   6 C        3.083    -0.026    28.552     8.760
     6   6 C        3.094     0.042    26.945     8.508
     7   6 C        3.806    -0.081    22.043     6.684
     8   6 C        3.781     0.021    20.240     6.409
     9   7 N        2.687    -0.211    25.603     7.515
    10   6 C        2.755     0.277    22.320     7.736
    11   8 O        0.860    -0.426    22.202     6.317
    12   6 C        2.975    -0.018    28.455     8.750
    13   6 C        2.923    -0.018    28.458     8.748
    14   6 C        2.918    -0.025    28.628     8.774
    15   6 C        2.920    -0.022    28.554     8.763
    16   6 C        2.919    -0.023    28.579     8.767
    17   6 C        2.921    -0.026    28.642     8.776
    18   6 C        2.725     0.355    20.974     7.497
    19   8 O        0.856    -0.370    21.091     6.157
    20   8 O        1.704    -0.251    18.160     5.754
    21   6 C        3.658     0.021    20.501     6.498
    22   7 N        2.864     0.041    20.529     6.729
    23   6 C        3.741    -0.028    21.152     6.562
    24   6 C        3.799    -0.071    21.855     6.656
    25   6 C        3.751    -0.115    22.772     6.805
    26   6 C        3.093     0.048    26.812     8.487
    27   1 H        0.925     0.033     2.541     2.493
    28   1 H        0.925     0.067     2.115     2.274
    29   1 H        0.925     0.051     2.307     2.375
    30   1 H        0.924     0.057     2.233     2.337
    31   1 H        0.925     0.075     2.029     2.228
    32   1 H        0.924     0.087     1.912     2.162
    33   1 H        0.924     0.084     1.939     2.177
    34   1 H        0.926     0.098     1.807     2.102
    35   1 H        0.924     0.087     1.909     2.161
    36   1 H        0.924     0.083     1.950     2.184
    37   1 H        0.924     0.074     2.039     2.233
    38   1 H        0.860     0.179     1.218     1.729
    39   1 H        0.926     0.051     2.301     2.372
    40   1 H        0.926     0.051     2.304     2.374
    41   1 H        0.926     0.052     2.292     2.367
    42   1 H        0.926     0.054     2.272     2.357
    43   1 H        0.926     0.044     2.401     2.423
    44   1 H        0.924     0.078     1.998     2.210
    45   1 H        0.924     0.077     2.009     2.216
    46   1 H        0.925     0.085     1.932     2.174
    47   1 H        0.924     0.086     1.922     2.168
    48   1 H        0.925     0.096     1.826     2.113
    49   1 H        0.924     0.100     1.788     2.091
    50   1 H        0.924     0.041     2.438     2.442
    51   1 H        0.925     0.055     2.254     2.348
    52   1 H        0.925     0.063     2.163     2.300
    53   1 H        0.925     0.031     2.570     2.507
    54   1 H        0.926     0.113     1.673     2.023

 Mol. C6AA /au·bohr⁶  :      27696.529391
 Mol. C8AA /au·bohr⁸  :     635476.111733
 Mol. α(0) /au        :        255.265627


Wiberg/Mayer (AO) data.
largest (>0.10) Wiberg bond orders for each atom

 ---------------------------------------------------------------------------
     #   Z sym  total        # sym  WBO       # sym  WBO       # sym  WBO
 ---------------------------------------------------------------------------
     1   6 C    3.992 --     2 C    1.022    27 H    0.986    29 H    0.986
                            28 H    0.982
     2   6 C    3.985 --     1 C    1.022     3 C    0.983    30 H    0.975
                            31 H    0.968
     3   6 C    3.939 --     2 C    0.983     4 N    0.970    33 H    0.966
                            32 H    0.963
     4   7 N    3.715 --    26 C    1.364     5 C    1.223     3 C    0.970
     5   6 C    3.943 --     6 C    1.542     4 N    1.223    34 H    0.963
     6   6 C    3.955 --     5 C    1.542    22 N    1.198     7 C    1.031
     7   6 C    3.986 --     6 C    1.031    36 H    0.960    35 H    0.959
                             8 C    0.942
     8   6 C    3.977 --     9 N    1.001    37 H    0.958     7 C    0.942
                            18 C    0.924
     9   7 N    3.349 --    10 C    1.152     8 C    1.001    38 H    0.931
                            11 O    0.166
    10   6 C    3.937 --    11 O    1.696     9 N    1.152    12 C    1.012
    11   8 O    2.019 --    10 C    1.696     9 N    0.166
    12   6 C    3.987 --    13 C    1.386    17 C    1.381    10 C    1.012
                            15 C    0.104
    13   6 C    3.990 --    14 C    1.453    12 C    1.386    39 H    0.968
                            16 C    0.109
    14   6 C    3.991 --    13 C    1.453    15 C    1.432    40 H    0.969
                            17 C    0.108
    15   6 C    3.990 --    16 C    1.435    14 C    1.432    41 H    0.970
                            12 C    0.104
    16   6 C    3.991 --    17 C    1.446    15 C    1.435    42 H    0.968
                            13 C    0.109
    17   6 C    3.991 --    16 C    1.446    12 C    1.381    43 H    0.969
                            14 C    0.108
    18   6 C    3.930 --    19 O    1.778    20 O    1.158     8 C    0.924
    19   8 O    2.074 --    18 C    1.778    20 O    0.186
    20   8 O    2.327 --    18 C    1.158    21 C    0.940    19 O    0.186
    21   6 C    3.905 --    46 H    0.980    44 H    0.975    45 H    0.973
                            20 O    0.940
    22   7 N    3.697 --    26 C    1.351     6 C    1.198    23 C    0.962
    23   6 C    3.930 --    24 C    0.985    22 N    0.962    48 H    0.961
                            47 H    0.955
    24   6 C    3.980 --    25 C    1.022    23 C    0.985    50 H    0.974
                            49 H    0.963
    25   6 C    3.992 --    24 C    1.022    51 H    0.985    53 H    0.984
                            52 H    0.982
    26   6 C    3.945 --     4 N    1.364    22 N    1.351    54 H    0.950
    27   1 H    0.999 --     1 C    0.986
    28   1 H    0.995 --     1 C    0.982
    29   1 H    0.997 --     1 C    0.986
    30   1 H    0.997 --     2 C    0.975
    31   1 H    0.993 --     2 C    0.968
    32   1 H    0.992 --     3 C    0.963
    33   1 H    0.993 --     3 C    0.966
    34   1 H    0.990 --     5 C    0.963
    35   1 H    0.992 --     7 C    0.959
    36   1 H    0.993 --     7 C    0.960
    37   1 H    0.994 --     8 C    0.958
    38   1 H    0.967 --     9 N    0.931
    39   1 H    0.997 --    13 C    0.968
    40   1 H    0.997 --    14 C    0.969
    41   1 H    0.997 --    15 C    0.970
    42   1 H    0.996 --    16 C    0.968
    43   1 H    0.998 --    17 C    0.969
    44   1 H    0.994 --    21 C    0.975
    45   1 H    0.994 --    21 C    0.973
    46   1 H    0.993 --    21 C    0.980
    47   1 H    0.992 --    23 C    0.955
    48   1 H    0.990 --    23 C    0.961
    49   1 H    0.990 --    24 C    0.963
    50   1 H    0.998 --    24 C    0.974
    51   1 H    0.997 --    25 C    0.985
    52   1 H    0.995 --    25 C    0.982
    53   1 H    0.999 --    25 C    0.984
    54   1 H    0.987 --    26 C    0.950
 ---------------------------------------------------------------------------

Topologies differ in total number of bonds
Writing topology from bond orders to xtbtopo.mol

molecular dipole:
                 x           y           z       tot (Debye)
 q only:        0.225       2.774      -6.249
   full:        0.298       2.816      -6.052      16.982
molecular quadrupole (traceless):
                xx          xy          yy          xz          yz          zz
 q only:      -30.619      -3.531     -31.390      27.558     -32.790      62.008
  q+dip:      -27.293      -0.385     -30.800      28.655     -33.388      58.093
   full:      -26.074      -2.404     -31.832      26.215     -32.217      57.907

           -------------------------------------------------
          |                Geometry Summary                 |
           -------------------------------------------------

      molecular mass/u    :      358.4553834
   center of mass at/Å    :        0.0105328       1.5199821      -5.9161311
  moments of inertia/u·Å² :        0.1234544E+04   0.4642998E+04   0.5398512E+04
rotational constants/cm⁻¹ :        0.1365494E-01   0.3630765E-02   0.3122644E-02

 * 52 selected distances

     #   Z          #   Z                                           value/Å
     1   6 C        2   6 C                                       1.5228569
     2   6 C        3   6 C                                       1.5335087
     3   6 C        4   7 N                                       1.4442417
     4   7 N        5   6 C                                       1.3601552
     5   6 C        6   6 C                                       1.3696803
     6   6 C        7   6 C                                       1.4856408
     8   6 C        9   7 N                                       1.4426362
     9   7 N       10   6 C                                       1.3825614
    10   6 C       11   8 O                                       1.2163347
    12   6 C       13   6 C                                       1.3929607
    13   6 C       14   6 C                                       1.3818618
    14   6 C       15   6 C                                       1.3866892
    15   6 C       16   6 C                                       1.3863070
    12   6 C       17   6 C                                       1.3932955
    16   6 C       17   6 C                                       1.3836384
    18   6 C       19   8 O                                       1.1970102
    18   6 C       20   8 O                                       1.3270854
    20   8 O       21   6 C                                       1.4276647
     6   6 C       22   7 N                                       1.3739348
    22   7 N       23   6 C                                       1.4516024
    23   6 C       24   6 C                                       1.5391176 (max)
    24   6 C       25   6 C                                       1.5231966
     4   7 N       26   6 C                                       1.3270779
    22   7 N       26   6 C                                       1.3334372
     1   6 C       27   1 H                                       1.0885776
     1   6 C       28   1 H                                       1.0857851
     1   6 C       29   1 H                                       1.0873414
     2   6 C       30   1 H                                       1.0912854
     2   6 C       31   1 H                                       1.0896611
     3   6 C       32   1 H                                       1.0918571
     3   6 C       33   1 H                                       1.0916488
     5   6 C       34   1 H                                       1.0707178
     7   6 C       35   1 H                                       1.0903038
     7   6 C       36   1 H                                       1.0909074
     8   6 C       37   1 H                                       1.0978183
     9   7 N       38   1 H                                       1.0143809 (min)
    13   6 C       39   1 H                                       1.0795131
    14   6 C       40   1 H                                       1.0791383
    15   6 C       41   1 H                                       1.0793586
    16   6 C       42   1 H                                       1.0789747
    17   6 C       43   1 H                                       1.0796248
    21   6 C       44   1 H                                       1.0909699
    21   6 C       45   1 H                                       1.0903533
    21   6 C       46   1 H                                       1.0860283
    23   6 C       47   1 H                                       1.0936119
    23   6 C       48   1 H                                       1.0885175
    24   6 C       49   1 H                                       1.0906358
    24   6 C       50   1 H                                       1.0929197
    25   6 C       51   1 H                                       1.0866199
    25   6 C       52   1 H                                       1.0861480
    25   6 C       53   1 H                                       1.0884399
    26   6 C       54   1 H                                       1.0718897

 * 5 distinct bonds (by element types)

   Z      Z             #   av. dist./Å        max./Å        min./Å
   1 H    6 C          27     1.0866166     1.0978183     1.0707178
   6 C    6 C          12     1.4415628     1.5391176     1.3696803
   1 H    7 N           1     1.0143809     1.0143809     1.0143809
   6 C    7 N           8     1.3894559     1.4516024     1.3270779
   6 C    8 O           4     1.2920237     1.4276647     1.1970102


optimized geometry written to: xtbopt.xyz


           -------------------------------------------------
          | TOTAL ENERGY              -77.736939669174 Eh   |
          | GRADIENT NORM               0.000356076248 Eh/α |
          | HOMO-LUMO GAP               2.539464410714 eV   |
           -------------------------------------------------

------------------------------------------------------------------------
 * finished run on 2024/12/20 at 02:03:20.334     
------------------------------------------------------------------------
 total:
 * wall-time:     0 d,  0 h,  0 min,  2.592 sec
 *  cpu-time:     0 d,  0 h,  0 min, 20.345 sec
 * ratio c/w:     7.849 speedup
 SCF:
 * wall-time:     0 d,  0 h,  0 min,  0.048 sec
 *  cpu-time:     0 d,  0 h,  0 min,  0.379 sec
 * ratio c/w:     7.949 speedup
 ANC optimizer:
 * wall-time:     0 d,  0 h,  0 min,  2.525 sec
 *  cpu-time:     0 d,  0 h,  0 min, 19.826 sec
 * ratio c/w:     7.851 speedup

