22
 energy: -23.309289074433 gnorm: 0.000217557096 xtb: 6.7.1 (edcfbbe)
C            0.90434419777821       -0.05830265958056        0.06397900218960
C            0.62629403967453        1.39704682881412        0.38633674700288
S            1.10826827428666        2.45330909567460       -1.03343913006523
C            0.37480777060249        4.07683202178210       -0.58307851572995
C            0.80345144501446        4.68116889745965        0.73501015807229
C            2.92502972512970        2.71851201348061       -0.84109664172777
C            3.53039945991973        2.45981163228892        0.52101215027770
H            0.36315862313391       -0.36988334349442       -0.82540386200248
H            0.57381044241574       -0.67740282369404        0.89449393969935
H            1.96366127869998       -0.24313188628868       -0.09308607555819
H           -0.44307341686883        1.56359910957292        0.51341807009220
H            1.15850349476857        1.72707538126194        1.27490880903956
H            0.63082947200845        4.73036427519163       -1.41755521685005
H           -0.70085611256836        3.89992650900744       -0.60675229230384
H            1.86076090048491        4.93047711262010        0.74245500546650
H            0.25062983219981        5.60784168458576        0.87560352423245
H            0.57305730421070        4.03375184436890        1.57684943079254
H            3.36330992360219        2.05178606808203       -1.58392221647139
H            3.08885691718104        3.74568519824407       -1.16480144036427
H            3.44927090800447        1.41613770553086        0.81117061188748
H            4.59121918774783        2.69583037918635        0.45921469359905
H            3.10239633257383        3.08501495590567        1.29911324872155
