28
 energy: -37.483340962451 gnorm: 0.051005907604 xtb: 6.7.1 (edcfbbe)
C           -2.43127000000000        0.25303000000000        0.06044000000000
N           -0.96616000000000        0.10991000000000        0.05468000000000
C           -0.41769000000000       -1.06560000000000       -0.32587000000000
C            0.96227000000000       -1.23283000000000       -0.33503000000000
C            1.79262000000000       -0.18189000000000        0.05826000000000
C            1.19951000000000        1.01549000000000        0.46253000000000
C           -0.18617000000000        1.13930000000000        0.45237000000000
C            3.29673000000000       -0.35356000000000        0.09148000000000
C            3.80196000000000       -0.88799000000000        1.40958000000000
C            4.29141000000000       -0.01595000000000        2.39285000000000
C            4.75388000000000       -0.51262000000000        3.61302000000000
C            4.72637000000000       -1.88244000000000        3.86593000000000
C            4.23951000000000       -2.75853000000000        2.89879000000000
C            3.78046000000000       -2.26536000000000        1.67650000000000
H           -2.83809000000000       -0.26768000000000       -0.81064000000000
H           -2.80076000000000       -0.18970000000000        0.98866000000000
H           -2.69542000000000        1.31197000000000        0.00428000000000
H           -1.09188000000000       -1.86603000000000       -0.61700000000000
H            1.38522000000000       -2.18823000000000       -0.64063000000000
H            1.81183000000000        1.85247000000000        0.79338000000000
H           -0.67784000000000        2.05632000000000        0.76487000000000
H            3.61115000000000       -1.02203000000000       -0.72102000000000
H            3.77966000000000        0.60653000000000       -0.13444000000000
H            4.33378000000000        1.05593000000000        2.21390000000000
H            5.14647000000000        0.16749000000000        4.36548000000000
H            5.09462000000000       -2.26843000000000        4.81364000000000
H            4.22875000000000       -3.82818000000000        3.09468000000000
H            3.42030000000000       -2.96968000000000        0.93083000000000
28
 energy: -37.487140102722 gnorm: 0.022537098326 xtb: 6.7.1 (edcfbbe)
C           -2.40341584097750        0.24914250063767        0.06098524081097
N           -0.94913340876574        0.10796472684768        0.05737982632367
C           -0.40109944983860       -1.05958134469764       -0.31618151785703
C            0.96615300372421       -1.23445395404334       -0.31732240096876
C            1.80800341284246       -0.19077816428960        0.07624777420004
C            1.20359670937846        1.00350027305994        0.47659901960001
C           -0.17025240957780        1.12552877152760        0.45604364102966
C            3.29924113591766       -0.35246563932815        0.08551306325719
C            3.78007802198475       -0.88692592341872        1.42010578043216
C            4.27182006477204       -0.02158675194421        2.39211580442123
C            4.74506427201272       -0.51473548380428        3.59886717048461
C            4.72135414904680       -1.87660446748241        3.85163243642215
C            4.23496306747124       -2.74596586124461        2.88878924088947
C            3.76495854715819       -2.25397238775378        1.68079004011994
H           -2.82790013476444       -0.26808447066098       -0.79805767487532
H           -2.80563873421789       -0.18474398043454        0.97706572962023
H           -2.67851699029936        1.30048409352492        0.01081937102248
H           -1.07524660040182       -1.84927595218743       -0.61797681957657
H            1.37827558097874       -2.18053838360342       -0.63807738827644
H            1.80527846315494        1.84363655678362        0.79279884465891
H           -0.66191286169065        2.04080541658934        0.75520230256803
H            3.59649301528791       -1.04174054763868       -0.71178035719440
H            3.77178729112669        0.61484217227358       -0.11269829811187
H            4.31706257679394        1.04315410916181        2.20510912205684
H            5.13622563689519        0.16487726410136        4.34312939195943
H            5.08632420502109       -2.26010806748853        4.79437118754759
H            4.22572075020254       -3.81031313073053        3.07825183154658
H            3.41193652676420       -2.95035137375664        0.93179763788922
28
 energy: -37.487796704356 gnorm: 0.007155929867 xtb: 6.7.1 (edcfbbe)
C           -2.38259159723030        0.24650551055160        0.06438609894447
N           -0.93991084638201        0.10335015100321        0.06849209149364
C           -0.38970760544618       -1.05983846795374       -0.30473896787326
C            0.97171203245129       -1.23620741375757       -0.31045502853840
C            1.82191556344155       -0.19392395756725        0.07760330414402
C            1.20955129168002        0.99673686317486        0.48419615538427
C           -0.15898175218523        1.11522422201706        0.46658956877222
C            3.30187547068639       -0.35051671224560        0.07511586876486
C            3.77073135542714       -0.88572894720778        1.41990264722820
C            4.25604668408415       -0.01963451041455        2.38802718452325
C            4.72828644380678       -0.51113276221195        3.59222714007114
C            4.70871220256814       -1.87146134407903        3.84385055039953
C            4.22137080828573       -2.73940159268143        2.88245628632896
C            3.75193941468864       -2.24871135370885        1.67732939673094
H           -2.81149026654676       -0.27053770585179       -0.79163263013056
H           -2.80314655106924       -0.18401515974391        0.97482401694648
H           -2.65954301833849        1.29665843645676        0.01697443209093
H           -1.06329511423110       -1.84447258219794       -0.61456105843240
H            1.37815449792617       -2.18057037057265       -0.63287060453700
H            1.80623047629364        1.83678273547344        0.79954762010355
H           -0.64941822531944        2.03150665015967        0.75800202159008
H            3.59692605590253       -1.05051269827450       -0.70835121236576
H            3.77475755332750        0.61552428073600       -0.10622274576186
H            4.29349242532667        1.04276719047750        2.19774050047191
H            5.12339015354487        0.16941151051541        4.32974685542303
H            5.08208286194353       -2.25469805401142        4.78015203411057
H            4.21806897039284       -3.80234054472617        3.06537323584967
H            3.39406071497116       -2.93905337335930        0.92781523826755
28
 energy: -37.487915247053 gnorm: 0.002447274693 xtb: 6.7.1 (edcfbbe)
C           -2.37433798437198        0.24517848496896        0.06867390839617
N           -0.93584683749913        0.10048125504452        0.07562720349643
C           -0.38389587191673       -1.06220531986367       -0.29914931565564
C            0.97691145242947       -1.23814941127087       -0.30889040827819
C            1.82954046846638       -0.19492140156364        0.07488530383247
C            1.21559214233016        0.99372762559775        0.48800629866338
C           -0.15247280299504        1.11113947581024        0.47415851209609
C            3.30545419806156       -0.34924418013683        0.06573896639034
C            3.76641230009392       -0.88428094568274        1.41622694443374
C            4.24558067836502       -0.01559163368668        2.38498528930823
C            4.71812516197316       -0.50738474706098        3.58934798662955
C            4.70202085008674       -1.86858767628766        3.83917860217647
C            4.21337407936551       -2.73741781766175        2.87855443842777
C            3.74336894193694       -2.24724456463240        1.67307733769554
H           -2.80298834695637       -0.27130852230976       -0.78837657411604
H           -2.80019867372985       -0.18501048620687        0.97758078180515
H           -2.65061394856355        1.29601576446593        0.02169253613607
H           -1.05723216895393       -1.84756906850000       -0.60784089686911
H            1.38257684032292       -2.18241564436722       -0.63322906497516
H            1.81238417404005        1.83371225335609        0.80397539760651
H           -0.64174709632272        2.02700328441611        0.76911039017068
H            3.60359808722389       -1.05254642568429       -0.71195068937672
H            3.78183045402828        0.61455233290205       -0.11129674353007
H            4.27912154593693        1.04675962116509        2.19343525489807
H            5.10878613992110        0.17462540003585        4.32786185158208
H            5.07452389391402       -2.25155146652194        4.77573232940335
H            4.20757640191205       -3.80027416762892        3.06171951006979
H            3.38377592090117       -2.93578201869623        0.92268484958304
28
 energy: -37.487993442338 gnorm: 0.002999487774 xtb: 6.7.1 (edcfbbe)
C           -2.36664177022795        0.24368586893830        0.07539679960181
N           -0.93036366582218        0.09666411985058        0.08540226796404
C           -0.37716523330519       -1.06592895063853       -0.29237722399332
C            0.98377973926743       -1.24018851700535       -0.30971566999416
C            1.83789348273828       -0.19548835634110        0.06867748265792
C            1.22406734299096        0.99033055410041        0.49171738454226
C           -0.14422051653780        1.10631276074016        0.48529731640842
C            3.31128870237816       -0.34833674563874        0.05327310005864
C            3.76414587441987       -0.88247653230828        1.40924477007480
C            4.23427509275956       -0.01066773070904        2.38032988404055
C            4.70251867897907       -0.50230425215441        3.58718297070019
C            4.68870629125444       -1.86426886117036        3.83559313273114
C            4.20181741478208       -2.73473151054519        2.87491103043462
C            3.73582340817720       -2.24569825283345        1.66671036022665
H           -2.79397893858042       -0.27104870137419       -0.78411008699904
H           -2.79674336989862       -0.18676287969541        0.98268795489705
H           -2.64121179455037        1.29555987194305        0.02846029749434
H           -1.05061347392609       -1.85302682336360       -0.59775935842780
H            1.38928123196184       -2.18444945648757       -0.63633703318081
H            1.82219057901790        1.82958801579370        0.80923320904725
H           -0.63211910839082        2.02106487258078        0.78749939449906
H            3.61327647743425       -1.05385722999221       -0.72015046197182
H            3.79199001747605        0.61294033499574       -0.12270933337231
H            4.26348934484733        1.05195146949800        2.18827500298186
H            5.08796988424408        0.18104594395023        4.32782397381366
H            5.06246612438053       -2.24712264445772        4.77208641257837
H            4.19396821160096       -3.79778439121816        3.05925477992483
H            3.37532997252941       -2.93329197645742        0.91562164326181
28
 energy: -37.488036530330 gnorm: 0.003268901339 xtb: 6.7.1 (edcfbbe)
C           -2.36184140031635        0.24259997354480        0.08168746146642
N           -0.92544185580831        0.09394928111310        0.09254578072835
C           -0.37257101170934       -1.06836915105419       -0.28839191724480
C            0.98857598433515       -1.24127008201083       -0.31213772990114
C            1.84311152130399       -0.19598657987804        0.06341656967872
C            1.23053482022688        0.98772734589301        0.49398247906141
C           -0.13796919708282        1.10274457187501        0.49382097890371
C            3.31620315078143       -0.34853456201644        0.04431141615277
C            3.76381859951298       -0.88121749622304        1.40306585936251
C            4.22701591230714       -0.00766594729416        2.37626177216830
C            4.69012013919042       -0.49849947389099        3.58573165443168
C            4.67714405919196       -1.86058475982659        3.83395343080529
C            4.19382370713319       -2.73231552029621        2.87251948885060
C            3.73292720032389       -2.24440041600616        1.66161980718215
H           -2.78810990939179       -0.27009388427071       -0.77983051561471
H           -2.79349389842061       -0.18859192725080        0.98777762823155
H           -2.63464995796046        1.29513442330225        0.03520187508866
H           -1.04661445423048       -1.85645801951859       -0.59068452844756
H            1.39393985473064       -2.18511696947306       -0.64105141305303
H            1.82992002571204        1.82588776291272        0.81294405677069
H           -0.62512365615635        2.01592044537950        0.80278880034344
H            3.61932645474207       -1.05505748097671       -0.72785517084300
H            3.79889995683468        0.61160708053599       -0.13324190664276
H            4.25503061225845        1.05497542020674        2.18378651268245
H            5.07007598929474        0.18565088377000        4.32882305318222
H            5.04786304132410       -2.24276400769448        4.77219538265164
H            4.18394831706759       -3.79525728548096        3.05866284267533
H            3.37475599480509       -2.93230362537085        0.90961633132915
28
 energy: -37.488078661344 gnorm: 0.002060083249 xtb: 6.7.1 (edcfbbe)
C           -2.35800936041827        0.24194647880753        0.08805027843073
N           -0.92054196193018        0.09182053327593        0.09855196011427
C           -0.36913548752193       -1.06993848557998       -0.28614929426124
C            0.99213290048064       -1.24204697673312       -0.31543475163976
C            1.84681991870304       -0.19695522331811        0.05909083613778
C            1.23614508849573        0.98493150996582        0.49647270170303
C           -0.13247273884845        1.09946371421710        0.50166539563584
C            3.32063552357866       -0.34980294322979        0.03696608442628
C            3.76494889800434       -0.88041235078560        1.39681735446740
C            4.22178588873914       -0.00562125286623        2.37197981773262
C            4.67815201951471       -0.49487103539213        3.58465837203314
C            4.66468197219438       -1.85665830489815        3.83403150366661
C            4.18763900584493       -2.72980174103741        2.87083560629618
C            3.73351106193968       -2.24336005922859        1.65677835210679
H           -2.78355885630708       -0.26823207864172       -0.77526088491462
H           -2.79001917803653       -0.19052635537622        0.99295195873468
H           -2.62890639889021        1.29496520240114        0.04285593827881
H           -1.04418697726314       -1.85800066101725       -0.58650678965717
H            1.39709674619516       -2.18502459223225       -0.64743378377162
H            1.83676619251998        1.82171698561450        0.81677190003107
H           -0.61913499629402        2.01087339453923        0.81677189681242
H            3.62272036372579       -1.05701131745357       -0.73534368236251
H            3.80367900236089        0.60999514196594       -0.14352716132386
H            4.24999847807339        1.05689924529340        2.17896215212395
H            5.05292481663400        0.18993872238058        4.32985470011994
H            5.03059052339914       -2.23767396158733        4.77479167538251
H            4.17705194056930       -3.79249208585101        3.05866247805484
H            3.37990561453684       -2.93241150323237        0.90365538564193
28
 energy: -37.488122806288 gnorm: 0.001021758251 xtb: 6.7.1 (edcfbbe)
C           -2.35363494309901        0.24139353120602        0.09595948282711
N           -0.91512045844374        0.08995909907486        0.10438143354474
C           -0.36596225307103       -1.07071005599547       -0.28554726086603
C            0.99526487714331       -1.24263943397741       -0.32014620718044
C            1.85044426285440       -0.19855101598674        0.05483209514225
C            1.24199763597994        0.98149205479172        0.49942552879406
C           -0.12659127319829        1.09593021396037        0.50972154202604
C            3.32516055962728       -0.35213146067323        0.02958294214469
C            3.76692531666293       -0.87999387954211        1.38992987862679
C            4.21675658037772       -0.00385081074235        2.36702358966429
C            4.66470269008226       -0.49067434928238        3.58361167478126
C            4.65010737592432       -1.85193219393994        3.83527621319780
C            4.18222260050218       -2.72693365186028        2.86935685486007
C            3.73655447687992       -2.24257831097038        1.65152998339985
H           -2.77957714951766       -0.26562652588520       -0.76880291984299
H           -2.78498797562689       -0.19320334785802        0.99967918202488
H           -2.62285886645549        1.29477906876479        0.05363528263610
H           -1.04238167817899       -1.85763643059263       -0.58551056371185
H            1.39932681876456       -2.18436727122598       -0.65626690686449
H            1.84386549886935        1.81650080872387        0.82143826931838
H           -0.61269757799663        2.00545309968796        0.83072340996556
H            3.62460507779244       -1.06044597306499       -0.74301757606485
H            3.80764004211509        0.60761004833412       -0.15430312682482
H            4.24610935821292        1.05838451924340        2.17287086553562
H            5.03341451875672        0.19515449963343        4.33076024024005
H            5.00809935216684       -2.23104014916404        4.77985867813909
H            4.17182531571298       -3.78924065153082        3.05877836146321
H            3.39000981716248       -2.93339143112812        0.89673905302373
28
 energy: -37.488180623845 gnorm: 0.002116296674 xtb: 6.7.1 (edcfbbe)
C           -2.34650892490056        0.24058539841430        0.10989994966683
N           -0.90726779958223        0.08786479652653        0.11203559404223
C           -0.36163230090713       -1.07051101709902       -0.28766691157952
C            0.99934379087386       -1.24304945385606       -0.32937354328559
C            1.85611344759011       -0.20159223859997        0.04835166135314
C            1.25088719284116        0.97586859951186        0.50355946455451
C           -0.11751617770061        1.09078913424560        0.52080426202589
C            3.33167476501944       -0.35673693161944        0.01854162669434
C            3.77041010718293       -0.88015362111675        1.37978205260283
C            4.20901846268673       -0.00138246455265        2.35947491609500
C            4.64328409911014       -0.48380262858662        3.58244851161698
C            4.62690548525951       -1.84418221445135        3.83847542092686
C            4.17540250539030       -2.72264077510107        2.86782479551960
C            3.74330480663239       -2.24221461786016        1.64386862914499
H           -2.77554115671034       -0.26109785593220       -0.75617562359634
H           -2.77495696895807       -0.19854346902610        1.01239645025605
H           -2.61444895519948        1.29434345868336        0.07437281896446
H           -1.04024334823179       -1.85461064205015       -0.58937589123437
H            1.40145069614627       -2.18267058425454       -0.67286343450791
H            1.85462085870920        1.80798542684742        0.82859708868560
H           -0.60237093279726        1.99776907463851        0.85008724013802
H            3.62669005211956       -1.06750019031984       -0.75356614531398
H            3.81337759119344        0.60267654714413       -0.16977613791682
H            4.23994501949169        1.06033425670923        2.16292007817426
H            5.00226808900500        0.20431701881055        4.33198430580243
H            4.97128024396326       -2.21972617428867        4.78946285462193
H            4.16672638186936       -3.78440631496658        3.05921357572805
H            3.40900296990300       -2.93600251784976        0.88621639082059
28
 energy: -37.488212662941 gnorm: 0.001968176696 xtb: 6.7.1 (edcfbbe)
C           -2.34256281404243        0.24004100150692        0.11877432254686
N           -0.90357547864910        0.08721960118536        0.11524943074176
C           -0.35944640575668       -1.06956963163717       -0.29088383426627
C            1.00133451686589       -1.24271672325219       -0.33620803300649
C            1.85954929705579       -0.20330257056179        0.04402259989966
C            1.25584794369110        0.97286029323722        0.50470353972912
C           -0.11241809526899        1.08829502892456        0.52568543709392
C            3.33494627203183       -0.35968408969188        0.01257530802268
C            3.77179170103417       -0.88077985718443        1.37517593418314
C            4.20380942094251        0.00001106851143        2.35599292143682
C            4.63135808611650       -0.47987426697466        3.58219497878989
C            4.61516338702120       -1.83989493070006        3.84033906953195
C            4.17255515137493       -2.72057416879693        2.86762673597165
C            3.74694927252599       -2.24264350925304        1.64053483617121
H           -2.77502293059260       -0.25840810626384       -0.74746700709297
H           -2.76786532066390       -0.20248153463763        1.02119175337472
H           -2.61076841221155        1.29390952135130        0.08842589981455
H           -1.03915183309215       -1.85190259908415       -0.59456842093138
H            1.40213789063543       -2.18120937844336       -0.68419333287728
H            1.86066808928994        1.80340533601602        0.83161417332665
H           -0.59612938816239        1.99418440152474        0.85949969823111
H            3.62858344018800       -1.07223598047523       -0.75821613246052
H            3.81725760267901        0.59900223614207       -0.17733881331359
H            4.23467277023059        1.06145635522132        2.15788916174746
H            4.98455255523834        0.21002763255670        4.33280903968880
H            4.95247584851985       -2.21329715039893        4.79457509298119
H            4.16531725976965       -3.78213799260664        3.06003026843194
H            3.41919017322895       -2.93798998621506        0.88148537223345
28
 energy: -37.488266747852 gnorm: 0.000964706957 xtb: 6.7.1 (edcfbbe)
C           -2.33619622411631        0.23893633215332        0.13564678664017
N           -0.89802357015205        0.08696768375156        0.11889659601621
C           -0.35614714366416       -1.06662143244677       -0.29963095947991
C            1.00421317033354       -1.24114557721325       -0.35077957494420
C            1.86543884499044       -0.20616982260200        0.03546366596918
C            1.26420401101790        0.96808808678849        0.50458672011389
C           -0.10374691430844        1.08473489545912        0.53174757496073
C            3.34003206261112       -0.36548762182443        0.00312614785628
C            3.77322319592156       -0.88262618004342        1.36895267073500
C            4.19359972121107        0.00219513831295        2.35129891343327
C            4.61106613959170       -0.47315024461384        3.58262729284500
C            4.59695255493867       -1.83266929699583        3.84405140596845
C            4.16919668147445       -2.71749213653949        2.86846820121557
C            3.75301390322266       -2.24418391248189        1.63637235878444
H           -2.77676695901209       -0.25351281563167       -0.73005624593196
H           -2.75341466258839       -0.21070759404017        1.03877312021580
H           -2.60600455751943        1.29278726960822        0.11613583275517
H           -1.03764199968240       -1.84563283553321       -0.60781971987012
H            1.40250774818183       -2.17756293595682       -0.70735163671988
H            1.87094024235634        1.79606418278388        0.83455045215200
H           -0.58498497177929        1.98903338149738        0.87335891653973
H            3.63255867722747       -1.08165029808979       -0.76435262854521
H            3.82472537829240        0.59136566570388       -0.18874710052286
H            4.22267283145931        1.06323643069890        2.15060194152592
H            4.95428806784810        0.22023037512139        4.33466339622399
H            4.92434160571029       -2.20230390529079        4.80299534621221
H            4.16546212670982       -3.77879745623975        3.06252617901640
H            3.43571003972374       -2.94221537633520        0.87541434683480
28
 energy: -37.488317584777 gnorm: 0.000494305382 xtb: 6.7.1 (edcfbbe)
C           -2.32929959890086        0.23729874338564        0.15573255049120
N           -0.89171783320416        0.08700466092430        0.12218965647394
C           -0.35246359338788       -1.06266116262575       -0.31101756621194
C            1.00746580474145       -1.23849007078686       -0.36950840467604
C            1.87205654753147       -0.20890283775946        0.02408435966083
C            1.27379205538217        0.96339669847611        0.50236322655511
C           -0.09382649951720        1.08122545637488        0.53723959274336
C            3.34571408979779       -0.37246320955218       -0.00692849912488
C            3.77292355233956       -0.88492223299295        1.36335403070678
C            4.17979492595897        0.00459405501043        2.34735423968440
C            4.58840646707140       -0.46574999468302        3.58361056787128
C            4.57929829047022       -1.82487051883634        3.84776929345629
C            4.16594762934756       -2.71425210903636        2.87014614447702
C            3.75783443857808       -2.24604877274117        1.63321822414213
H           -2.77959973724985       -0.24807174553790       -0.70904525640608
H           -2.73561357267626       -0.22102391220256        1.05989050765054
H           -2.60087162666378        1.29096580902109        0.14915106640686
H           -1.03602287854992       -1.83804215848286       -0.62394685612085
H            1.40292563085867       -2.17228717537440       -0.73636656512517
H            1.88280025482171        1.78857781822064        0.83535176739820
H           -0.57211498208897        1.98363484574443        0.88819124226797
H            3.63811814939111       -1.09295758190987       -0.77018346754351
H            3.83431880180901        0.58187361036830       -0.20101692636611
H            4.20519446382534        1.06528458820516        2.14425863838559
H            4.92021065455071        0.23145935636968        4.33737936572343
H            4.89850807035620       -2.19046963545344        4.81104153901773
H            4.16646246938621       -3.77521670278092        3.06641046045772
H            3.45097802602106       -2.94717582134376        0.87079706800426
28
 energy: -37.488355558655 gnorm: 0.000775005783 xtb: 6.7.1 (edcfbbe)
C           -2.32206987155063        0.23513960374015        0.17565609899223
N           -0.88495040278792        0.08691975276417        0.12544276536209
C           -0.34857546205150       -1.05867125111145       -0.32213873929403
C            1.01087346697552       -1.23542936486953       -0.38827519095805
C            1.87852703171855       -0.21112615721516        0.01246071996288
C            1.28340751947154        0.95933977248967        0.49933005317670
C           -0.08378217787605        1.07800614884433        0.54206956316132
C            3.35137668195335       -0.37916339454113       -0.01632766179665
C            3.77130976730368       -0.88692792855450        1.35844138134297
C            4.16488055213115        0.00693898721849        2.34399722827372
C            4.56581467287138       -0.45870707046569        3.58453339608618
C            4.56258194281498       -1.81746063985528        3.85098843331414
C            4.16206702442781       -2.71105534811929        2.87191888764026
C            3.76081488877075       -2.24755688800971        1.63084417613416
H           -2.78159928402474       -0.24335059632129       -0.68806183409672
H           -2.71747171790960       -0.23167954189363        1.08050332193401
H           -2.59507811921033        1.28844816951108        0.18162850855298
H           -1.03423241775738       -1.83068927197718       -0.63884732553074
H            1.40362860798106       -2.16630235618604       -0.76552318044999
H            1.89471235384229        1.78194013611556        0.83454400890303
H           -0.55923623715414        1.97825401575659        0.90235988554547
H            3.64398994543107       -1.10405265619902       -0.77516952802611
H            3.84433240767829        0.57244783750277       -0.21260280601386
H            4.18542443523660        1.06740323669458        2.13919422119019
H            4.88739217822503        0.24180225688436        4.33959586719730
H            4.87761773987907       -2.17954270357124        4.81682753332095
H            4.16707021276669       -3.77165175364414        3.07028174313825
H            3.46239426084330       -2.95156299498647        0.86784847293736
28
 energy: -37.488376499352 gnorm: 0.000674034361 xtb: 6.7.1 (edcfbbe)
C           -2.31616940689883        0.23301328697874        0.19081004194995
N           -0.87932277725306        0.08653736169286        0.12856637997729
C           -0.34534926480890       -1.05589054209365       -0.32963261377446
C            1.01379746099123       -1.23290182223262       -0.40229119325778
C            1.88345896125714       -0.21226304376687        0.00311441159271
C            1.29087781746949        0.95677635255369        0.49656042240056
C           -0.07603004533065        1.07564153103116        0.54593366826773