31
 energy: -45.479495213735 gnorm: 0.000174521829 xtb: 6.7.1 (edcfbbe)
C            0.36857121581805       -0.14141891713921       -0.29717701978957
N            0.30231449178006        1.15453142151676        0.30920144507861
N            0.75912401752158        2.20744378827978       -0.29985981010168
N            0.57162653059993        3.24362674885688        0.45548377893413
C           -0.02643815039857        2.88614803454396        1.62989416727794
C           -0.21317033811715        1.48857138363452        1.52882162737973
C           -0.81588970092845        0.75655837037904        2.55050027813173
C           -1.21473689929397        1.47005640370539        3.65678833601900
C           -1.02575579019228        2.85923275216668        3.75938030957564
C           -0.43293101172767        3.59431709355295        2.75943353919502
C            1.04965767245572        4.54682778673554        0.06673898875451
C            2.29737882098553        4.88778968257231        0.85337032719241
C            3.45156630740452        4.14037929847393        0.65385131436874
C            4.59992139327939        4.43383042604557        1.36706548317416
C            4.59930020879653        5.47233460943167        2.28412384126455
C            3.45025429621611        6.21794922398810        2.48516858208513
C            2.29815552361125        5.92423100270288        1.77524301260177
H           -0.63524141669765       -0.54714388126226       -0.42923306600617
H            0.94574112821583       -0.82134318045229        0.33060764420108
H            0.85099431444368       -0.03983610289685       -1.26707698919891
H           -0.96111006480964       -0.30808021617337        2.47428861322998
H           -1.68807189636862        0.95195895210751        4.47564482700381
H           -1.35925347429433        3.35981159062203        4.65446236059809
H           -0.28480455008553        4.65732173459588        2.84381091946378
H            1.26682757431072        4.49925583351630       -1.00272405511612
H            0.26274426194725        5.28141881517055        0.25067577357585
H            3.45266444078225        3.33731951483835       -0.06993235962800
H            5.49587864078774        3.85595540406021        1.20248309505566
H            5.49593600107498        5.70330736802988        2.83737774257128
H            3.44893433949755        7.03193262505943        3.19303611828961
H            1.40849211338251        6.51874243333874        1.92476117482081
