35
 energy: -43.282642107132 gnorm: 0.086080134870 xtb: 6.7.1 (edcfbbe)
C            0.59491000000000        0.07732000000000        0.04874000000000
C            0.83840000000000        1.44406000000000        0.66513000000000
O            1.26920000000000        2.38772000000000       -0.33417000000000
C            2.58176000000000        2.31726000000000       -0.68448000000000
O            3.38333000000000        1.49638000000000       -0.26045000000000
C            2.91537000000000        3.33971000000000       -1.76686000000000
N            2.53357000000000        2.94616000000000       -3.24218000000000
C            0.97285000000000        2.80065000000000       -3.36635000000000
C            0.18788000000000        4.06325000000000       -3.04083000000000
C            2.96570000000000        4.05754000000000       -4.22297000000000
C            4.45665000000000        4.19594000000000       -4.45725000000000
C            3.08527000000000        1.53974000000000       -3.61745000000000
C            4.55213000000000        1.27335000000000       -3.31795000000000
H           -0.10626000000000        0.15012000000000       -0.78874000000000
H            0.18964000000000       -0.61515000000000        0.79200000000000
H            1.52050000000000       -0.34992000000000       -0.34964000000000
H           -0.09845000000000        1.82950000000000        1.08026000000000
H            1.56256000000000        1.39427000000000        1.48624000000000
H            2.44237000000000        4.29925000000000       -1.53711000000000
H            3.99388000000000        3.51926000000000       -1.74407000000000
H            0.77209000000000        2.49794000000000       -4.40129000000000
H            0.66239000000000        1.97917000000000       -2.71406000000000
H            0.42013000000000        4.88532000000000       -3.72281000000000
H           -0.88293000000000        3.85795000000000       -3.14930000000000
H            0.34249000000000        4.40378000000000       -2.01467000000000
H            2.46062000000000        3.86513000000000       -5.17643000000000
H            2.59143000000000        5.00077000000000       -3.81223000000000
H            4.81725000000000        3.43448000000000       -5.15325000000000
H            4.65872000000000        5.16002000000000       -4.93770000000000
H            5.04465000000000        4.16325000000000       -3.53792000000000
H            2.48594000000000        0.81292000000000       -3.05625000000000
H            2.87853000000000        1.39420000000000       -4.68402000000000
H            4.86367000000000        1.57889000000000       -2.31913000000000
H            4.73415000000000        0.19449000000000       -3.38982000000000
H            5.22285000000000        1.73369000000000       -4.04252000000000
35
 energy: -43.293563514628 gnorm: 0.040317808244 xtb: 6.7.1 (edcfbbe)
C            0.59713355901526        0.07521413268089        0.04223982638722
C            0.84211161656235        1.44503020445104        0.65321933128426
O            1.28384222581286        2.37790652418005       -0.35085500263221
C            2.56027369548021        2.28156868126510       -0.75179612226922
O            3.37114818073442        1.52391546348263       -0.29088748371456
C            2.90841864951279        3.33496447977693       -1.80620331174177
N            2.52453137157619        2.94028590760878       -3.23027514405098
C            0.99671632423856        2.81580316681697       -3.35638942631036
C            0.19904769582175        4.06596713074978       -3.03913438739927
C            2.96657285526407        4.03669374249999       -4.18850417472565
C            4.45394248473713        4.18493566090089       -4.45173905256196
C            3.08728451049759        1.56594343675101       -3.59861061623197
C            4.55170241276244        1.28130655454865       -3.31412038027859
H           -0.11701538718775        0.14747665933391       -0.77903603491834
H            0.19333162593052       -0.59814688483935        0.79360757528421
H            1.52505742704034       -0.35384206135601       -0.33721170560950
H           -0.08556549255258        1.85984553489466        1.05813843152919
H            1.58472896549870        1.38983034134338        1.45537030790477
H            2.40914693669173        4.27669295811354       -1.56868844200897
H            3.98718429518823        3.50305649644948       -1.77439311567142
H            0.79975806424576        2.50591794385229       -4.38617801287770
H            0.68825459406418        2.00684374598189       -2.69340381551105
H            0.41875423112764        4.88517455325684       -3.72045911355861
H           -0.86015834139359        3.83331309624276       -3.15261956568291
H            0.34100192771133        4.39667784973418       -2.01322860455885
H            2.45939219800233        3.84302066805853       -5.13677526735344
H            2.58504203384886        4.97543351363224       -3.78315163556354
H            4.82246980378718        3.43036750117805       -5.14280898907544
H            4.62819300382152        5.15205282853491       -4.92599044791257
H            5.04621363588404        4.16467792699542       -3.54165420415999
H            2.48556371766830        0.84188199214427       -3.04409453291109
H            2.88291649580085        1.42837177264953       -4.66332166088038
H            4.84829097023614        1.56385316857715       -2.30872659819752
H            4.70337417214125        0.20344586220403       -3.39144417682730
H            5.22457954042936        1.74292944730560       -4.03040444719440
35
 energy: -43.296482282482 gnorm: 0.020909801103 xtb: 6.7.1 (edcfbbe)
C            0.59722220859923        0.06971378990912        0.03280221444782
C            0.84826489550228        1.44509292263734        0.62938191501182
O            1.30415297589626        2.37631741445989       -0.37136086632757
C            2.56641435467044        2.29116606034265       -0.75528549983737
O            3.36812514617377        1.52188735883738       -0.33206612977885
C            2.89953308692933        3.32730541407482       -1.84181253685414
N            2.52496862306102        2.94420959575215       -3.22267388823102
C            1.02904719552760        2.82129701354639       -3.34391225264697
C            0.21562434446056        4.06402671070791       -3.03653880170245
C            2.96096201062024        4.02222818538770       -4.17087391916404
C            4.44802051575796        4.17814542282296       -4.44321972404740
C            3.07741649226137        1.59120323629434       -3.58563721940039
C            4.54016940583176        1.29074222359970       -3.29881577531982
H           -0.12423704007028        0.13503928635611       -0.77863476983732
H            0.19380752943686       -0.58399237069261        0.79744125053190
H            1.52675780546397       -0.36219448051358       -0.32934087314336
H           -0.07232193110338        1.88581633119999        1.01788581340684
H            1.59915947672271        1.38946485179895        1.42236822941255
H            2.39416874121292        4.26045614389781       -1.59382675432377
H            3.97797405055980        3.48196541375736       -1.80884926443775
H            0.82545423073359        2.50192146000761       -4.36761380872408
H            0.71326178791551        2.02673072287323       -2.66852893747447
H            0.42061239248739        4.88428591953133       -3.71635948722531
H           -0.83348850230729        3.80344851118910       -3.15774088004366
H            0.33983486862679        4.39294110932178       -2.01037411704604
H            2.45422624786635        3.83311080888679       -5.11881164074009
H            2.58170896371141        4.95885660568980       -3.76414995903968
H            4.82048199758150        3.42822338855712       -5.13146637896800
H            4.59544989283295        5.14674834811115       -4.91607654448083
H            5.04718703001255        4.16923692637038       -3.53978583031043
H            2.47768462153153        0.86412946356501       -3.03602431519576
H            2.88108369541269        1.45434921079796       -4.65051858153112
H            4.82768879449676        1.54387286850740       -2.28418638815121
H            4.66619360627190        0.21417952956674       -3.39454047464049
H            5.22063048531186        1.75648460284820       -4.00038380418756
35
 energy: -43.297003370885 gnorm: 0.005207143782 xtb: 6.7.1 (edcfbbe)
C            0.59368567946400        0.06996739683817        0.03351976050140
C            0.85358932292324        1.44860335763927        0.61977851503264
O            1.31067826862948        2.36951129033967       -0.39191873588905
C            2.57088803770475        2.27470054576460       -0.77780880060079
O            3.38477181352122        1.51221146649206       -0.34440745375399
C            2.90702174764332        3.33383166306033       -1.84757355810295
N            2.52718431979351        2.94664843887054       -3.22367541267163
C            1.03326357962341        2.81898889339020       -3.34021785241670
C            0.21544671740899        4.06283071826079       -3.03622131042108
C            2.95774655560537        4.02467995055959       -4.17118508650232
C            4.44540219018970        4.18298408633937       -4.44043354882139
C            3.07433220686830        1.59356938012254       -3.58771073409629
C            4.53429157681439        1.28645719854599       -3.28575931978654
H           -0.12897673312922        0.12722948512573       -0.77770134282440
H            0.19072201817559       -0.57513367001879        0.80749607459938
H            1.51977781454366       -0.36942636738375       -0.32869939116383
H           -0.06261869350385        1.89829614476264        1.00594193131641
H            1.60747707316717        1.39392502741070        1.40970377752840
H            2.39597924598299        4.26191977872004       -1.58769351553729
H            3.98469333506521        3.49368347663079       -1.80591617801171
H            0.82174530333574        2.49218015760830       -4.36068126927071
H            0.71563823574233        2.03013280053887       -2.65759313906607
H            0.41908883337563        4.88435639303658       -3.71560589478840
H           -0.83192572115256        3.79635566855668       -3.16042405275239
H            0.33563238541789        4.39508475833241       -2.00987983647139
H            2.45237597803493        3.83680330337225       -5.12053907592116
H            2.58085246506445        4.96234905594421       -3.76292179757849
H            4.81834693145741        3.43062121315986       -5.12660242635499
H            4.58818890723476        5.15001575366140       -4.91754013627750
H            5.04566538089055        4.17843979900250       -3.53647339480219
H            2.47197146877195        0.86384194409528       -3.04286754234367
H            2.88658203483137        1.45694043533007       -4.65472621726305
H            4.81162587567382        1.52071675839662       -2.26230560063695
H            4.65731114253984        0.21113037139686       -3.40082341986042
H            5.22478470229056        1.76396332609762       -3.97006401499087
35
 energy: -43.297240064717 gnorm: 0.005595858645 xtb: 6.7.1 (edcfbbe)
C            0.58959148619289        0.06897192995498        0.03530677133358
C            0.85799987841048        1.44932074364186        0.61317887840038
O            1.31967942328847        2.36505670623160       -0.40250493190500
C            2.58081836023151        2.26981106832297       -0.78101332755678
O            3.39697974876111        1.50262944004510       -0.35369662834442
C            2.91525472950080        3.33396198235336       -1.85028674985787
N            2.52718890695121        2.94818267783604       -3.22696179831179
C            1.03223048055871        2.81958057846534       -3.33670266078916
C            0.21065334202101        4.06407304500461       -3.03660764945895
C            2.95456407722022        4.02764207180092       -4.17477440392491
C            4.44276833268524        4.18913570902433       -4.44186557585180
C            3.07579427906924        1.59532436147695       -3.59182729275964
C            4.53148899696471        1.27988507721171       -3.27244173072299
H           -0.13448711849871        0.12146635188713       -0.77528012502800
H            0.18605926783233       -0.56855596054701        0.81625097816842
H            1.51198147405492       -0.37837663190412       -0.32790652510696
H           -0.05456459673163        1.90637757363260        0.99719553038790
H            1.61312276399590        1.39400984668436        1.40126478189206
H            2.40314223707953        4.25961044849716       -1.58355105535496
H            3.99231692200132        3.49882661694646       -1.81009454172616
H            0.81587981659667        2.48530064545047       -4.35409790637187
H            0.71571638133241        2.03519137987608       -2.64791352341967
H            0.41563828050818        4.88559240499258       -3.71602733689326
H           -0.83553365184629        3.79466755084402       -3.16326487170152
H            0.32937915819635        4.39860151837851       -2.01034712111500
H            2.45070618480586        3.84060857763232       -5.12529402303649
H            2.57735657622253        4.96553784727155       -3.76561349536381
H            4.81904310631464        3.43201326566867       -5.12211906901002
H            4.58417478484761        5.15320334824676       -4.92521310565288
H            5.04095205618959        4.19169872852833       -3.53592581414998
H            2.46597434205046        0.86300221568018       -3.05726042320136
H            2.90030981773941        1.46339537640053       -4.66185015467082
H            4.79007886610129        1.48798727845934       -2.23688907049499
H            4.65586424941373        0.20728867965096       -3.41454230988619
H            5.23511703993816        1.77738754635336       -3.93085371851498
35
 energy: -43.297469886817 gnorm: 0.009121887196 xtb: 6.7.1 (edcfbbe)
C            0.58205678028153        0.06762867431677        0.04025866057549
C            0.86425230383620        1.44867384630898        0.60849023155408
O            1.33201892895163        2.35843011047751       -0.41150693677410
C            2.59288598354553        2.26335895075908       -0.78314805738627
O            3.41026554371785        1.49356729865386       -0.36168148143194
C            2.92424905122484        3.33215780317224       -1.85303655168853
N            2.52898561216373        2.95004844229957       -3.23049937986757
C            1.03311842932711        2.81963745160483       -3.33249307174541
C            0.20872160038620        4.06563824444147       -3.03804543078762
C            2.94992074431232        4.03176944385340       -4.17923929228870
C            4.43831786803321        4.19738666658060       -4.44592493231032
C            3.07806453871872        1.59817486499584       -3.60201706589014
C            4.52612986340725        1.27248610349040       -3.25376945640747
H           -0.14558042449770        0.11734649667604       -0.76746844996615
H            0.17799710190645       -0.56013877172588        0.82901697278317
H            1.49841448678073       -0.39083931309472       -0.32566199689570
H           -0.04251373100605        1.91629349697694        0.99119633717839
H            1.62201109710793        1.39043948879510        1.39324411587289
H            2.41169759395728        4.25529273087497       -1.57910468975224
H            4.00083414188088        3.50108780688949       -1.81977601158269
H            0.81169715935523        2.47585406524379       -4.34577053029485
H            0.71949902150204        2.04154397558531       -2.63521205664852
H            0.41479835286693        4.88646178571831       -3.71821195221539
H           -0.83610305165582        3.79373221110473       -3.16733401995377
H            0.32557886074886        4.40315344602762       -2.01220914802311
H            2.44660867153186        3.84357834964448       -5.12997183754610
H            2.57044209110496        4.96929180849371       -3.76991045992933
H            4.82044108090333        3.43058307879862       -5.11322210608790
H            4.57662450466482        5.15481344884589       -4.94345451178027
H            5.03340284581818        4.21666112163957       -3.53747378750342
H            2.45467445180970        0.86053184719195       -3.08863829504277
H            2.92503079117159        1.47878316820308       -4.67760637634566
H            4.75077678934522        1.43056864054381       -2.19836790239849
H            4.65749173216099        0.20700871872510       -3.44695218711139
H            5.25042918463625        1.80740449788760       -3.86402834230787
35
 energy: -43.297671344555 gnorm: 0.009197373214 xtb: 6.7.1 (edcfbbe)
C            0.57422816720653        0.06716348577473        0.04599837524807
C            0.86845312768430        1.44724339463108        0.60921575323773
O            1.33910974874882        2.35338279295745       -0.41358641245160
C            2.59990694900749        2.25942696532742       -0.78194731244039
O            3.41687715482194        1.49126938526540       -0.35934786772070
C            2.93011159241625        3.32737223120147       -1.85458749046212
N            2.52975808242199        2.95013315932340       -3.23317490260290
C            1.03289018765743        2.81935053856243       -3.33054795282284
C            0.20917302079898        4.06689407144920       -3.03991883080601
C            2.94714086572280        4.03438647923268       -4.18166816214288
C            4.43477259870513        4.20340961981847       -4.45032426056813
C            3.08191669935133        1.60039072021596       -3.61201825316531
C            4.52271383327762        1.26750230668114       -3.24174673143036
H           -0.15751049100514        0.11884245029943       -0.75790233763542
H            0.17024450016667       -0.55490114916942        0.83880807462129
H            1.48519018609536       -0.39926970825793       -0.32379919068117
H           -0.03338272315164        1.92216773660253        0.99361826054482
H            1.62894470773623        1.38535363275421        1.39097129989341
H            2.41891751382475        4.25009086769080       -1.57809535611486
H            4.00694166701054        3.49595212461923       -1.82723021312640
H            0.80947562640682        2.46999980847853       -4.34119490391828
H            0.72223065473734        2.04546279778767       -2.62778681844683
H            0.41616472537760        4.88605889053538       -3.72176247864708
H           -0.83549117933618        3.79552259580783       -3.16942514809155
H            0.32639322668101        4.40663111634427       -2.01488855629559
H            2.44283960231071        3.84465524045722       -5.13160628787537
H            2.56560293464878        4.97099323392850       -3.77205131494218
H            4.82196269491509        3.42693775829588       -5.10395678307103
H            4.56920803848829        5.15330650372552       -4.96396184550427
H            5.02781618739108        4.24185358140928       -3.54067671116355
H            2.44712219393411        0.85749049609364       -3.11972738899279
H            2.94821087828539        1.49545922775825       -4.69197633618696
H            4.71927483515008        1.38274654918943       -2.17508505286720
H            4.66642984936094        0.21182450171298       -3.47885082082453
H            5.25960234315122        1.83330659349613       -3.80929604254646
35
 energy: -43.298001138378 gnorm: 0.006827399909 xtb: 6.7.1 (edcfbbe)
C            0.56154526973586        0.06791079786286        0.05538654041036
C            0.87235321199828        1.44511069306599        0.61547009819663
O            1.34256053450601        2.34730238963981       -0.41130431450108
C            2.60383246158828        2.25628238816714       -0.77813276601775
O            3.41925384332147        1.49519959813497       -0.34589941687362
C            2.93532355615841        3.31813403778696       -1.85577158772141
N            2.53154103375761        2.94826920866461       -3.23571398672347
C            1.03377014577730        2.81751709966499       -3.32965608149086
C            0.21362235338409        4.06703869471613       -3.04289151125446
C            2.94474900323550        4.03698075696646       -4.18231944468521
C            4.43020153148216        4.20930203107855       -4.45663122429747
C            3.08846002432766        1.60305164975686       -3.62817695039017
C            4.51917252318698        1.26404865631742       -3.23198265346815
H           -0.17740001928944        0.12722905478988       -0.74132213638131
H            0.15898723198002       -0.54978777070445        0.85120267651927
H            1.46484221407027       -0.40700446370010       -0.32198913933168
H           -0.02245511087592        1.92782407195422        1.00671244461248
H            1.63821400472437        1.37733218336636        1.39194253688969
H            2.42947260964121        4.24315024316086       -1.57871612158832
H            4.01347397569548        3.47922355973407       -1.83462913696052
H            0.80992996315882        2.46401714080298       -4.33806628792388
H            0.72710940992717        2.04749666983096       -2.62201041963975
H            0.42018717609005        4.88272137820267       -3.72881318696857
H           -0.83211193919141        3.79843355408864       -3.16915875342019
H            0.33381346377878        4.41036719374514       -2.01972195943809
H            2.43700577926004        3.84595919795234       -5.13018495722034
H            2.56164009831093        4.97161420580522       -3.77074963371645
H            4.82449174854764        3.41852257264235       -5.08852596322352
H            4.55693630686378        5.14631870168248       -4.99690745702184
H            5.02175563876011        4.28004543790913       -3.54743554697301
H            2.44017880970663        0.85241078684385       -3.16667138954807
H            2.97975109471787        1.52121588667360       -4.71283196011254
H            4.67956231692485        1.32113969535852       -2.15772543008564
H            4.68522511813686        0.22655720750564       -3.52545944072514
H            5.26624461660165        1.86747549053335       -3.74084543892500
35
 energy: -43.298243588959 gnorm: 0.007540584936 xtb: 6.7.1 (edcfbbe)
C            0.54781343415769        0.07103510630848        0.06516908342759
C            0.87551623459256        1.44574409975279        0.62241056353793
O            1.34102006290723        2.34218357198019       -0.41121401913748
C            2.60348146934700        2.25291975807117       -0.77814322204583
O            3.41896458266861        1.50089550608584       -0.33121484263245
C            2.94008704235140        3.30847063714662       -1.85869515286334
N            2.53319098594060        2.94566021047952       -3.23781016503130
C            1.03616783053478        2.81326961038383       -3.32977789119628
C            0.21931921417132        4.06396977945604       -3.04483239873519
C            2.94301933808032        4.03938350486672       -4.18004210696795
C            4.42592787925412        4.21282707475255       -4.46171810576565
C            3.09508769020086        1.60738241566618       -3.64606499030473
C            4.51643192826501        1.26256092387382       -3.22564096651719
H           -0.19931290935740        0.13876048119321       -0.72317554926838
H            0.14837593265266       -0.54405090498158        0.86445437589633
H            1.44332706165206       -0.41049784895966       -0.32146261794598
H           -0.01161381322113        1.93530310283776        1.02407219843255
H            1.64909244383923        1.37267841681388        1.39138346838725
H            2.44263796297006        4.23803349472024       -1.58079516508026
H            4.02023065881697        3.45663946095936       -1.83787424423485
H            0.81153778936971        2.45809852991850       -4.33717426063260
H            0.73219571577493        2.04519087361556       -2.61929141326401
H            0.42187017193813        4.87556898422377       -3.73669644675606
H           -0.82800008736002        3.79665677107853       -3.16344068847111
H            0.34532726316619        4.41254844319328       -2.02436633779623
H            2.43039536623257        3.85097805962720       -5.12587632700876
H            2.56210340280057        4.97196402162037       -3.76316364841798
H            4.82593625907001        3.40935365147911       -5.07261446574123
H            4.54339175177686        5.13580170100811       -5.02817043822734
H            5.01782013663840        4.31535636826427       -3.55589617946268
H            2.43677509803933        0.84722933916444       -3.21624568026325
H            3.00911110906488        1.55100458377142       -4.73424491148685
H            4.63912131627742        1.25421256828445       -2.14287530365670
H            4.70449238333630        0.24564244668650       -3.57692831557183
H            5.27239729404993        1.90563525665825       -3.67157383519679
35
 energy: -43.298304856688 gnorm: 0.009705213687 xtb: 6.7.1 (edcfbbe)
C            0.53348075663707        0.07691405994075        0.07372828866083
C            0.87516208378831        1.44852839819565        0.63146168069847
O            1.33098790764121        2.34031831973049       -0.40868686730113
C            2.59614410731353        2.25286322448402       -0.77710947377518
O            3.40976683459624        1.50902900156043       -0.31308358796006
C            2.94271901517676        3.29737084487873       -1.86057940623379
N            2.53484540723171        2.94209752375203       -3.23932407345836
C            1.03901517296234        2.80738065709996       -3.33227857945604
C            0.22544486920957        4.05752425307150       -3.04470905230204
C            2.94313383246231        4.04241379451402       -4.17465648342740
C            4.42338662957854        4.21331240647884       -4.46537410199367
C            3.10197483890886        1.61100050429679       -3.66123898293186
C            4.51667452674371        1.26328600248029       -3.22860571062271
H           -0.22183099192492        0.15550094429209       -0.70560142308896
H            0.13904472390466       -0.54062289594897        0.87374110067549
H            1.42225992245104       -0.40674112573586       -0.32410036599467
H           -0.00514175331688        1.94038669436303        1.04781691258238
H            1.65751940885726        1.37043517954649        1.39168638911154
H            2.45959644176804        4.23589268821260       -1.58466590665904
H            4.02577478804807        3.42525170084300       -1.83616049351180
H            0.81574245076935        2.45636224130730       -4.34141458096368
H            0.73682609125133        2.03607266890634       -2.62476565817283
H            0.41945567354258        4.86430817184843       -3.74472759983229
H           -0.82443764212894        3.79099491893821       -3.14876000757333
H            0.36270815792593        4.41231747122697       -2.02799613219843
H            2.42364878888703        3.86146287812423       -5.11827919905122
H            2.56826352936301        4.97274713278226       -3.74870207272614
H            4.82661299481178        3.40026550803087       -5.05825089566760
H            4.53267764238833        5.12214230583966       -5.05401446000948
H            5.01691545381255        4.34261673542928       -3.56601331636442
H            2.44079387330164        0.84418824375492       -3.25538423714975
H            3.02958191394324        1.57485203290808       -4.74900462595558
H            4.61816281358868        1.21458479392388       -2.15692179409492
H            4.72909066411744        0.27062052561952       -3.60863438634261
H            5.26723907238742        1.92273219530527       -3.62892089690792
35
 energy: -43.298438159246 gnorm: 0.008439883569 xtb: 6.7.1 (edcfbbe)
C            0.51938937927567        0.08237449875436        0.08228298550376
C            0.87789580174804        1.45296218371194        0.63361865136288
O            1.33104650763505        2.33704674448427       -0.41413496292820
C            2.59761831596618        2.24821953139659       -0.77908313866889
O            3.41064711329195        1.50619846374683       -0.30844748001575
C            2.95087514989368        3.28910323432939       -1.86372480003165
N            2.53721179882791        2.94016855564044       -3.24222337477999
C            1.04206126639226        2.80286738499865       -3.33144748533949
C            0.22709947419155        4.05256220260528       -3.04360730878896
C            2.94010015116218        4.04680172495885       -4.17272232267522
C            4.41906316037929        4.21755986183373       -4.46996854474949
C            3.10805949862432        1.61526654904883       -3.67854268583337
C            4.51413984840360        1.25849031527898       -3.21899853445427
H           -0.24325207400920        0.16479052021423       -0.68948470172291
H            0.12867262401071       -0.53107051082566        0.88802666331188
H            1.40039801291933       -0.40877485867973       -0.32466805100652
H            0.00564463640596        1.95274708703314        1.05828884181980
H            1.66771709148853        1.37032854800373        1.38560862456388
H            2.47847074884951        4.23269870514472       -1.58409753316014
H            4.03547783350389        3.40540977745772       -1.83974346619656
H            0.81617469997960        2.45031528702342       -4.33990402079151
H            0.74193430369823        2.03159596039382       -2.62255244660667
H            0.41370311998809        4.85597270174916       -3.74987338958902
H           -0.82326059786601        3.78303199702255       -3.13709317645560