33
 energy: -52.781110581009 gnorm: 0.096125310500 xtb: 6.7.1 (edcfbbe)
O            1.34760000000000        0.17589000000000       -0.33222000000000
C            2.55734000000000       -0.01553000000000       -0.18887000000000
C            3.07698000000000       -1.11416000000000        0.61708000000000
C            2.36763000000000       -2.21296000000000        1.06792000000000
C            3.17898000000000       -3.12323000000000        1.80553000000000
C            4.47613000000000       -2.67835000000000        1.92055000000000
S            4.70546000000000       -1.17576000000000        1.14252000000000
C            3.55953000000000        0.89825000000000       -0.90810000000000
N            2.99980000000000        1.43984000000000       -2.17011000000000
C            2.72790000000000        2.74080000000000       -2.42096000000000
C            2.99206000000000        3.89570000000000       -1.51140000000000
N            2.18228000000000        2.79357000000000       -3.65605000000000
C            2.12572000000000        1.53719000000000       -4.23520000000000
C            2.63844000000000        0.66020000000000       -3.27519000000000
C            2.72145000000000       -0.71399000000000       -3.49892000000000
C            2.26090000000000       -1.16692000000000       -4.74224000000000
C            1.75437000000000       -0.28119000000000       -5.71146000000000
C            1.67810000000000        1.09898000000000       -5.47972000000000
N            1.75147000000000        3.99712000000000       -4.32995000000000
H            1.31292000000000       -2.36744000000000        0.86309000000000
H            2.82809000000000       -4.05524000000000        2.23480000000000
H            5.29837000000000       -3.16410000000000        2.43084000000000
H            3.82462000000000        1.71390000000000       -0.23109000000000
H            4.46771000000000        0.35840000000000       -1.19144000000000
H            2.25113000000000        3.84915000000000       -0.71262000000000
H            4.00765000000000        3.78834000000000       -1.12837000000000
H            2.90759000000000        4.82372000000000       -2.07563000000000
H            3.11208000000000       -1.40098000000000       -2.75906000000000
H            2.29503000000000       -2.23392000000000       -4.96663000000000
H            1.41197000000000       -0.68193000000000       -6.66638000000000
H            1.29423000000000        1.78250000000000       -6.22557000000000
H            1.43214000000000        4.73158000000000       -3.69978000000000
H            1.06905000000000        3.82174000000000       -5.06701000000000
33
 energy: -52.790908045702 gnorm: 0.040218331285 xtb: 6.7.1 (edcfbbe)
O            1.35592020138396        0.16548119554617       -0.36481477311146
C            2.54721554665154       -0.02863717737145       -0.21799715889242
C            3.07698767244604       -1.10387663320433        0.60308692300141
C            2.37044180308272       -2.19843916312187        1.06536005124601
C            3.17359387802612       -3.09379216752375        1.79668674963802
C            4.46559321669857       -2.66030080522109        1.91100787176544
S            4.72768492527013       -1.17797795665425        1.10460863401169
C            3.56235760824422        0.88530113691817       -0.92810161296200
N            2.99633993562858        1.43077497719574       -2.16344850538209
C            2.71012607268450        2.72268243336147       -2.42624277429440
C            2.97972488460436        3.87073602147831       -1.52408931426205
N            2.16824470406588        2.79864991828182       -3.65277961161603
C            2.11497794712555        1.54053058627781       -4.22247538367818
C            2.63403053246937        0.66020298643816       -3.25996431006258
C            2.71709813722498       -0.70594427353805       -3.49733071852784
C            2.26263830597975       -1.14911636643649       -4.73006649403588
C            1.75790610039141       -0.26973015811425       -5.69239265009010
C            1.67533139013979        1.09421604314259       -5.46321637809889
N            1.78506512827096        3.97862314240157       -4.31762415382935
H            1.32471400807446       -2.35573994624418        0.86020336262241
H            2.82084509580493       -4.01882345305987        2.22118563125756
H            5.27847095407073       -3.14487880163658        2.42185052107961
H            3.81717752515914        1.70476364777430       -0.25317954769707
H            4.47333197515919        0.33819634237656       -1.18449802084368
H            2.26343841082839        3.86361701139296       -0.70246653134905
H            3.98853869990266        3.79281301298705       -1.12304133232283
H            2.90279536917403        4.80767758438207       -2.06825028010828
H            3.10640301600712       -1.39388642177861       -2.76421768062534
H            2.29939631443060       -2.20640594090564       -4.95667550809392
H            1.42250113814725       -0.66688813153604       -6.64134462851590
H            1.29767053994749        1.76897211226224       -6.21509258573492
H            1.44096924447554        4.68768648100514       -3.67842105174038
H            1.09718971842998        3.78468276312436       -5.03789873874750
33
 energy: -52.793229692860 gnorm: 0.009170552258 xtb: 6.7.1 (edcfbbe)
O            1.35195083558787        0.15090124930898       -0.42109324072222
C            2.53362160208913       -0.03375496233064       -0.24654116710400
C            3.07460246848190       -1.09494621322252        0.57530867971686
C            2.37012842022922       -2.18334759510656        1.05136487131974
C            3.16680135140879       -3.06544422236469        1.78919424914109
C            4.46184184707167       -2.64734354711537        1.88810385270099
S            4.74129524838412       -1.17696135434212        1.06599060856679
C            3.56834365453219        0.87856157202723       -0.94458580800149
N            3.00658510886466        1.42422847660509       -2.15790570810253
C            2.70834182271569        2.70924452812162       -2.42435897543387
C            2.97232119635499        3.85277852638621       -1.52651022606359
N            2.16224730228799        2.80039159034742       -3.64145330348197
C            2.11361905255763        1.54131533117137       -4.20683594014693
C            2.63909123256543        0.65940290566679       -3.24511443879436
C            2.71699413158127       -0.70394812903052       -3.49218595982224
C            2.26425940787679       -1.14330408305144       -4.71874354598277
C            1.75817125628738       -0.26445946241818       -5.67752101028565
C            1.67253596582330        1.09102522003058       -5.44482918345207
N            1.80110244892814        3.95939284951232       -4.29506235208837
H            1.32429830238892       -2.33053461840962        0.85792595370321
H            2.80725473744408       -3.97703414340328        2.22936259903504
H            5.26907353715501       -3.12439630694665        2.40799025603124
H            3.81826666968763        1.69379096742441       -0.26342885065819
H            4.47836713760128        0.32279621354007       -1.18345309610739
H            2.26904852847370        3.86586766438700       -0.69166693872632
H            3.97887567060479        3.79163745495788       -1.11553837147626
H            2.89597107360307        4.79382505060251       -2.06376331810210
H            3.10687702510315       -1.39164044566199       -2.76139956665471
H            2.30526168249376       -2.19515821337943       -4.94843527390760
H            1.42728550032816       -0.65758802406592       -6.62466243135949
H            1.29343504120827        1.76243281529970       -6.19763695420438
H            1.43610831770480        4.65730403945917       -3.65496312076813
H            1.12074242257505        3.75613486600067       -5.01919228876826
33
 energy: -52.793668494071 gnorm: 0.006693728321 xtb: 6.7.1 (edcfbbe)
O            1.35203019891498        0.13932650989857       -0.46732603773068
C            2.53179939520666       -0.04318261197566       -0.27310343603018
C            3.07071430595448       -1.09351741801807        0.55805681786725
C            2.36330166277345       -2.17127190779703        1.05252751247113
C            3.16043658785042       -3.05097332722457        1.79271999095495
C            4.45881698392556       -2.63838103564003        1.87956453100934
S            4.74387956259477       -1.18005856970488        1.03811342517503
C            3.57745425426609        0.87591832288363       -0.95097116109017
N            3.02037703199150        1.42325635163411       -2.15847840911267
C            2.71338304512187        2.70643814477995       -2.41923782981064
C            2.97125843216468        3.84896523652354       -1.51909216165901
N            2.16099456027423        2.79875159325261       -3.63268239096143
C            2.11441664562274        1.53973348608281       -4.19915262015124
C            2.64794584526436        0.65870304598474       -3.24194327688689
C            2.72469930679825       -0.70515322157640       -3.49057423119217
C            2.26783815161315       -1.14522858933402       -4.71503420760769
C            1.75622030932441       -0.26523492583844       -5.67171769144361
C            1.66760505094130        1.08976848844465       -5.43532463045118
N            1.79809706865786        3.95610794173067       -4.28287555089449
H            1.31557960591057       -2.31258361435621        0.86218881773306
H            2.79801298571895       -3.95607442782917        2.24430849518458
H            5.26838033279180       -3.11413126199854        2.39691406756593
H            3.82623711272421        1.68297320763241       -0.25937012901993
H            4.48533931855629        0.31566149873183       -1.18589219041751
H            2.26797711643588        3.85940708466814       -0.68482573297453
H            3.97788748558001        3.79097303825384       -1.10707915118401
H            2.89135365151742        4.78972740983525       -2.05697239127422
H            3.11585698349523       -1.39206989298858       -2.75905415895975
H            2.30831889541723       -2.19710411256598       -4.94492441781568
H            1.42289465793848       -0.65742862542527       -6.61831211282423
H            1.28215110152944        1.76147978728265       -6.18498804530008
H            1.42216278570901        4.65250889099216       -3.64647894143422
H            1.13129956741449        3.75386350366149       -5.02062275173493
33
 energy: -52.794162588338 gnorm: 0.009147698991 xtb: 6.7.1 (edcfbbe)
O            1.35867566753442        0.10886236421473       -0.56075769727842
C            2.53440469774119       -0.05865334464374       -0.31469395580423
C            3.06373945575044       -1.09564969784549        0.52874611022791
C            2.35024038756523       -2.15427898017461        1.05512093268231
C            3.14563293762349       -3.02660401007392        1.80769353247334
C            4.45191436164932       -2.62846211518991        1.86482272507669
S            4.74541081139759       -1.19167774363838        0.99117369026445
C            3.59549464248336        0.87085156659282       -0.96222852270645
N            3.05109796603040        1.42536568402658       -2.16480127561979
C            2.72652215915413        2.70574909505247       -2.41248890723166
C            2.97201379482008        3.84545925819350       -1.50413299098850
N            2.15918401472665        2.79706049583471       -3.61944483490941
C            2.11626819250651        1.53846143848600       -4.18936402500512
C            2.66877392797046        0.66020170493080       -3.24245566682317
C            2.74564737497136       -0.70485305093283       -3.49161638367568
C            2.27556600787467       -1.14753863536628       -4.71028366417031
C            1.74953957805079       -0.26689292010211       -5.66163572809741
C            1.65571657386560        1.08808134041044       -5.42069084654332
N            1.78697071270492        3.95588642258742       -4.26199218450268
H            1.29676970061460       -2.27963282465667        0.87769153703896
H            2.77622945904416       -3.91549864276630        2.28756535047720
H            5.26593208401310       -3.10192493961390        2.37817218289589
H            3.84180356904148        1.66245238944915       -0.25192338245267
H            4.50084324015771        0.30457842888253       -1.19153883183400
H            2.26449269289304        3.84472728446676       -0.67445081913972
H            3.97787820958593        3.79100408468376       -1.08941366603802
H            2.88535407587003        4.78639349633152       -2.04140567808678
H            3.14376166974228       -1.38953090154797       -2.76033672664467
H            2.31490821819183       -2.20016645495664       -4.93988281735129
H            1.40742922514325       -0.65936846360500       -6.60546806163449
H            1.25307472485481        1.75910203616546       -6.16273899342570
H            1.38298145854766        4.64308341298671       -3.63067133457797
H            1.15044840787906        3.75458222181872       -5.02820906659493
33
 energy: -52.794423464209 gnorm: 0.009580895191 xtb: 6.7.1 (edcfbbe)
O            1.37078970579031        0.08670176231841       -0.61606022663283
C            2.54164019061597       -0.07477263946414       -0.34572658390015
C            3.06032877723631       -1.10158908218561        0.51329259232662
C            2.33974746033983       -2.14269612126572        1.06689941060529
C            3.13317771796698       -3.01221486056737        1.82481687963864
C            4.44434037583249       -2.62653250382151        1.86282975514269
S            4.74539024933741       -1.20743561308114        0.96410003630831
C            3.60873085984540        0.86557673845689       -0.97116002812734
N            3.07330827006801        1.42928234167313       -2.17299596804647
C            2.73634461674963        2.70797748209639       -2.41139188954132
C            2.97385619903233        3.84467555726178       -1.49606999812200
N            2.15785615165112        2.79804689248985       -3.61401797522770
C            2.11742508291991        1.54038622962958       -4.18745233212476
C            2.68545005474006        0.66414233296572       -3.24874600795339
C            2.76595381189802       -0.70106807443627       -3.49815613485499
C            2.28286399819488       -1.14586711604148       -4.71103815633762
C            1.74233536609550       -0.26651676922508       -5.65629380187369
C            1.64531482249284        1.08836308881385       -5.41413204360087
N            1.77613088588157        3.95982890613045       -4.24853413181927
H            1.28318764276632       -2.25751404252847        0.89834108613675
H            2.75880116318038       -3.88903272697650        2.32300097780614
H            5.26038559202629       -3.10130537520927        2.37232672236481
H            3.85247322038715        1.64721458766085       -0.24916015713301
H            4.51399371568517        0.29959083357948       -1.20071192647935
H            2.26103409280057        3.83461441488832       -0.67088754034976
H            3.97789295472790        3.79107878091527       -1.07736967994132
H            2.88431134876915        4.78708537790956       -2.03032048633211
H            3.17405476705382       -1.38376877902030       -2.77005083870825
H            2.32160385372346       -2.19895274542857       -4.94025546788946
H            1.39026301834300       -0.66075969235446       -6.59612585371669
H            1.22813738939830        1.75734274413985       -6.15035244834267
H            1.34530549889269        4.63198062587071       -3.61721012010246
H            1.16229114555655        3.75730744480632       -5.03302766317119
33
 energy: -52.794759062371 gnorm: 0.008067125087 xtb: 6.7.1 (edcfbbe)
O            1.38997672212632        0.05689237430126       -0.67608157458858
C            2.55457044274710       -0.09142297637363       -0.37589375867279
C            3.05967110198007       -1.11052783596151        0.49981554744876
C            2.32939234058200       -2.13023929865891        1.08086862825808
C            3.11606401745459       -2.99464769396933        1.85110014752423
C            4.43332877555222       -2.62931476534528        1.86734748905902
S            4.74594271491767       -1.23352706011946        0.93846654997360
C            3.62568252315666        0.85655848952606       -0.98254644775964
N            3.09918733997840        1.43381579544946       -2.18492381324368
C            2.74798149916648        2.71057642400466       -2.41254506881617
C            2.97697523150577        3.84322169022322       -1.48950076930953
N            2.15573130683555        2.80016286707899       -3.60955115169258
C            2.11787725469767        1.54476927849989       -4.18855137343973
C            2.70613610656229        0.67023767213234       -3.26101007711846
C            2.79507625333881       -0.69390087863188       -3.51258983425207
C            2.29325017133362       -1.14060641276466       -4.71713926327871
C            1.73018439877471       -0.26398570292597       -5.65154799073073
C            1.62948621751911        1.09031806219548       -5.40831979032796
N            1.76113138338136        3.96751252322796       -4.23076971607232
H            1.26898876627713       -2.23017228864124        0.92688115260756
H            2.73359296287150       -3.85399409024556        2.37275568880093
H            5.24834150607202       -3.10770912479187        2.37549157177054
H            3.86415171370560        1.62963025811021       -0.25090479743388
H            4.53331792432938        0.29465103594400       -1.21404056024587
H            2.25558170380260        3.82393482481765       -0.67100186448412
H            3.97694631326318        3.78901439002706       -1.06245976338841
H            2.88743188232062        4.78814504124588       -2.01885536574046
H            3.22189827080198       -1.37414644664682       -2.79278126414455
H            2.33321022357454       -2.19358501319959       -4.94722389456093
H            1.36232967791668       -0.66096453923599       -6.58458837834759
H            1.19356255829497        1.75575933961092       -6.13697432216650
H            1.28939392199104        4.61138515039606       -3.59691031355999
H            1.17832677316739        3.76332891072141       -5.03765562206658
33
 energy: -52.795072450267 gnorm: 0.006839919160 xtb: 6.7.1 (edcfbbe)
O            1.41300252166485        0.02934791681429       -0.72210882701383
C            2.57166078241227       -0.10697701409000       -0.40200918327138
C            3.06410588455596       -1.11921092819402        0.49214254233873
C            2.32056060730902       -2.11477452174363        1.09830443215601
C            3.09728883968176       -2.97605207461524        1.88085298415202
C            4.42084008725817       -2.63566204633151        1.87903699575792
S            4.74925630479715       -1.26450390200548        0.92078645808691
C            3.64383009549149        0.84548019005401       -0.99473889561938
N            3.12106273941286        1.43528288804522       -2.19687722485389
C            2.75729563552808        2.71020741280076       -2.41425530242974
C            2.98009688930096        3.83943716600922       -1.48638312511982
N            2.15184758963365        2.80161286160022       -3.60499380931154
C            2.11657272266026        1.54990071968543       -4.19134249468618
C            2.72508718509711        0.67551667364502       -3.27632242614678
C            2.82650710218214       -0.68588248999418       -3.53458741871433
C            2.30563654361224       -1.13268697721131       -4.73084913630339
C            1.71592255910731       -0.25873631589379       -5.65024139681071
C            1.61081028487602        1.09425276319230       -5.40369642569973
N            1.74385469035331        3.97550753647107       -4.20914651527586
H            1.25766399676849       -2.20026696649888        0.95743909248591
H            2.70443282976745       -3.81654499587621        2.42411460311048
H            5.23043612452538       -3.12010613879014        2.39001698679099
H            3.87660514175746        1.61374928507206       -0.25733885373186
H            4.55492127088142        0.28998111733051       -1.22971356853498
H            2.24930437395976        3.81730523863957       -0.67512590198907
H            3.97459527942971        3.78289334878885       -1.04809142602305
H            2.89512287562512        4.78618033608609       -2.01262660417533
H            3.27693138432110       -1.36439683637702       -2.82774487369803
H            2.35081068440090       -2.18437840489540       -4.96511936737959
H            1.33033023351729       -0.65735251594411       -6.57552044823204
H            1.15593776751004        1.75633160941300       -6.12363001906262
H            1.22769300447440        4.58343063383614       -3.57298156352371
H            1.19469596812557        3.77228443097832       -5.03888928727083
33
 energy: -52.795337796393 gnorm: 0.006350477723 xtb: 6.7.1 (edcfbbe)
O            1.43429423178437        0.00437438611402       -0.76068037871294
C            2.58942435457321       -0.11839973405441       -0.42151121040210
C            3.07241125827205       -1.12447803386984        0.48798716703217
C            2.31423634041770       -2.09634593293679        1.11323208699530
C            3.07863724103642       -2.95524939300147        1.90991396162553
C            4.40843069148899       -2.64137028486368        1.89387382262974
S            4.75567508257165       -1.29414975459168        0.90886015222045
C            3.66237668604148        0.83412303429457       -1.00679202899694
N            3.13903604694560        1.43209084286555       -2.20698837613419
C            2.76416377129047        2.70522684815100       -2.41401143546610
C            2.98281602719375        3.83261976776318       -1.48458819394950
N            2.14627262405507        2.80071485899736       -3.59790290162931
C            2.11356235365202        1.55340766052549       -4.19257702659909
C            2.74100558659215        0.67774564742508       -3.29088341004732
C            2.85569552958327       -0.67979964038276       -3.56068279775264
C            2.31912914771674       -1.12438379982100       -4.75057900329651
C            1.70236510807481       -0.25168856603871       -5.65241545514430
C            1.59103622803784        1.09915157780699       -5.39815078780202
N            1.72520803496792        3.98024859847150       -4.18308488718803
H            1.24934511506800       -2.16689206550887        0.98334105989713
H            2.67356202525610       -3.77675246539336        2.47271424556657
H            5.21009109978537       -3.13317891316200        2.41004789308628
H            3.89092716782757        1.60069387292198       -0.26666029919595
H            4.57629729011466        0.28349312561845       -1.24334433635605
H            2.24328093625836        3.81517436785354       -0.68049742248841
H            3.97157213592732        3.77283837414267       -1.03435971487080
H            2.90587751506910        4.77918814750012       -2.01224442574580
H            3.32884168067184       -1.35782739401044       -2.86873092716548
H            2.37253111743618       -2.17372665035423       -4.99264227963749
H            1.30039153124314       -0.64941131476403       -6.57080955787210
H            1.11771587940532        1.75953737159980       -6.10767983463916
H            1.16846458168888        4.55160844631506       -3.54804889828344
H            1.21004557995101        3.78258701438848       -5.03574479967582
33
 energy: -52.795611649594 gnorm: 0.008866203074 xtb: 6.7.1 (edcfbbe)
O            1.45707188775623       -0.01084123508166       -0.77749628198562
C            2.60965842075283       -0.12865888400132       -0.43584270795388
C            3.08502559430578       -1.12785011595821        0.48737311461153
C            2.30901327046127       -2.07299255754623        1.13074221519524
C            3.05933441522547       -2.93210245657178        1.94032442259228
C            4.39507405496839       -2.64690681853232        1.91386235680982
S            4.76470530103274       -1.32389181318442        0.90421991014550
C            3.68145130781114        0.82130570160698       -1.02047978901377
N            3.15369833891977        1.42408450979373       -2.21707998092431
C            2.76876114863041        2.69556540040687       -2.41200200107890
C            2.98567253598754        3.82283239734764       -1.48388158856035
N            2.13897685703472        2.79721086532003       -3.58858088232249
C            2.10892475424099        1.55515765794212       -4.19329312308900
C            2.75417318429145        0.67684194691811       -3.30645996614825
C            2.88313819228475       -0.67551880934027       -3.59347726298932
C            2.33463913669785       -1.11505138833837       -4.77956592860454
C            1.69075266358584       -0.24205462991820       -5.66079006290081
C            1.57056487245705        1.10557481757827       -5.39299294108638
N            1.70254213261331        3.98168085377120       -4.15142166064385
H            1.24300437805533       -2.12750418920240        1.00776845688269
H            2.64035820817698       -3.73442472652249        2.51919226446087
H            5.18651852299254       -3.14778824578202        2.43685448764414
H            3.91061483240520        1.58794020960741       -0.28007508615332
H            4.59578870441553        0.27245008540322       -1.25888560181600
H            2.23674557382930        3.81792314916603       -0.68822942738101
H            3.96806269296631        3.75790899231345       -1.02064290647946
H            2.92143889062839        4.76681309809735       -2.01865196366385
H            3.37739320743859       -1.35453821094174       -2.91841868116079
H            2.39999360702699       -2.16075017091313       -5.03413894992274
H            1.27437605324918       -0.63595833968493       -6.57371721481822
H            1.07818947426745        1.76637609214679       -6.08899565533166
H            1.10633967202301        4.51303641976136       -3.52052688280007
H            1.22271811346563        3.79530039434098       -5.02633068151133
33
 energy: -52.795866746957 gnorm: 0.009697393045 xtb: 6.7.1 (edcfbbe)
O            1.48011733107163       -0.02897303150597       -0.81009851885943
C            2.63225363985384       -0.13952806184945       -0.45350224296527
C            3.09866164907807       -1.12833191456974        0.48577558622097
C            2.30216657147544       -2.04083560466910        1.15151330133290
C            3.03554566657498       -2.89974962701029        1.97727531886849
C            4.37819879910596       -2.64843999927271        1.93728900149079
S            4.77532130397990       -1.35576563103004        0.89727744818373
C            3.70829024287988        0.80440397544507       -1.03916659622446
N            3.17636896185483        1.41163012592885       -2.23009359839506
C            2.77567430673626        2.68068581616990       -2.40648326955264
C            2.99066661270912        3.80857102926974       -1.48001064258663
N            2.12985749540522        2.79067486564601       -3.57345562110856
C            2.10330182821090        1.55508457877753       -4.19138330934551
C            2.77165759386774        0.67341363370186       -3.32422274186498
C            2.91515693410774       -0.67245921532146       -3.63422426012549
C            2.35345718666364       -1.10386779712589       -4.81747519484165
C            1.67820107821065       -0.22911180886548       -5.67330001967689
C            1.54576320961004        1.11363524421033       -5.38492165337827
N            1.67196600658717        3.98060298827989       -4.10595591026536
H            1.23440474652296       -2.07325889965828        1.03486651658543
H            2.59893008196995       -3.67770009231107        2.57759839466672
H            5.15877747397271       -3.15921482243056        2.46684189944104
H            3.94198996860278        1.56985938141451       -0.29781381806378
H            4.62022631582827        0.25206846936215       -1.27764633634448
H            2.22966190386066        3.82094800356035       -0.69611472011373
H            3.96512533879419        3.73728056683796       -1.00100446205543
H            2.94288491824445        4.74787009535468       -2.02664624318628
H            3.43134543016246       -1.35368733949702       -2.97845803534561
H            2.43250241378561       -2.14447986446453       -5.08917119315106
H            1.24643730764753       -0.61631256775459       -6.58157667516150
H            1.02847843557597        1.77662723748726       -6.06160325253469
H            1.01814516604811        4.45850373105707       -3.48086994934435
H            1.24318408099883        3.81102653483576       -5.01487920229622
33
 energy: -52.796093649108 gnorm: 0.010246888176 xtb: 6.7.1 (edcfbbe)
O            1.49317219629896       -0.01877390343913       -0.79505311159555
C            2.64958406953723       -0.13873640438132       -0.44864881569055
C            3.11234374727472       -1.12175385909678        0.49608967593399
C            2.30086307572347       -2.01192611372028        1.16704469096400
C            3.01944812780993       -2.87386886018705        2.00307908080625
C            4.36404534309720       -2.64567020479383        1.96506823708195
S            4.78277091904337       -1.37138574587159        0.91407945878963
C            3.72947460041560        0.78855404141043       -1.05556632176315
N            3.18745553661885        1.39326992338421       -2.24030041252224
C            2.77717400728465        2.66075171491345       -2.39991550226421