26
 energy: -33.810513299448 gnorm: 0.000702302456 xtb: 6.7.1 (edcfbbe)
C           -0.03572526267947       -1.07493260458752        0.71326479993452
C            1.45287511592608       -1.05558495568388        1.00952298119371
O            1.74668930004948       -0.20624754536133        2.14217055573309
C            1.90482334757229        1.07375131997693        1.93009161352260
O            1.85955296831275        1.65039797163674        0.87738292446799
C            2.18682665302512        1.76670407342686        3.28405847554447
N            2.40739682317231        3.23013598815909        3.21413831945285
C            1.20970509278085        3.90399478135162        2.67358782546498
C            2.66871836060873        3.73027452361665        4.57787550530769
C            3.57088258024913        3.53636434862313        2.35742028391226
H           -0.59449470665544       -1.38308551065394        1.59348829239933
H           -0.22813401795073       -1.78226597139464       -0.08733148572966
H           -0.37761933871834       -0.09219262202069        0.39670206248292
H            1.81120709718682       -2.04049441609125        1.30980028952472
H            2.01716620010547       -0.69449649333660        0.14561129734716
H            1.33615898087532        1.55585539023155        3.93690853025175
H            3.06592474967585        1.28305562731487        3.71699279716000
H            0.34161365159021        3.68394888089568        3.29242584265765
H            1.36594035041604        4.98074776991333        2.65876265872400
H            1.02061969137980        3.56280089561541        1.65713603349969
H            3.55057528102581        3.24928189550491        4.99748529210665
H            2.83945757833878        4.80502988143900        4.55254625830277
H            1.81826815292503        3.52958157945895        5.22737752411834
H            4.46328809888100        3.04786054682904        2.74428693299088
H            3.38475126565095        3.18992910631235        1.34227148477116
H            3.74048198625566        4.61095553881240        2.33522290486448
