69
 energy: -76.356635412957 gnorm: 0.052656004174 xtb: 6.7.1 (edcfbbe)
C            1.15391000000000       -0.47101000000000        0.74796000000000
C            1.27512000000000        1.03048000000000        0.95754000000000
C            1.60985000000000        1.79935000000000       -0.32339000000000
C            0.57444000000000        1.68972000000000       -1.44833000000000
C           -0.84280000000000        2.14440000000000       -1.08360000000000
C           -0.96177000000000        3.59789000000000       -0.61175000000000
C           -0.53095000000000        4.65549000000000       -1.63501000000000
C           -1.31121000000000        4.64661000000000       -2.95481000000000
C           -2.82553000000000        4.83644000000000       -2.81638000000000
C           -3.25762000000000        6.17625000000000       -2.20877000000000
C           -2.89709000000000        7.41948000000000       -3.03421000000000
C           -3.40023000000000        7.42127000000000       -4.48451000000000
C           -4.91534000000000        7.25436000000000       -4.63849000000000
C           -5.72922000000000        8.50153000000000       -4.27222000000000
C           -5.74350000000000        9.62228000000000       -5.32739000000000
C           -6.24999000000000        9.24792000000000       -6.72971000000000
N           -7.78733000000000        9.29771000000000       -6.91900000000000
C           -8.11344000000000        8.50387000000000       -8.19071000000000
C           -8.67620000000000        9.09028000000000       -9.33121000000000
C           -8.97359000000000        8.31249000000000      -10.45753000000000
C           -8.70871000000000        6.94592000000000      -10.46249000000000
C           -8.14598000000000        6.34791000000000       -9.34164000000000
C           -7.85386000000000        7.11958000000000       -8.21467000000000
C           -8.22357000000000       10.76038000000000       -7.04437000000000
C           -8.61121000000000        8.68124000000000       -5.79240000000000
H            0.30359000000000       -0.71999000000000        0.10644000000000
H            1.00224000000000       -0.97352000000000        1.70867000000000
H            2.06243000000000       -0.87815000000000        0.29306000000000
H            0.35183000000000        1.41353000000000        1.40535000000000
H            2.07150000000000        1.21560000000000        1.68855000000000
H            1.76173000000000        2.85479000000000       -0.06871000000000
H            2.57389000000000        1.44245000000000       -0.70742000000000
H            0.93310000000000        2.26849000000000       -2.30779000000000
H            0.52689000000000        0.65067000000000       -1.79569000000000
H           -1.49294000000000        1.98650000000000       -1.95215000000000
H           -1.24253000000000        1.49060000000000       -0.29949000000000
H           -2.00034000000000        3.78194000000000       -0.31279000000000
H           -0.37011000000000        3.73533000000000        0.30074000000000
H           -0.61801000000000        5.64424000000000       -1.16943000000000
H            0.53483000000000        4.53176000000000       -1.86014000000000
H           -0.90250000000000        5.42709000000000       -3.60726000000000
H           -1.12588000000000        3.70095000000000       -3.47783000000000
H           -3.28412000000000        4.71450000000000       -3.80443000000000
H           -3.24173000000000        4.02640000000000       -2.20650000000000
H           -4.34207000000000        6.15083000000000       -2.04989000000000
H           -2.82559000000000        6.28437000000000       -1.20724000000000
H           -3.28568000000000        8.30289000000000       -2.51406000000000
H           -1.80703000000000        7.53860000000000       -3.04646000000000
H           -3.07589000000000        8.34855000000000       -4.97073000000000
H           -2.90347000000000        6.61181000000000       -5.03228000000000
H           -5.12873000000000        6.94192000000000       -5.66406000000000
H           -5.26239000000000        6.42048000000000       -4.01954000000000
H           -6.75048000000000        8.18550000000000       -4.05007000000000
H           -5.35384000000000        8.92182000000000       -3.33176000000000
H           -6.30294000000000       10.47474000000000       -4.92818000000000
H           -4.71154000000000        9.97851000000000       -5.43960000000000
H           -5.83710000000000        9.95571000000000       -7.46049000000000
H           -5.88826000000000        8.26158000000000       -7.02111000000000
H           -8.91018000000000       10.14643000000000       -9.40087000000000
H           -9.41675000000000        8.77487000000000      -11.33867000000000
H           -8.94128000000000        6.34671000000000      -11.34151000000000
H           -7.93555000000000        5.27967000000000       -9.34516000000000
H           -7.41455000000000        6.60594000000000       -7.36344000000000
H           -9.30370000000000       10.79821000000000       -7.22067000000000
H           -7.99931000000000       11.27214000000000       -6.10425000000000
H           -7.66656000000000       11.23697000000000       -7.85711000000000
H           -8.25031000000000        7.67225000000000       -5.58053000000000
H           -8.51722000000000        9.31413000000000       -4.90515000000000
H           -9.66216000000000        8.65345000000000       -6.10115000000000
69
 energy: -76.364352582752 gnorm: 0.024015494310 xtb: 6.7.1 (edcfbbe)
C            1.15195086651019       -0.47142693401681        0.74722549637764
C            1.27394259082819        1.03175327249705        0.95474527248087
C            1.60732294829804        1.80329852546725       -0.32310437520020
C            0.57370911355576        1.69204588569397       -1.44652118751522
C           -0.84134214041073        2.14676158593716       -1.08277760087951
C           -0.96221279653423        3.59836875293952       -0.61381809938097
C           -0.53335217385976        4.65560222206705       -1.63427496201597
C           -1.31164351422382        4.64701120475046       -2.95233040569923
C           -2.82359846357587        4.83879519129134       -2.81689266979175
C           -3.26126505508502        6.17605958269785       -2.21462997874486
C           -2.90050517203890        7.41889346379834       -3.03510354859948
C           -3.40050828004019        7.41744888623125       -4.48350659854791
C           -4.91404806228100        7.25513703299001       -4.64144833857872
C           -5.73976008247857        8.49217737846169       -4.27511145506262
C           -5.75650730130617        9.61260546186971       -5.32714351609550
C           -6.28386712540739        9.24722427674065       -6.71807577586800
N           -7.79270661270828        9.29050303869203       -6.94428388300624
C           -8.11038978974612        8.50446299877240       -8.19539720823613
C           -8.67115321284600        9.09166514822571       -9.32168479230999
C           -8.96568025664368        8.31767143022492      -10.43931110813698
C           -8.70410217795041        6.95863975909247      -10.44674073224046
C           -8.14265948194378        6.36843198777522       -9.32666379154196
C           -7.84922402726368        7.13431372676200       -8.20791386179670
C           -8.21320635352002       10.72690032147161       -7.05053063016398
C           -8.58740100262557        8.69178903476597       -5.82251086501180
H            0.30747517445449       -0.71681405766377        0.10531114518092
H            1.00263755575982       -0.97343722706386        1.70302544059065
H            2.05718595721440       -0.87182987529547        0.29207250310308
H            0.34880009140477        1.41496135535328        1.39249506020875
H            2.07113576458436        1.22056746532971        1.68064919099244
H            1.75206964168140        2.85702985076734       -0.06775953093932
H            2.56467246109165        1.43755524661530       -0.70842741052171
H            0.93247860290396        2.27615569080454       -2.29930003652934
H            0.52208306901049        0.65242576875669       -1.78303929068323
H           -1.48517867534634        1.99415247263743       -1.95434660799553
H           -1.23237406300698        1.49937963369079       -0.29263048238513
H           -2.00111688604681        3.78012391565508       -0.32222182879981
H           -0.36065937382764        3.73335688331468        0.28920677146527
H           -0.62680111256375        5.64079623613105       -1.16750831539231
H            0.52710032159228        4.52167492306672       -1.86481306882030
H           -0.90491910622327        5.43156646425907       -3.59749866312056
H           -1.13265947449023        3.69821569753442       -3.46615453632465
H           -3.27695362874463        4.72221152673749       -3.80604369433281
H           -3.23045249213915        4.03565999377854       -2.19647494130163
H           -4.34441749204905        6.14762438550866       -2.05863803426978
H           -2.81485651486124        6.28531323088910       -1.22316132414018
H           -3.29331621159757        8.29727005772494       -2.51375499101441
H           -1.81338137300885        7.53028350573871       -3.05568334947885
H           -3.08224899457173        8.34838382557438       -4.96195167489891
H           -2.90774090110944        6.60537232718406       -5.02404977997828
H           -5.12660341472246        6.95191761091412       -5.67062026383145
H           -5.24579535375098        6.42847021294276       -4.00966826655448
H           -6.75724703413584        8.17739427457671       -4.04018595233424
H           -5.33629525198097        8.91852785471201       -3.35324819151485
H           -6.30613052171744       10.46775131767930       -4.92765328451781
H           -4.72639534776063        9.95567044840164       -5.46499027218389
H           -5.86944483234689        9.94440254906295       -7.45211227735665
H           -5.93503806504482        8.25283970424267       -6.99276520110798
H           -8.89990040960802       10.14411241741819       -9.38127266570271
H           -9.40478278070884        8.78337301531904      -11.31056338743284
H           -8.93622596302902        6.36284259238638      -11.31932345544365
H           -7.93408702019377        5.30762071783036       -9.32232353756809
H           -7.41691934002697        6.62988718440919       -7.35458559465587
H           -9.28607571324406       10.78034112572306       -7.22495966173727
H           -7.98622747354308       11.23717582796610       -6.11575295396221
H           -7.67193589600480       11.21591409865331       -7.85713346586447
H           -8.24199686426625        7.68506749895213       -5.60726419223604
H           -8.49998576559176        9.31094172538235       -4.93106621393004
H           -9.63379772913698        8.65471729120076       -6.12389909711382
69
 energy: -76.366035072555 gnorm: 0.005763991670 xtb: 6.7.1 (edcfbbe)
C            1.15095003358983       -0.46892751339955        0.74295452453618
C            1.26988881798013        1.03555456019363        0.95369585252613
C            1.60566454078503        1.80664735679045       -0.32382986773591
C            0.57222456888885        1.69539044990529       -1.44681414995313
C           -0.84235961550104        2.14971115862183       -1.08242689676758
C           -0.96251774530973        3.60085692316363       -0.61339761403369
C           -0.53460337642112        4.65750492305794       -1.63398944633469
C           -1.31230384708232        4.64939566457160       -2.95178476587616
C           -2.82419466342289        4.83961457669823       -2.81775559719255
C           -3.26265775997528        6.17672171141857       -2.21702991094186
C           -2.90624573132830        7.41910810115954       -3.03868387844987
C           -3.40457335430861        7.41948133053156       -4.48692857158769
C           -4.91736942519277        7.24997055381896       -4.64620446412305
C           -5.74487248525303        8.48504559500670       -4.27651735887024
C           -5.77574259706997        9.59940620590376       -5.33377307546898
C           -6.30481148764253        9.23264203189486       -6.72259482631020
N           -7.79426295525876        9.28946994201290       -6.94973949913458
C           -8.10326136346096        8.51261986164669       -8.18690201708258
C           -8.66186191287969        9.10249181471589       -9.30766981929704
C           -8.95609936516779        8.32932923500788      -10.42140791437845
C           -8.69721263051997        6.97261695165681      -10.42957015084479
C           -8.13678131174122        6.38544608128181       -9.30857718246500
C           -7.84235732221627        7.14797745046235       -8.19294817214564
C           -8.20494486314231       10.70225511279285       -7.05736654350076
C           -8.57740832006519        8.69250158758592       -5.84774348599587
H            0.30871492656012       -0.71134184416679        0.10086407143439
H            1.00315027718801       -0.97024132913139        1.69642216236781
H            2.05607510322479       -0.86342145417268        0.28734021355349
H            0.34242395507218        1.41666401866011        1.38490445480557
H            2.06602276529943        1.22557018855602        1.67803897378630
H            1.74630651529547        2.85856271612202       -0.06663308255353
H            2.55964184371256        1.43792516196790       -0.70995955428172
H            0.93128904372075        2.28097130608902       -2.29625183568113
H            0.51795939605931        0.65598768064035       -1.77690790597375
H           -1.48323294760040        1.99806428554973       -1.95434732298710
H           -1.22800899236581        1.50657305219504       -0.28888105365616
H           -2.00064918853501        3.78051584350118       -0.32395991928682
H           -0.35557023223349        3.73497664419778        0.28380119164689
H           -0.63032886676126        5.64001047508490       -1.16594545056244
H            0.52247819176720        4.51855504205307       -1.86779917751586
H           -0.90481243894385        5.43442359510732       -3.59328364433224
H           -1.13724248715905        3.69901969026826       -3.45974996588231
H           -3.27379112435561        4.72199907331631       -3.80692356325975
H           -3.22553940946990        4.04150248218381       -2.19076010018064
H           -4.34420066670377        6.14452459294076       -2.06148333995027
H           -2.80930945848423        6.28815190275238       -1.23116288160715
H           -3.30084393655805        8.29373595233775       -2.51552105163147
H           -1.82121020092851        7.52736153716093       -3.06374162497336
H           -3.08656464817883        8.35103868621234       -4.96170897452326
H           -2.91442936208784        6.60522218305075       -5.02144248849988
H           -5.12529677288684        6.95021015093779       -5.67706251501986
H           -5.23915835012025        6.42596359114652       -4.00946315097048
H           -6.75653867085045        8.16724061969337       -4.02720411277269
H           -5.32370436340327        8.91835290896252       -3.36786201343901
H           -6.31133720374440       10.45969538109668       -4.92790623473552
H           -4.74605559238186        9.92793116173113       -5.49129934160993
H           -5.87459441619779        9.91575985127800       -7.45829262009290
H           -5.96524938077181        8.22844051530172       -6.97483635332843
H           -8.88731064385986       10.15312032650325       -9.35882409179033
H           -9.39400538331054        8.79951710581292      -11.28624703473693
H           -8.93000081483789        6.37829778773583      -11.29776802505038
H           -7.92925521445299        5.32816457845886       -9.29807626864801
H           -7.41221617640720        6.64995610807926       -7.33855539486317
H           -9.27674801110695       10.77133190412381       -7.22594755505038
H           -7.96960828444170       11.21298522498062       -6.12695061765077
H           -7.67407082499416       11.19920385830427       -7.86452512450216
H           -8.23808871169733        7.68509778806530       -5.63338920093957
H           -8.48635203970042        9.30165527038449       -4.95267451239131
H           -9.62555303065181        8.65099271842888       -6.13890913123495
69
 energy: -76.366183915028 gnorm: 0.002654360065 xtb: 6.7.1 (edcfbbe)
C            1.15039760566696       -0.46610620990588        0.73943069580935
C            1.26690398823728        1.03860367494012        0.95235966990228
C            1.60414341314203        1.81062186275773       -0.32452478493236
C            0.57070966498473        1.69833720289393       -1.44782787996623
C           -0.84391472962610        2.15244154687771       -1.08201517498935
C           -0.96299966507915        3.60393577319287       -0.61267987029120
C           -0.53478493280873        4.66026047133254       -1.63397455832177
C           -1.31248732704137        4.65065376952314       -2.95214163188928
C           -2.82481086923662        4.83999250064888       -2.81773416656326
C           -3.26416681242346        6.17780268846860       -2.21832254335282
C           -2.90865615278770        7.42000565067860       -3.04117060219992
C           -3.40670545351699        7.41702088521640       -4.48978276578065
C           -4.91968320184535        7.24515726061866       -4.64826420557465
C           -5.74633011758303        8.48061090960777       -4.27635081668292
C           -5.77466031529087        9.59414291904814       -5.33475409083971
C           -6.30896050660913        9.22150741562036       -6.72082529638833
N           -7.79529888594348        9.28818252376036       -6.94794764746928
C           -8.10341542790168        8.51491848849225       -8.18485596082274
C           -8.65953862818950        9.10643751129314       -9.30709709748891
C           -8.95233752823532        8.33337791415225      -10.42165379821237
C           -8.69438567735557        6.97577901342041      -10.42854499956787
C           -8.13508923232134        6.38700620443905       -9.30716684589074
C           -7.84200848272852        7.14911286773527       -8.19099755561465
C           -8.19721660474885       10.70222561709781       -7.05159522708397
C           -8.57804661861156        8.69027440949529       -5.84811719892288
H            0.30834496400729       -0.70836948605475        0.09649135509240
H            1.00312222001822       -0.96930083506128        1.69228909116208
H            2.05675611325004       -0.85777659576767        0.28306311259195
H            0.33792406791138        1.41784989578366        1.38177092853760
H            2.06097651812856        1.22898154332888        1.67870020754960
H            1.74476671468855        2.86248448687046       -0.06707463997929
H            2.55833349215965        1.44215677884936       -0.71003737095677
H            0.92930660841141        2.28348370399725       -2.29763922582090
H            0.51657371796667        0.65893453281406       -1.77766079090216
H           -1.48569293991273        2.00037868122026       -1.95303286412027
H           -1.22888909731445        1.50935666659840       -0.28823102142896
H           -2.00055381420235        3.78400705680549       -0.32175164856613
H           -0.35526824251030        3.73784365227148        0.28389938909854
H           -0.62999525070368        5.64293943433872       -1.16630612125358
H            0.52221230754224        4.52113189450943       -1.86775605939927
H           -0.90510499578082        5.43526773519418       -3.59402910738925
H           -1.13678333137438        3.70015686049592       -3.45955975666319
H           -3.27450635758301        4.71998935014106       -3.80640692942379
H           -3.22528755353608        4.04247699859891       -2.18965615067781
H           -4.34540693501378        6.14456852745614       -2.06095990767776
H           -2.80980201659333        6.29088542473408       -1.23325049553507
H           -3.30437914760764        8.29451139863157       -2.51860472176804
H           -1.82372626069772        7.52975810048868       -3.06632166413674
H           -3.09042781810144        8.34892442695678       -4.96471717113856
H           -2.91471425564066        6.60354895970264       -5.02395532897336
H           -5.12644871603518        6.94564087665220       -5.67910273755214
H           -5.24017470032005        6.41985862027667       -4.01322785851827
H           -6.75705122218331        8.16365744858624       -4.02102453635773
H           -5.32084150067358        8.91563281916221       -3.37111517971032
H           -6.30807905153766       10.45559039480861       -4.92925636638218
H           -4.74440789930274        9.91857701815918       -5.49462348637122
H           -5.87087688251721        9.89328710226736       -7.46267953376467
H           -5.97524106122801        8.21268452285432       -6.96241632368403
H           -8.88264945998343       10.15770717124176       -9.35661901785563
H           -9.38880352771480        8.80629726443703      -11.28634436820629
H           -8.92715837979438        6.38126910478765      -11.29648392603192
H           -7.92762758800213        5.32930597596547       -9.29460246902748
H           -7.41255567905003        6.65200464482442       -7.33534981610259
H           -9.27034800762051       10.77688449365345       -7.21673098508027
H           -7.95615687643927       11.21491108245812       -6.12272581979591
H           -7.66760732521870       11.19691161680489       -7.86246604596855
H           -8.24039123596385        7.68040529444343       -5.63752262403586
H           -8.48538066181042        9.29511933909314       -4.94939071341656
H           -9.62716643426169        8.65086314521845       -6.13891694722396
69
 energy: -76.366333035312 gnorm: 0.003539624816 xtb: 6.7.1 (edcfbbe)
C            1.14950754845623       -0.45948745359810        0.73146516112186
C            1.26059872382519        1.04527272360179        0.94902711567906
C            1.60020845347177        1.81923638812574       -0.32626361239657
C            0.56681740004062        1.70610560684867       -1.44988290509828
C           -0.84764513471466        2.15968705184859       -1.08153945513764
C           -0.96417426399770        3.61140579531014       -0.61126842726566
C           -0.53543230338940        4.66659441604837       -1.63397170626905
C           -1.31314441273903        4.65405891442531       -2.95246959997768
C           -2.82601099560890        4.84081703397098       -2.81709252171713
C           -3.26601600732572        6.17959953450527       -2.21961589391838
C           -2.91226412268430        7.42017272805664       -3.04607697102264
C           -3.40982421187065        7.41030427633771       -4.49488770521832
C           -4.92272916390596        7.23369950521030       -4.65016410667986
C           -5.74547058466322        8.47080045795697       -4.27419288979179
C           -5.77136025732193        9.58237112160154       -5.33490930921873
C           -6.31151751062933        9.19900221521904       -6.71686107171382
N           -7.79426489765965        9.28335766143335       -6.94200314729128
C           -8.10434300687188        8.51738017735011       -8.18078351573894
C           -8.65496378284958        9.11292495849933       -9.30504281551913
C           -8.94489838815645        8.34205098181477      -10.42276507719209
C           -8.68972508889623        6.98336817451550      -10.43004393669196
C           -8.13535265709455        6.38967530815142       -9.30838444391136
C           -7.84555553661170        7.14920039821894       -8.18978423592147
C           -8.18123079393180       10.70180135195879       -7.04123893469239
C           -8.58212378492008        8.68619223772859       -5.84532588677251
H            0.30805608516618       -0.70243402010288        0.08723184825604
H            1.00364442142895       -0.96690446927198        1.68273126492209
H            2.05782992141500       -0.84598279643449        0.27358085211224
H            0.32856895344600        1.42074120446346        1.37517376925531
H            2.05059898538283        1.23662980372012        1.67952205435716
H            1.74037825234687        2.87114630589495       -0.06828372629458
H            2.55526645637629        1.45183495933368       -0.71064736366855
H            0.92416722865786        2.29090357833947       -2.30048628321394
H            0.51329244566812        0.66666912314854       -1.77980241082250
H           -1.49164544060550        2.00764321296819       -1.95090795970135
H           -1.23149128630637        1.51619733786651       -0.28749176855583
H           -2.00078345960206        3.79313420601703       -0.31784987343883
H           -0.35504390268768        3.74447657398760        0.28455097520391
H           -0.63028565771743        5.65010025460222       -1.16783001866828
H            0.52179649398920        4.52744834520654       -1.86708410675450
H           -0.90698407402581        5.43825688716335       -3.59565820928083
H           -1.13563922837368        3.70332199160484       -3.45897650039867
H           -3.27666364861492        4.71696669621354       -3.80485411059454
H           -3.22477572634889        4.04409541457175       -2.18692686680638
H           -4.34699483523006        6.14568775373224       -2.06011921308150
H           -2.81053142778740        6.29554125501477       -1.23535927225653
H           -3.31062004000398        8.29545287785139       -2.52663449097138
H           -1.82749940783329        7.53322963220429       -3.07069845330797
H           -3.09780875594730        8.34213166855348       -4.97271612653313
H           -2.91472578566936        6.59758566730550       -5.02771746921851
H           -5.12906908706062        6.93481915990632       -5.68092671143834
H           -5.24171709704885        6.40611672827678       -4.01778034114845
H           -6.75571128052657        8.15731078918930       -4.01235652027282
H           -5.31428755936916        8.90599384160627       -3.37247954406748
H           -6.30129513373465       10.44635576641211       -4.93145855507232
H           -4.74034754913382        9.90046323433295       -5.49758003751990
H           -5.86039694876293        9.84806824611510       -7.47226733875165
H           -5.99152945853903        8.18097592638328       -6.93788791648029
H           -8.87404202099428       10.16559676718954       -9.35053880011456
H           -9.37626985111196        8.82041141991956      -11.28793736897266
H           -8.92069354715571        6.39015379768809      -11.29966150329627
H           -7.92755540826898        5.33144252153238       -9.29492237127716
H           -7.41956645678185        6.65098899542635       -7.33253470755555
H           -9.25607156818470       10.78922491752875       -7.19892274680424
H           -7.92785349832611       11.21412366105822       -6.11444257084993
H           -7.65134384259512       11.19102631947388       -7.85696265438403
H           -8.24975897345471        7.67224206824938       -5.63947072987924
H           -8.48584318911734        9.28504197719977       -4.94213484157775
H           -9.63236931690574        8.65327883342549       -6.13629538871762
69
 energy: -76.366418701433 gnorm: 0.003926922926 xtb: 6.7.1 (edcfbbe)
C            1.14900205939708       -0.45362218798954        0.72450505254613
C            1.25555636615436        1.05091537618758        0.94558820151975
C            1.59618530606775        1.82694616444949       -0.32807496114179
C            0.56277913719074        1.71397693662311       -1.45163696050248
C           -0.85118318864711        2.16733007192234       -1.08124466212922
C           -0.96536449851811        3.61892854261149       -0.61016831540957
C           -0.53608342448992        4.67283737491547       -1.63390151796685
C           -1.31366175532266        4.65726651809828       -2.95238945201672
C           -2.82666189641491        4.84135126336724       -2.81564117439315
C           -3.26665185893938        6.18067645803151       -2.21959697833438
C           -2.91331258789926        7.41919005282950       -3.04911984362083
C           -3.41066793317599        7.40247525077712       -4.49765370838773
C           -4.92334767569977        7.22293714346913       -4.64961288179779
C           -5.74354404399472        8.46094509409863       -4.27189057958501
C           -5.76748958122528        9.57122140088899       -5.33390458442750
C           -6.31172117822851        9.18034858820331       -6.71219005977940
N           -7.79262825588568        9.27795662155449       -6.93721671665871
C           -8.10587682120826        8.51694337939496       -8.17809145047339
C           -8.65120662941228        9.11718025735795       -9.30256589365533
C           -8.93882869906092        8.35036317657316      -10.42399666749284
C           -8.68660205114974        6.99129622643293      -10.43474210434702
C           -8.13876401092560        6.39193775464775       -9.31287796703290
C           -7.85201271548313        7.14730546109987       -8.19087429819180
C           -8.16719885993533       10.70048755739439       -7.03378591408737
C           -8.58585705561498        8.68387383076795       -5.84184220343836
H            0.30812666442469       -0.69750554854506        0.07972406440221
H            1.00479561139669       -0.96426247589973        1.67435751239249
H            2.05843726153555       -0.83609538967489        0.26529946602118
H            0.32136431064751        1.42325776879133        1.36977166436061
H            2.04280273138375        1.24316345481085        1.67883851298813
H            1.73578199578283        2.87875757810506       -0.06914367058296
H            2.55181402217264        1.46061450285126       -0.71218542025460
H            0.91917204738938        2.29916952180088       -2.30242671692659
H            0.50948587038713        0.67467357984279       -1.78215886390972