      -----------------------------------------------------------      
     |                   =====================                   |     
     |                           x T B                           |     
     |                   =====================                   |     
     |                         S. Grimme                         |     
     |          Mulliken Center for Theoretical Chemistry        |     
     |                    University of Bonn                     |     
      -----------------------------------------------------------      

   * xtb version 6.7.1 (edcfbbe) compiled by 'conda@3ef47c1a292c' on 2024-11-25

   xtb is free software: you can redistribute it and/or modify it under
   the terms of the GNU Lesser General Public License as published by
   the Free Software Foundation, either version 3 of the License, or
   (at your option) any later version.
   
   xtb is distributed in the hope that it will be useful,
   but WITHOUT ANY WARRANTY; without even the implied warranty of
   MERCHANTABILITY or FITNESS FOR A PARTICULAR PURPOSE.  See the
   GNU Lesser General Public License for more details.
   
   Cite this work as:
   * C. Bannwarth, E. Caldeweyher, S. Ehlert, A. Hansen, P. Pracht,
     J. Seibert, S. Spicher, S. Grimme, WIREs Comput. Mol. Sci., 2020, 11,
     e01493. DOI: 10.1002/wcms.1493
   
   for GFN2-xTB:
   * C. Bannwarth, S. Ehlert and S. Grimme., J. Chem. Theory Comput., 2019,
     15, 1652-1671. DOI: 10.1021/acs.jctc.8b01176
   for GFN1-xTB:
   * S. Grimme, C. Bannwarth, P. Shushkov, J. Chem. Theory Comput., 2017,
     13, 1989-2009. DOI: 10.1021/acs.jctc.7b00118
   for GFN0-xTB:
   * P. Pracht, E. Caldeweyher, S. Ehlert, S. Grimme, ChemRxiv, 2019, preprint.
     DOI: 10.26434/chemrxiv.8326202.v1
   for GFN-FF:
   * S. Spicher and S. Grimme, Angew. Chem. Int. Ed., 2020, 59, 15665-15673.
     DOI: 10.1002/anie.202004239
   
   for ALPB and GBSA implicit solvation:
   * S. Ehlert, M. Stahn, S. Spicher, S. Grimme, J. Chem. Theory Comput.,
     2021, 17, 4250-4261. DOI: 10.1021/acs.jctc.1c00471
   
   for ddCOSMO and CPCM-X implicit solvation:
   * M. Stahn, S. Ehlert, S. Grimme, J. Phys. Chem. A,
     2023, XX, XXXX-XXXX. DOI: 10.1021/acs.jpca.3c04382
   
   for DFT-D4:
   * E. Caldeweyher, C. Bannwarth and S. Grimme, J. Chem. Phys., 2017,
     147, 034112. DOI: 10.1063/1.4993215
   * E. Caldeweyher, S. Ehlert, A. Hansen, H. Neugebauer, S. Spicher,
     C. Bannwarth and S. Grimme, J. Chem. Phys., 2019, 150, 154122.
     DOI: 10.1063/1.5090222
   * E. Caldeweyher, J.-M. Mewes, S. Ehlert and S. Grimme, Phys. Chem. Chem. Phys.
     2020, 22, 8499-8512. DOI: 10.1039/D0CP00502A
   
   for sTDA-xTB:
   * S. Grimme and C. Bannwarth, J. Chem. Phys., 2016, 145, 054103.
     DOI: 10.1063/1.4959605
   
   in the mass-spec context:
   * V. Asgeirsson, C. Bauer and S. Grimme, Chem. Sci., 2017, 8, 4879.
     DOI: 10.1039/c7sc00601b
   * J. Koopman and S. Grimme, ACS Omega 2019, 4, 12, 15120-15133.
     DOI: 10.1021/acsomega.9b02011
   
   for metadynamics refer to:
   * S. Grimme, J. Chem. Theory Comput., 2019, 155, 2847-2862
     DOI: 10.1021/acs.jctc.9b00143
   
   for SPH calculations refer to:
   * S. Spicher and S. Grimme, J. Chem. Theory Comput., 2021, 17, 1701-1714
     DOI: 10.1021/acs.jctc.0c01306
   
   for ONIOM refer to:
   * C. Plett, A. Katbashev, S. Ehlert, S. Grimme, M. Bursch,
     Phys. Chem. Chem. Phys., 2023, 25, 17860-17868. DOI: 10.1039/D3CP02178E
   
   for DIPRO refer to:
   * J. Kohn, N. Gildemeister, S. Grimme, D. Fazzi, A. Hansen,
     J. Chem. Phys., 2023, just accepted.
   
   for PTB refer to:
   * S. Grimme, M. Mueller, A. Hansen, J. Chem. Phys., 2023, 158, 124111.
     DOI: 10.1063/5.0137838
   
   with help from (in alphabetical order)
   P. Atkinson, C. Bannwarth, F. Bohle, G. Brandenburg, E. Caldeweyher
   M. Checinski, S. Dohm, S. Ehlert, S. Ehrlich, I. Gerasimov, C. Hölzer
   A. Katbashev, J. Kohn, J. Koopman, C. Lavigne, S. Lehtola, F. März, M. Müller,
   F. Musil, H. Neugebauer, J. Pisarek, C. Plett, P. Pracht, F. Pultar,
   J. Seibert, P. Shushkov, S. Spicher, M. Stahn, M. Steiner, T. Strunk,
   J. Stückrath, T. Rose, and J. Unsleber
   
 * started run on 2024/12/20 at 02:07:53.288     
   ID    Z sym.   atoms
    1    6 C      1, 3, 5-10
    2    8 O      2
    3    7 N      4
    4    1 H      11-30

           -------------------------------------------------
          |                Calculation Setup                |
           -------------------------------------------------

          program call               : xtb C0141.xyz --opt --namespace C0141 --charge +1
          calculation namespace      : C0141
          coordinate file            : C0141.xyz
          omp threads                :                     8


           -------------------------------------------------
          |                 G F N 2 - x T B                 |
           -------------------------------------------------

        Reference                      10.1021/acs.jctc.8b01176
      * Hamiltonian:
        H0-scaling (s, p, d)           1.850000    2.230000    2.230000
        zeta-weighting                 0.500000
      * Dispersion:
        s8                             2.700000
        a1                             0.520000
        a2                             5.000000
        s9                             5.000000
      * Repulsion:
        kExp                           1.500000    1.000000
        rExp                           1.000000
      * Coulomb:
        alpha                          2.000000
        third order                    shell-resolved
        anisotropic                    true
        a3                             3.000000
        a5                             4.000000
        cn-shift                       1.200000
        cn-exp                         4.000000
        max-rad                        5.000000


          ...................................................
          :                      SETUP                      :
          :.................................................:
          :  # basis functions                  60          :
          :  # atomic orbitals                  60          :
          :  # shells                           40          :
          :  # electrons                        62          :
          :  max. iterations                   250          :
          :  Hamiltonian                  GFN2-xTB          :
          :  restarted?                      false          :
          :  GBSA solvation                  false          :
          :  PC potential                    false          :
          :  electronic temp.          300.0000000     K    :
          :  accuracy                    1.0000000          :
          :  -> integral cutoff          0.2500000E+02      :
          :  -> integral neglect         0.1000000E-07      :
          :  -> SCF convergence          0.1000000E-05 Eh   :
          :  -> wf. convergence          0.1000000E-03 e    :
          :  Broyden damping             0.4000000          :
          :  net charge                          1          :
          :  unpaired electrons                  0          :
          ...................................................

 iter      E             dE          RMSdq      gap      omega  full diag
   1    -34.1815691 -0.341816E+02  0.321E+00    8.79       0.0  T
   2    -34.3028546 -0.121286E+00  0.214E+00    7.04       1.0  T
   3    -34.3054100 -0.255540E-02  0.112E+00    7.24       1.0  T
   4    -34.3058775 -0.467473E-03  0.142E-01    7.27       1.0  T
   5    -34.3059043 -0.267877E-04  0.695E-02    7.31       1.0  T
   6    -34.3059051 -0.832037E-06  0.967E-03    7.32       1.9  T
   7    -34.3059060 -0.958256E-06  0.359E-03    7.32       5.1  T
   8    -34.3059061 -0.240877E-07  0.109E-03    7.32      16.8  T
   9    -34.3059061 -0.312971E-08  0.439E-04    7.32      41.6  T
  10    -34.3059061 -0.401030E-09  0.884E-05    7.32     206.5  T

   *** convergence criteria satisfied after 10 iterations ***

         #    Occupation            Energy/Eh            Energy/eV
      -------------------------------------------------------------
         1        2.0000           -0.8613109             -23.4375
       ...           ...                  ...                  ...
        25        2.0000           -0.6086837             -16.5631
        26        2.0000           -0.6043782             -16.4460
        27        2.0000           -0.5998912             -16.3239
        28        2.0000           -0.5962935             -16.2260
        29        2.0000           -0.5928114             -16.1312
        30        2.0000           -0.5877599             -15.9938
        31        2.0000           -0.5541749             -15.0799 (HOMO)
        32                         -0.2850756              -7.7573 (LUMO)
        33                         -0.2225710              -6.0565
        34                         -0.2072398              -5.6393
        35                         -0.1842748              -5.0144
        36                         -0.1083109              -2.9473
       ...                                ...                  ...
        60                          0.1368611               3.7242
      -------------------------------------------------------------
                  HL-Gap            0.2690994 Eh            7.3226 eV
             Fermi-level           -0.4196253 Eh          -11.4186 eV

 SCC (total)                   0 d,  0 h,  0 min,  0.013 sec
 SCC setup                      ...        0 min,  0.000 sec (  1.017%)
 Dispersion                     ...        0 min,  0.000 sec (  1.673%)
 classical contributions        ...        0 min,  0.000 sec (  0.314%)
 integral evaluation            ...        0 min,  0.001 sec (  7.304%)
 iterations                     ...        0 min,  0.009 sec ( 68.271%)
 molecular gradient             ...        0 min,  0.003 sec ( 20.508%)
 printout                       ...        0 min,  0.000 sec (  0.798%)

         :::::::::::::::::::::::::::::::::::::::::::::::::::::
         ::                     SUMMARY                     ::
         :::::::::::::::::::::::::::::::::::::::::::::::::::::
         :: total energy             -33.900429320449 Eh    ::
         :: gradient norm              0.043918147490 Eh/a0 ::
         :: HOMO-LUMO gap              7.322566487681 eV    ::
         ::.................................................::
         :: SCC energy               -34.305585831095 Eh    ::
         :: -> isotropic ES            0.093655135570 Eh    ::
         :: -> anisotropic ES         -0.004419111293 Eh    ::
         :: -> anisotropic XC          0.017490367353 Eh    ::
         :: -> dispersion             -0.021157454973 Eh    ::
         :: repulsion energy           0.405156510647 Eh    ::
         :: add. restraining           0.000000000000 Eh    ::
         :: total charge               1.000000000000 e     ::
         :::::::::::::::::::::::::::::::::::::::::::::::::::::

      ----------------------------------------------------------- 
     |                   =====================                   |
     |                        A N C O P T                        |
     |                   =====================                   |
     |               Approximate Normal Coordinate               |
     |                Rational Function Optimizer                |
      ----------------------------------------------------------- 
      ----------------------------------------------------------- 
     |                   =====================                   |
     |                        A N C O P T                        |
     |                   =====================                   |
     |               Approximate Normal Coordinate               |
     |                Rational Function Optimizer                |
      ----------------------------------------------------------- 

          ...................................................
          :                      SETUP                      :
          :.................................................:
          :   optimization level            normal          :
          :   max. optcycles                   200          :
          :   ANC micro-cycles                  20          :
          :   degrees of freedom                84          :
          :.................................................:
          :   RF solver                   davidson          :
          :   write xtbopt.log                true          :
          :   linear?                        false          :
          :   energy convergence         0.5000000E-05 Eh   :
          :   grad. convergence          0.1000000E-02 Eh/α :
          :   maxmium RF displ.          1.0000000          :
          :   Hlow (freq-cutoff)         0.1000000E-01      :
          :   Hmax (freq-cutoff)         5.0000000          :
          :   S6 in model hess.         20.0000000          :
          ...................................................

generating ANC from exact Hessian ...
Using Lindh-Hessian (1995)
 Shifting diagonal of input Hessian by    8.8235177319960743E-003
 Lowest  eigenvalues of input Hessian
    0.000000    0.000000    0.000000    0.000000    0.000000    0.000000
    0.010000    0.010483    0.011031    0.011897    0.012180    0.012563
    0.013536    0.013757    0.014870    0.017729    0.020051    0.020305
 Highest eigenvalues
    1.243296    1.249967    1.263094    1.275543    1.303541    1.536877


........................................................................
.............................. CYCLE    1 ..............................
........................................................................

 iter      E             dE          RMSdq      gap      omega  full diag
   1    -34.3059061 -0.343059E+02  0.293E-05    7.32       0.0  T
   2    -34.3059061 -0.186162E-11  0.175E-05    7.32    1044.2  T
   3    -34.3059061 -0.248690E-12  0.515E-06    7.32    3543.7  T
     SCC iter.                  ...        0 min,  0.002 sec
     gradient                   ...        0 min,  0.003 sec
 * total energy  :   -33.9004293 Eh     change       -0.3571898E-10 Eh
   gradient norm :     0.0439184 Eh/α   predicted     0.0000000E+00 (-100.00%)
   displ. norm   :     0.3363563 α      lambda       -0.8674621E-02
   maximum displ.:     0.1860391 α      in ANC's #19, #23, #18, ...

........................................................................
.............................. CYCLE    2 ..............................
........................................................................

 iter      E             dE          RMSdq      gap      omega  full diag
   1    -34.3266047 -0.343266E+02  0.189E-01    7.96       0.0  T
   2    -34.3267418 -0.137129E-03  0.118E-01    7.95       1.0  T
   3    -34.3267455 -0.373589E-05  0.437E-02    7.95       1.0  T
   4    -34.3267475 -0.197851E-05  0.467E-03    7.95       3.9  T
   5    -34.3267476 -0.562363E-07  0.232E-03    7.95       7.9  T
   6    -34.3267476 -0.971468E-08  0.405E-04    7.95      45.1  T
   7    -34.3267476 -0.579625E-09  0.145E-04    7.95     125.8  T
     SCC iter.                  ...        0 min,  0.005 sec
     gradient                   ...        0 min,  0.003 sec
 * total energy  :   -33.9063271 Eh     change       -0.5897746E-02 Eh
   gradient norm :     0.0220181 Eh/α   predicted    -0.4828149E-02 ( -18.14%)
   displ. norm   :     0.2831413 α      lambda       -0.2742798E-02
   maximum displ.:     0.1076457 α      in ANC's #7, #19, #12, ...

........................................................................
.............................. CYCLE    3 ..............................
........................................................................

 iter      E             dE          RMSdq      gap      omega  full diag
   1    -34.3373863 -0.343374E+02  0.121E-01    8.51       0.0  T
   2    -34.3374804 -0.940707E-04  0.767E-02    8.50       1.0  T
   3    -34.3374820 -0.158382E-05  0.363E-02    8.50       1.0  T
   4    -34.3374823 -0.305037E-06  0.265E-03    8.50       6.9  T
   5    -34.3374823 -0.223723E-07  0.128E-03    8.50      14.3  T
   6    -34.3374823 -0.328013E-08  0.328E-04    8.50      55.6  T
   7    -34.3374823 -0.272856E-09  0.780E-05    8.50     234.0  T
     SCC iter.                  ...        0 min,  0.005 sec
     gradient                   ...        0 min,  0.006 sec
 * total energy  :   -33.9078444 Eh     change       -0.1517298E-02 Eh
   gradient norm :     0.0058659 Eh/α   predicted    -0.1482435E-02 (  -2.30%)
   displ. norm   :     0.1347884 α      lambda       -0.2599918E-03
   maximum displ.:     0.0678084 α      in ANC's #2, #7, #12, ...

........................................................................
.............................. CYCLE    4 ..............................
........................................................................

 iter      E             dE          RMSdq      gap      omega  full diag
   1    -34.3372193 -0.343372E+02  0.387E-02    8.56       0.0  T
   2    -34.3372217 -0.238512E-05  0.227E-02    8.56       1.0  T
   3    -34.3372217 -0.448603E-07  0.552E-03    8.56       3.3  T
   4    -34.3372218 -0.456031E-07  0.706E-04    8.56      25.9  T
   5    -34.3372218 -0.146963E-08  0.383E-04    8.56      47.7  T
     SCC iter.                  ...        0 min,  0.003 sec
     gradient                   ...        0 min,  0.003 sec
 * total energy  :   -33.9080459 Eh     change       -0.2015219E-03 Eh
   gradient norm :     0.0027606 Eh/α   predicted    -0.1323775E-03 ( -34.31%)
   displ. norm   :     0.2300711 α      lambda       -0.2746293E-03
   maximum displ.:     0.1226797 α      in ANC's #2, #7, #1, ...

........................................................................
.............................. CYCLE    5 ..............................
........................................................................

 iter      E             dE          RMSdq      gap      omega  full diag
   1    -34.3355582 -0.343356E+02  0.566E-02    8.56       0.0  T
   2    -34.3355590 -0.846259E-06  0.337E-02    8.56       1.0  T
   3    -34.3355591 -0.104461E-06  0.267E-03    8.56       6.8  T
   4    -34.3355592 -0.558054E-07  0.115E-03    8.56      15.8  T
   5    -34.3355592 -0.212017E-08  0.440E-04    8.56      41.5  T
   6    -34.3355592 -0.493813E-09  0.130E-04    8.56     140.1  T
     SCC iter.                  ...        0 min,  0.004 sec
     gradient                   ...        0 min,  0.003 sec
 * total energy  :   -33.9082289 Eh     change       -0.1829773E-03 Eh
   gradient norm :     0.0038423 Eh/α   predicted    -0.1445851E-03 ( -20.98%)
   displ. norm   :     0.1589931 α      lambda       -0.1070332E-03
   maximum displ.:     0.0888017 α      in ANC's #2, #1, #7, ...

........................................................................
.............................. CYCLE    6 ..............................
........................................................................

 iter      E             dE          RMSdq      gap      omega  full diag
   1    -34.3352571 -0.343353E+02  0.374E-02    8.54       0.0  T
   2    -34.3352573 -0.282697E-06  0.224E-02    8.54       1.0  T
   3    -34.3352574 -0.480279E-07  0.152E-03    8.54      12.0  T
   4    -34.3352574 -0.142963E-07  0.746E-04    8.54      24.5  T
   5    -34.3352574 -0.780439E-09  0.236E-04    8.54      77.4  T
     SCC iter.                  ...        0 min,  0.003 sec
     gradient                   ...        0 min,  0.003 sec
 * total energy  :   -33.9083104 Eh     change       -0.8156481E-04 Eh
   gradient norm :     0.0037385 Eh/α   predicted    -0.5486961E-04 ( -32.73%)
   displ. norm   :     0.1688866 α      lambda       -0.9877999E-04
   maximum displ.:     0.0917018 α      in ANC's #2, #1, #5, ...

........................................................................
.............................. CYCLE    7 ..............................
........................................................................

 iter      E             dE          RMSdq      gap      omega  full diag
   1    -34.3357944 -0.343358E+02  0.391E-02    8.51       0.0  T
   2    -34.3357950 -0.608494E-06  0.234E-02    8.51       1.0  T
   3    -34.3357951 -0.512399E-07  0.213E-03    8.51       8.6  T
   4    -34.3357951 -0.176416E-07  0.770E-04    8.51      23.7  T
   5    -34.3357951 -0.772218E-09  0.257E-04    8.51      71.2  T
     SCC iter.                  ...        0 min,  0.003 sec
     gradient                   ...        0 min,  0.003 sec
 * total energy  :   -33.9083820 Eh     change       -0.7160447E-04 Eh
   gradient norm :     0.0020964 Eh/α   predicted    -0.5079897E-04 ( -29.06%)
   displ. norm   :     0.1442665 α      lambda       -0.6097469E-04
   maximum displ.:     0.0828949 α      in ANC's #1, #2, #3, ...

........................................................................
.............................. CYCLE    8 ..............................
........................................................................

 iter      E             dE          RMSdq      gap      omega  full diag
   1    -34.3365210 -0.343365E+02  0.310E-02    8.50       0.0  T
   2    -34.3365213 -0.325657E-06  0.186E-02    8.50       1.0  T
   3    -34.3365213 -0.277632E-07  0.158E-03    8.50      11.6  T
   4    -34.3365213 -0.123796E-07  0.578E-04    8.50      31.6  T
   5    -34.3365213 -0.496918E-09  0.206E-04    8.50      88.7  T
     SCC iter.                  ...        0 min,  0.003 sec
     gradient                   ...        0 min,  0.003 sec
 * total energy  :   -33.9084264 Eh     change       -0.4438716E-04 Eh
   gradient norm :     0.0014613 Eh/α   predicted    -0.3112520E-04 ( -29.88%)
   displ. norm   :     0.2004280 α      lambda       -0.4709161E-04
   maximum displ.:     0.1163321 α      in ANC's #1, #3, #2, ...

........................................................................
.............................. CYCLE    9 ..............................
........................................................................

 iter      E             dE          RMSdq      gap      omega  full diag
   1    -34.3372293 -0.343372E+02  0.390E-02    8.49       0.0  T
   2    -34.3372295 -0.266956E-06  0.233E-02    8.49       1.0  T
   3    -34.3372296 -0.323509E-07  0.153E-03    8.49      12.0  T
   4    -34.3372296 -0.202512E-07  0.661E-04    8.49      27.6  T
   5    -34.3372296 -0.681588E-09  0.189E-04    8.49      96.7  T
     SCC iter.                  ...        0 min,  0.003 sec
     gradient                   ...        0 min,  0.003 sec
 * total energy  :   -33.9084747 Eh     change       -0.4825936E-04 Eh
   gradient norm :     0.0026618 Eh/α   predicted    -0.2396646E-04 ( -50.34%)
   displ. norm   :     0.0981593 α      lambda       -0.3910129E-04
   maximum displ.:     0.0545393 α      in ANC's #1, #3, #12, ...

........................................................................
.............................. CYCLE   10 ..............................
........................................................................

 iter      E             dE          RMSdq      gap      omega  full diag
   1    -34.3373765 -0.343374E+02  0.190E-02    8.50       0.0  T
   2    -34.3373766 -0.769989E-07  0.113E-02    8.50       1.6  T
   3    -34.3373766 -0.755664E-08  0.670E-04    8.50      27.2  T
   4    -34.3373766 -0.290647E-08  0.273E-04    8.50      66.9  T
     SCC iter.                  ...        0 min,  0.003 sec
     gradient                   ...        0 min,  0.003 sec
 * total energy  :   -33.9085081 Eh     change       -0.3346274E-04 Eh
   gradient norm :     0.0022058 Eh/α   predicted    -0.1973962E-04 ( -41.01%)
   displ. norm   :     0.2015948 α      lambda       -0.6769003E-04
   maximum displ.:     0.1138833 α      in ANC's #3, #1, #12, ...

........................................................................
.............................. CYCLE   11 ..............................
........................................................................

 iter      E             dE          RMSdq      gap      omega  full diag
   1    -34.3365728 -0.343366E+02  0.391E-02    8.52       0.0  T
   2    -34.3365732 -0.306512E-06  0.233E-02    8.52       1.0  T
   3    -34.3365732 -0.345199E-07  0.129E-03    8.52      14.1  T
   4    -34.3365732 -0.974816E-08  0.554E-04    8.52      32.9  T
   5    -34.3365732 -0.480703E-09  0.158E-04    8.52     115.6  T
     SCC iter.                  ...        0 min,  0.003 sec
     gradient                   ...        0 min,  0.003 sec
 * total energy  :   -33.9085531 Eh     change       -0.4495550E-04 Eh
   gradient norm :     0.0017354 Eh/α   predicted    -0.3522305E-04 ( -21.65%)
   displ. norm   :     0.1524611 α      lambda       -0.2429809E-04
   maximum displ.:     0.0888254 α      in ANC's #1, #3, #4, ...

........................................................................
.............................. CYCLE   12 ..............................
........................................................................

 iter      E             dE          RMSdq      gap      omega  full diag
   1    -34.3367322 -0.343367E+02  0.308E-02    8.53       0.0  T
   2    -34.3367324 -0.256809E-06  0.183E-02    8.53       1.0  T
   3    -34.3367324 -0.208927E-07  0.123E-03    8.53      14.9  T
   4    -34.3367324 -0.781215E-08  0.455E-04    8.53      40.1  T
   5    -34.3367324 -0.313925E-09  0.153E-04    8.53     119.6  T
     SCC iter.                  ...        0 min,  0.003 sec
     gradient                   ...        0 min,  0.021 sec
 * total energy  :   -33.9085723 Eh     change       -0.1920915E-04 Eh
   gradient norm :     0.0014633 Eh/α   predicted    -0.1227479E-04 ( -36.10%)
   displ. norm   :     0.0860903 α      lambda       -0.1439409E-04
   maximum displ.:     0.0546447 α      in ANC's #1, #3, #8, ...

........................................................................
.............................. CYCLE   13 ..............................
........................................................................

 iter      E             dE          RMSdq      gap      omega  full diag
   1    -34.3363262 -0.343363E+02  0.182E-02    8.53       0.0  T
   2    -34.3363263 -0.403393E-07  0.108E-02    8.53       1.7  T
   3    -34.3363263 -0.845925E-08  0.569E-04    8.53      32.1  T
   4    -34.3363263 -0.197362E-08  0.286E-04    8.53      63.8  T
     SCC iter.                  ...        0 min,  0.009 sec
     gradient                   ...        0 min,  0.009 sec
 * total energy  :   -33.9085878 Eh     change       -0.1546651E-04 Eh
   gradient norm :     0.0014565 Eh/α   predicted    -0.7221308E-05 ( -53.31%)
   displ. norm   :     0.1142925 α      lambda       -0.2630929E-04
   maximum displ.:     0.0568278 α      in ANC's #1, #11, #4, ...

........................................................................
.............................. CYCLE   14 ..............................
........................................................................

 iter      E             dE          RMSdq      gap      omega  full diag
   1    -34.3374435 -0.343374E+02  0.301E-02    8.52       0.0  T
   2    -34.3374438 -0.229266E-06  0.179E-02    8.52       1.0  T
   3    -34.3374438 -0.195388E-07  0.115E-03    8.52      15.9  T
   4    -34.3374438 -0.746045E-08  0.457E-04    8.52      39.9  T
   5    -34.3374438 -0.230166E-09  0.179E-04    8.52     102.0  T
     SCC iter.                  ...        0 min,  0.018 sec
     gradient                   ...        0 min,  0.013 sec
 * total energy  :   -33.9086009 Eh     change       -0.1307681E-04 Eh
   gradient norm :     0.0017439 Eh/α   predicted    -0.1323313E-04 (   1.20%)
   displ. norm   :     0.0583053 α      lambda       -0.7777378E-05
   maximum displ.:     0.0354636 α      in ANC's #1, #3, #12, ...

........................................................................
.............................. CYCLE   15 ..............................
........................................................................

 iter      E             dE          RMSdq      gap      omega  full diag
   1    -34.3366153 -0.343366E+02  0.123E-02    8.52       0.0  T
   2    -34.3366154 -0.946856E-07  0.718E-03    8.52       2.5  T
   3    -34.3366154 -0.571377E-08  0.912E-04    8.52      20.0  T
   4    -34.3366154 -0.247327E-08  0.254E-04    8.52      71.8  T
     SCC iter.                  ...        0 min,  0.013 sec
     gradient                   ...        0 min,  0.007 sec
 * total energy  :   -33.9086062 Eh     change       -0.5368660E-05 Eh
   gradient norm :     0.0007662 Eh/α   predicted    -0.3896844E-05 ( -27.41%)
   displ. norm   :     0.0151243 α      lambda       -0.2145434E-05
   maximum displ.:     0.0068294 α      in ANC's #11, #2, #8, ...

........................................................................
.............................. CYCLE   16 ..............................
........................................................................

 iter      E             dE          RMSdq      gap      omega  full diag
   1    -34.3367806 -0.343368E+02  0.492E-03    8.53       0.0  T
   2    -34.3367806 -0.309841E-07  0.281E-03    8.53       6.5  T
   3    -34.3367806 -0.262034E-09  0.661E-04    8.53      27.6  T
   4    -34.3367806 -0.207643E-08  0.108E-04    8.53     168.5  T
     SCC iter.                  ...        0 min,  0.007 sec
     gradient                   ...        0 min,  0.007 sec
 * total energy  :   -33.9086082 Eh     change       -0.1980659E-05 Eh
   gradient norm :     0.0003503 Eh/α   predicted    -0.1074422E-05 ( -45.75%)
   displ. norm   :     0.0219792 α      lambda       -0.1547697E-05
   maximum displ.:     0.0126125 α      in ANC's #1, #4, #2, ...

   *** GEOMETRY OPTIMIZATION CONVERGED AFTER 16 ITERATIONS ***

------------------------------------------------------------------------
 total energy gain   :        -0.0081789 Eh       -5.1323 kcal/mol
 total RMSD          :         0.3023467 a0        0.1600 Å
 total power (kW/mol):        -1.3421027 (step)  -89.4886 (real)
------------------------------------------------------------------------

 ANCopt (total)                0 d,  0 h,  0 min,  0.240 sec
 optimizer setup                ...        0 min,  0.000 sec (  0.032%)
 model hessian                  ...        0 min,  0.033 sec ( 13.612%)
 ANC generation                 ...        0 min,  0.001 sec (  0.258%)
 coordinate transformation      ...        0 min,  0.000 sec (  0.072%)
 single point calculation       ...        0 min,  0.201 sec ( 83.833%)
 optimization log               ...        0 min,  0.001 sec (  0.582%)
 hessian update                 ...        0 min,  0.002 sec (  0.727%)
 rational function              ...        0 min,  0.002 sec (  0.628%)

================
 final structure:
================
30
 xtb: 6.7.1 (edcfbbe)
C            0.95269621308991       -1.05458482411925        0.74639535271493
O            0.49903465770099       -0.66219933888063       -0.53790073573750
C            1.11931292407448       -1.34596008403174       -1.57846701101653
N            0.62424306950010       -0.77925746860581       -2.85923486911814
C            0.96146751904522        0.68764847663073       -2.90433059031654
C            2.43262033353855        1.04315523268064       -3.05186249159196
C            1.28395451981918       -1.45786405201733       -4.01660957924937
C            0.86495067624027       -2.88931409415304       -4.31070029395564
C           -0.87845478248989       -0.86702631551050       -2.93926113042893
C           -1.54185377080666       -2.07179189584367       -2.28830317644861
H            0.38926925649018       -0.45600665641967        1.45670069350879
H            2.02172630536035       -0.85489049046656        0.86249911616568
H            0.76082515726210       -2.11649844562185        0.92511968621021
H            2.21310715292013       -1.22573310043284       -1.53827383592739
H            0.88822503097511       -2.42001924381207       -1.54675765590038
H            0.40601353836611        1.11729321641122       -3.74011074411940
H            0.58469270327045        1.11186204238923       -1.97179571624842
H            2.84217565304092        0.75588888683309       -4.01591333014173
H            2.51093400509462        2.12526237942938       -2.97659440709067
H            3.04736722035251        0.62304101857715       -2.26093121616708
H            1.07819739931621       -0.84592439754859       -4.89771938416636
H            2.35862681574261       -1.44168553875822       -3.82985982164095
H           -0.16994403021069       -2.95987095032541       -4.63012974334572
H            1.48160406287968       -3.24546580382891       -5.13300593474808
H            1.03409115035083       -3.55504671323147       -3.46957764439811
H           -1.27566845773139        0.01958999765548       -2.44383061432486
H           -1.13781307077442       -0.81774467669536       -3.99789501715640
H           -1.44079194197548       -2.03749808205658       -1.20784716342879
H           -2.60392409969811       -2.01353272647791       -2.51588087646619
H           -1.17953521074461       -3.02479635176935       -2.65671186546649

 Bond Distances (Angstroems)
 ---------------------------
C1-O2=1.4175         C1-H11=1.0864        C1-H12=1.0937        C1-H13=1.0938        O2-C1=1.4175         O2-C3=1.3911         
C3-O2=1.3911         C3-N4=1.4855         C3-H14=1.1011        C3-H15=1.0991        N4-C3=1.4855         N4-C5=1.5058         
N4-C7=1.4951         N4-C9=1.5074         C5-N4=1.5058         C5-C6=1.5207         C5-H16=1.0916        C5-H17=1.0916        
C6-C5=1.5207         C6-H18=1.0861        C6-H19=1.0875        C6-H20=1.0863        C7-N4=1.4951         C7-C8=1.5202         
C7-H21=1.0923        C7-H22=1.0909        C8-C7=1.5202         C8-H23=1.0854        C8-H24=1.0878        C8-H25=1.0860        
C9-N4=1.5074         C9-C10=1.5216        C9-H26=1.0906        C9-H27=1.0911        C10-C9=1.5216        C10-H28=1.0857       
C10-H29=1.0877       C10-H30=1.0841       H11-C1=1.0864        H12-C1=1.0937        H13-C1=1.0938        H14-C3=1.1011        
H15-C3=1.0991        H16-C5=1.0916        H17-C5=1.0916        H18-C6=1.0861        H19-C6=1.0875        H20-C6=1.0863        
H21-C7=1.0923        H22-C7=1.0909        H23-C8=1.0854        H24-C8=1.0878        H25-C8=1.0860        H26-C9=1.0906        
H27-C9=1.0911        H28-C10=1.0857       H29-C10=1.0877       H30-C10=1.0841       
 C  H  Rav=1.0899 sigma=0.0045  Rmin=1.0841  Rmax=1.1011    20
 C  C  Rav=1.5208 sigma=0.0006  Rmin=1.5202  Rmax=1.5216     3
 N  C  Rav=1.4984 sigma=0.0089  Rmin=1.4855  Rmax=1.5074     4
 O  C  Rav=1.4043 sigma=0.0132  Rmin=1.3911  Rmax=1.4175     2

 selected bond angles (degree)
 --------------------
H11-C1-O2=105.90               H12-C1-O2=111.01               H12-C1-H11=109.69              H13-C1-O2=111.14               
H13-C1-H11=109.70              H13-C1-H12=109.35              C3-O2-C1=113.51                N4-C3-O2=107.99                
H14-C3-O2=111.22               H14-C3-N4=108.72               H15-C3-O2=111.41               H15-C3-N4=109.12               
H15-C3-H14=108.33              C5-N4-C3=108.83                C7-N4-C3=110.32                C7-N4-C5=108.67                
C9-N4-C3=110.84                C9-N4-C5=106.16                C9-N4-C7=111.86                C6-C5-N4=116.57                
H16-C5-N4=107.00               H16-C5-C6=109.02               H17-C5-N4=106.00               H17-C5-C6=109.02               
H17-C5-H16=109.00              H18-C6-C5=112.90               H19-C6-C5=107.19               H19-C6-H18=107.30              
H20-C6-C5=112.73               H20-C6-H18=109.30              H20-C6-H19=107.08              C8-C7-N4=117.10                
H21-C7-N4=106.68               H21-C7-C8=108.64               H22-C7-N4=107.18               H22-C7-C8=108.58               
H22-C7-H21=108.38              H23-C8-C7=112.39               H24-C8-C7=107.35               H24-C8-H23=107.26              
H25-C8-C7=112.61               H25-C8-H23=109.67              H25-C8-H24=107.25              C10-C9-N4=117.26               
H26-C9-N4=106.96               H26-C9-C10=106.89              H27-C9-N4=106.61               H27-C9-C10=110.32              
H27-C9-H26=108.51              H28-C10-C9=111.11              H29-C10-C9=107.08              H29-C10-H28=107.30             
H30-C10-C9=113.89              H30-C10-H28=109.56             H30-C10-H29=107.60             

 selected dihedral angles (degree)
 ---------------------------------
C3-O2-C1-H11=180.39           C3-O2-C1-H12= 61.40           C3-O2-C1-H13=299.46           N4-C3-O2-C1=183.76            
H14-C3-O2-C1=302.97           H15-C3-O2-C1= 63.94           C5-N4-C3-O2= 59.55            C5-N4-C3-H14=298.76           
C5-N4-C3-H15=180.80           C7-N4-C3-O2=178.69            C7-N4-C3-H14= 57.90           C7-N4-C3-H15=299.94           
C9-N4-C3-O2=303.15            C9-N4-C3-H14=182.36           C9-N4-C3-H15= 64.40           C6-C5-N4-C3= 69.68            
C6-C5-N4-C7=309.51            C6-C5-N4-C9=189.04            H16-C5-N4-C3=191.96           H16-C5-N4-C7= 71.79           
H16-C5-N4-C9=311.31           H17-C5-N4-C3=308.17           H17-C5-N4-C7=188.01           H17-C5-N4-C9= 67.53           
H18-C6-C5-N4= 67.10           H18-C6-C5-H16=305.88          H18-C6-C5-H17=187.00          H19-C6-C5-N4=185.04           
H19-C6-C5-H16= 63.83          H19-C6-C5-H17=304.94          H20-C6-C5-N4=302.62           H20-C6-C5-H16=181.41          
H20-C6-C5-H17= 62.52          C8-C7-N4-C3= 71.94            C8-C7-N4-C5=191.19            C8-C7-N4-C9=308.07            
H21-C7-N4-C3=193.82           H21-C7-N4-C5=313.06           H21-C7-N4-C9= 69.94           H22-C7-N4-C3=309.75           
H22-C7-N4-C5= 68.99           H22-C7-N4-C9=185.87           H23-C8-C7-N4= 65.84           H23-C8-C7-H21=304.98          
H23-C8-C7-H22=187.31          H24-C8-C7-N4=183.55           H24-C8-C7-H21= 62.70          H24-C8-C7-H22=305.02          
H25-C8-C7-N4=301.37           H25-C8-C7-H21=180.51          H25-C8-C7-H22= 62.84          C10-C9-N4-C3=325.98           
C10-C9-N4-C5=207.95           C10-C9-N4-C7= 89.56           H26-C9-N4-C3= 85.90           H26-C9-N4-C5=327.87           
H26-C9-N4-C7=209.48           H27-C9-N4-C3=201.83           H27-C9-N4-C5= 83.80           H27-C9-N4-C7=325.41           
H28-C10-C9-N4= 67.87          H28-C10-C9-H26=307.91         H28-C10-C9-H27=190.12         H29-C10-C9-N4=184.75          
H29-C10-C9-H26= 64.80         H29-C10-C9-H27=307.01         H30-C10-C9-N4=303.57          H30-C10-C9-H26=183.61         
H30-C10-C9-H27= 65.82         
           -------------------------------------------------
          |                Final Singlepoint                |
           -------------------------------------------------

          ...................................................
          :                      SETUP                      :
          :.................................................:
          :  # basis functions                  60          :
          :  # atomic orbitals                  60          :
          :  # shells                           40          :
          :  # electrons                        62          :
          :  max. iterations                   250          :
          :  Hamiltonian                  GFN2-xTB          :
          :  restarted?                      false          :
          :  GBSA solvation                  false          :
          :  PC potential                    false          :
          :  electronic temp.          300.0000000     K    :
          :  accuracy                    1.0000000          :
          :  -> integral cutoff          0.2500000E+02      :
          :  -> integral neglect         0.1000000E-07      :
          :  -> SCF convergence          0.1000000E-05 Eh   :
          :  -> wf. convergence          0.1000000E-03 e    :
          :  Broyden damping             0.4000000          :
          :  net charge                          1          :
          :  unpaired electrons                  0          :
          ...................................................

 iter      E             dE          RMSdq      gap      omega  full diag
   1    -34.3367806 -0.343368E+02  0.534E-05    8.53       0.0  T
   2    -34.3367806 -0.267875E-11  0.299E-05    8.53     609.6  T
   3    -34.3367806 -0.270006E-12  0.610E-06    8.53    2993.7  T

   *** convergence criteria satisfied after 3 iterations ***

         #    Occupation            Energy/Eh            Energy/eV
      -------------------------------------------------------------
         1        2.0000           -0.8726763             -23.7467
       ...           ...                  ...                  ...
        25        2.0000           -0.6106467             -16.6165
        26        2.0000           -0.6051228             -16.4662
        27        2.0000           -0.6005735             -16.3424
        28        2.0000           -0.5996731             -16.3179
        29        2.0000           -0.5953218             -16.1995
        30        2.0000           -0.5892470             -16.0342
        31        2.0000           -0.5561070             -15.1324 (HOMO)
        32                         -0.2427932              -6.6067 (LUMO)
        33                         -0.1791537              -4.8750
        34                         -0.1686908              -4.5903
        35                         -0.1595203              -4.3408
        36                         -0.1007204              -2.7407
       ...                                ...                  ...
        60                          0.1497374               4.0746
      -------------------------------------------------------------
                  HL-Gap            0.3133138 Eh            8.5257 eV
             Fermi-level           -0.3994501 Eh          -10.8696 eV

 SCC (total)                   0 d,  0 h,  0 min,  0.010 sec
 SCC setup                      ...        0 min,  0.000 sec (  1.057%)
 Dispersion                     ...        0 min,  0.000 sec (  1.987%)
 classical contributions        ...        0 min,  0.000 sec (  0.636%)
 integral evaluation            ...        0 min,  0.001 sec ( 15.263%)
 iterations                     ...        0 min,  0.003 sec ( 27.149%)
 molecular gradient             ...        0 min,  0.005 sec ( 51.328%)
 printout                       ...        0 min,  0.000 sec (  2.423%)

         :::::::::::::::::::::::::::::::::::::::::::::::::::::
         ::                     SUMMARY                     ::
         :::::::::::::::::::::::::::::::::::::::::::::::::::::
         :: total energy             -33.908608199470 Eh    ::
         :: gradient norm              0.000350781244 Eh/a0 ::
         :: HOMO-LUMO gap              8.525702697379 eV    ::
         ::.................................................::
         :: SCC energy               -34.336472970608 Eh    ::
         :: -> isotropic ES            0.093735543931 Eh    ::
         :: -> anisotropic ES         -0.004745632883 Eh    ::
         :: -> anisotropic XC          0.016865630520 Eh    ::
         :: -> dispersion             -0.021560018862 Eh    ::
         :: repulsion energy           0.427864771138 Eh    ::
         :: add. restraining           0.000000000000 Eh    ::
         :: total charge               1.000000000000 e     ::
         :::::::::::::::::::::::::::::::::::::::::::::::::::::

           -------------------------------------------------
          |                Property Printout                |
           -------------------------------------------------

    * Orbital Energies and Occupations

         #    Occupation            Energy/Eh            Energy/eV
      -------------------------------------------------------------
         1        2.0000           -0.8726763             -23.7467
       ...           ...                  ...                  ...
        19        2.0000           -0.6549167             -17.8212
        20        2.0000           -0.6421844             -17.4747
        21        2.0000           -0.6340844             -17.2543
        22        2.0000           -0.6319918             -17.1974
        23        2.0000           -0.6237893             -16.9742
        24        2.0000           -0.6166988             -16.7812
        25        2.0000           -0.6106467             -16.6165
        26        2.0000           -0.6051228             -16.4662
        27        2.0000           -0.6005735             -16.3424
        28        2.0000           -0.5996731             -16.3179
        29        2.0000           -0.5953218             -16.1995
        30        2.0000           -0.5892470             -16.0342
        31        2.0000           -0.5561070             -15.1324 (HOMO)
        32                         -0.2427932              -6.6067 (LUMO)
        33                         -0.1791537              -4.8750
        34                         -0.1686908              -4.5903
        35                         -0.1595203              -4.3408
        36                         -0.1007204              -2.7407
        37                         -0.0656012              -1.7851
        38                         -0.0567080              -1.5431
        39                         -0.0463816              -1.2621
        40                         -0.0252595              -0.6873
        41                         -0.0145193              -0.3951
        42                         -0.0117334              -0.3193
       ...                                ...                  ...
        60                          0.1497374               4.0746
      -------------------------------------------------------------
                  HL-Gap            0.3133138 Eh            8.5257 eV
             Fermi-level           -0.3994501 Eh          -10.8696 eV

     #   Z          covCN         q      C6AA      α(0)
     1   6 C        3.654     0.021    20.520     6.504
     2   8 O        1.701    -0.297    18.934     5.875
     3   6 C        3.661     0.122    18.844     6.228
     4   7 N        3.617     0.095    19.601     6.576
     5   6 C        3.762    -0.035    21.252     6.571
     6   6 C        3.750    -0.129    23.042     6.846
     7   6 C        3.752    -0.033    21.221     6.569
     8   6 C        3.751    -0.129    23.033     6.844
     9   6 C        3.753    -0.029    21.156     6.559
    10   6 C        3.751    -0.130    23.064     6.849
    11   1 H        0.925     0.093     1.845     2.124
    12   1 H        0.924     0.053     2.283     2.363
    13   1 H        0.924     0.053     2.286     2.364
    14   1 H        0.923     0.064     2.155     2.296
    15   1 H        0.923     0.073     2.057     2.243
    16   1 H        0.924     0.083     1.948     2.183
    17   1 H        0.924     0.105     1.739     2.062
    18   1 H        0.925     0.067     2.124     2.279
    19   1 H        0.925     0.090     1.881     2.145
    20   1 H        0.925     0.063     2.162     2.299
    21   1 H        0.924     0.088     1.899     2.155
    22   1 H        0.924     0.085     1.926     2.170
    23   1 H        0.925     0.074     2.038     2.233
    24   1 H        0.925     0.087     1.909     2.161
    25   1 H        0.925     0.061     2.184     2.311
    26   1 H        0.924     0.095     1.831     2.116
    27   1 H        0.924     0.083     1.948     2.183
    28   1 H        0.925     0.076     2.017     2.221
    29   1 H        0.925     0.084     1.941     2.179
    30   1 H        0.925     0.067     2.119     2.276

 Mol. C6AA /au·bohr⁶  :       5490.525153
 Mol. C8AA /au·bohr⁸  :     114166.253635
 Mol. α(0) /au        :        109.784498


Wiberg/Mayer (AO) data.
largest (>0.10) Wiberg bond orders for each atom

 ---------------------------------------------------------------------------
     #   Z sym  total        # sym  WBO       # sym  WBO       # sym  WBO
 ---------------------------------------------------------------------------
     1   6 C    3.921 --    13 H    0.979    12 H    0.978    11 H    0.975
                             2 O    0.963
     2   8 O    2.083 --     3 C    1.017     1 C    0.963
     3   6 C    3.933 --     2 O    1.017    14 H    0.952    15 H    0.951
                             4 N    0.942
     4   7 N    3.793 --     3 C    0.942     7 C    0.929     5 C    0.918
                             9 C    0.915
     5   6 C    3.926 --     6 C    1.024    16 H    0.969    17 H    0.962
                             4 N    0.918
     6   6 C    3.982 --     5 C    1.024    18 H    0.981    20 H    0.979
                            19 H    0.971
     7   6 C    3.932 --     8 C    1.022    21 H    0.967    22 H    0.966
                             4 N    0.929
     8   6 C    3.981 --     7 C    1.022    25 H    0.980    23 H    0.979
                            24 H    0.972
     9   6 C    3.925 --    10 C    1.022    27 H    0.969    26 H    0.967
                             4 N    0.915
    10   6 C    3.980 --     9 C    1.022    28 H    0.980    30 H    0.978
                            29 H    0.971
    11   1 H    0.991 --     1 C    0.975
    12   1 H    0.997 --     1 C    0.978
    13   1 H    0.997 --     1 C    0.979
    14   1 H    0.996 --     3 C    0.952
    15   1 H    0.995 --     3 C    0.951
    16   1 H    0.993 --     5 C    0.969
    17   1 H    0.989 --     5 C    0.962
    18   1 H    0.996 --     6 C    0.981
    19   1 H    0.992 --     6 C    0.971
    20   1 H    0.996 --     6 C    0.979
    21   1 H    0.992 --     7 C    0.967
    22   1 H    0.993 --     7 C    0.966
    23   1 H    0.994 --     8 C    0.979
    24   1 H    0.992 --     8 C    0.972
    25   1 H    0.996 --     8 C    0.980
    26   1 H    0.991 --     9 C    0.967
    27   1 H    0.993 --     9 C    0.969
    28   1 H    0.994 --    10 C    0.980
    29   1 H    0.993 --    10 C    0.971
    30   1 H    0.995 --    10 C    0.978
 ---------------------------------------------------------------------------

Topologies differ in total number of bonds
Writing topology from bond orders to xtbtopo.mol

molecular dipole:
                 x           y           z       tot (Debye)
 q only:        1.394      -1.855      -5.103
   full:        1.546      -1.926      -5.112      14.430
molecular quadrupole (traceless):
                xx          xy          yy          xz          yz          zz
 q only:      -15.057      -1.247     -11.999      -9.955      13.761      27.056
  q+dip:      -14.446      -2.758     -12.247      -9.833      13.459      26.693
   full:      -14.636      -2.617     -12.265      -9.995      13.405      26.901

           -------------------------------------------------
          |                Geometry Summary                 |
           -------------------------------------------------

      molecular mass/u    :      146.2508103
   center of mass at/Å    :        0.6361591      -0.9469658      -2.3451011
  moments of inertia/u·Å² :        0.3758953E+03   0.4521243E+03   0.6189895E+03
rotational constants/cm⁻¹ :        0.4484662E-01   0.3728540E-01   0.2723412E-01

 * 29 selected distances

     #   Z          #   Z                                           value/Å
     1   6 C        2   8 O                                       1.4174597
     2   8 O        3   6 C                                       1.3910616
     3   6 C        4   7 N                                       1.4854672
     4   7 N        5   6 C                                       1.5058444
     5   6 C        6   6 C                                       1.5206715
     4   7 N        7   6 C                                       1.4950728
     7   6 C        8   6 C                                       1.5202313
     4   7 N        9   6 C                                       1.5073848
     9   6 C       10   6 C                                       1.5216126 (max)
     1   6 C       11   1 H                                       1.0864068
     1   6 C       12   1 H                                       1.0937017
     1   6 C       13   1 H                                       1.0938088
     3   6 C       14   1 H                                       1.1011158
     3   6 C       15   1 H                                       1.0990953
     5   6 C       16   1 H                                       1.0916283
     5   6 C       17   1 H                                       1.0915759
     6   6 C       18   1 H                                       1.0861177
     6   6 C       19   1 H                                       1.0875451
     6   6 C       20   1 H                                       1.0862699
     7   6 C       21   1 H                                       1.0923190
     7   6 C       22   1 H                                       1.0908978
     8   6 C       23   1 H                                       1.0853666
     8   6 C       24   1 H                                       1.0877924
     8   6 C       25   1 H                                       1.0859539
     9   6 C       26   1 H                                       1.0905589
     9   6 C       27   1 H                                       1.0910551
    10   6 C       28   1 H                                       1.0857140
    10   6 C       29   1 H                                       1.0877405
    10   6 C       30   1 H                                       1.0840744 (min)

 * 4 distinct bonds (by element types)

   Z      Z             #   av. dist./Å        max./Å        min./Å
   1 H    6 C          20     1.0899369     1.1011158     1.0840744
   6 C    6 C           3     1.5208385     1.5216126     1.5202313
   6 C    7 N           4     1.4984423     1.5073848     1.4854672
   6 C    8 O           2     1.4042607     1.4174597     1.3910616


optimized geometry written to: xtbopt.xyz


           -------------------------------------------------
          | TOTAL ENERGY              -33.908608199470 Eh   |
          | GRADIENT NORM               0.000350781244 Eh/α |
          | HOMO-LUMO GAP               8.525702697379 eV   |
           -------------------------------------------------

------------------------------------------------------------------------
 * finished run on 2024/12/20 at 02:07:53.567     
------------------------------------------------------------------------
 total:
 * wall-time:     0 d,  0 h,  0 min,  0.280 sec
 *  cpu-time:     0 d,  0 h,  0 min,  2.086 sec
 * ratio c/w:     7.464 speedup
 SCF:
 * wall-time:     0 d,  0 h,  0 min,  0.013 sec
 *  cpu-time:     0 d,  0 h,  0 min,  0.104 sec
 * ratio c/w:     7.929 speedup
 ANC optimizer:
 * wall-time:     0 d,  0 h,  0 min,  0.251 sec
 *  cpu-time:     0 d,  0 h,  0 min,  1.870 sec
 * ratio c/w:     7.462 speedup

