33
 energy: -45.537694607586 gnorm: 0.063640888149 xtb: 6.7.1 (edcfbbe)
C            1.43270000000000        0.13805000000000       -0.42841000000000
C            0.87192000000000       -0.98347000000000       -1.29001000000000
C            1.09579000000000       -2.37767000000000       -0.69761000000000
C            0.38046000000000       -2.64757000000000        0.62405000000000
N           -1.08647000000000       -2.76094000000000        0.41263000000000
C           -1.61171000000000       -3.94406000000000        0.01412000000000
C           -2.97890000000000       -4.08385000000000       -0.17801000000000
C           -3.81581000000000       -2.98983000000000        0.03691000000000
C           -3.26258000000000       -1.78303000000000        0.46021000000000
C           -1.88865000000000       -1.69597000000000        0.64923000000000
C           -5.27222000000000       -3.16808000000000       -0.18592000000000
O           -5.78792000000000       -4.26718000000000       -0.28645000000000
O           -5.87624000000000       -1.96419000000000       -0.30169000000000
C           -7.28896000000000       -2.00175000000000       -0.56995000000000
C           -7.54241000000000       -2.20060000000000       -2.05326000000000
H            0.90453000000000        0.21883000000000        0.52555000000000
H            1.32828000000000        1.09716000000000       -0.94582000000000
H            2.49600000000000       -0.02010000000000       -0.22197000000000
H           -0.19306000000000       -0.80962000000000       -1.47556000000000
H            1.36600000000000       -0.94349000000000       -2.26851000000000
H            0.78500000000000       -3.12140000000000       -1.44136000000000
H            2.17228000000000       -2.52264000000000       -0.54451000000000
H            0.71269000000000       -3.60176000000000        1.05024000000000
H            0.56661000000000       -1.87618000000000        1.37709000000000
H           -0.92635000000000       -4.77180000000000       -0.14946000000000
H           -3.38844000000000       -5.04117000000000       -0.49900000000000
H           -3.88738000000000       -0.91267000000000        0.65067000000000
H           -1.41912000000000       -0.77442000000000        0.98257000000000
H           -7.78087000000000       -2.77542000000000        0.03067000000000
H           -7.69786000000000       -1.03653000000000       -0.25378000000000
H           -7.16237000000000       -3.16969000000000       -2.39170000000000
H           -8.61259000000000       -2.15232000000000       -2.27332000000000
H           -7.02486000000000       -1.43402000000000       -2.63911000000000
33
 energy: -45.541979702691 gnorm: 0.024660702461 xtb: 6.7.1 (edcfbbe)
C            1.42754235180417        0.13775003793628       -0.42270181242740
C            0.86133403729222       -0.98380091301525       -1.28379463915970
C            1.08860426820386       -2.38062187379945       -0.70245817947823
C            0.36673507584222       -2.65416820163958        0.61642924160043
N           -1.08716245086205       -2.76494263486785        0.42675450486579
C           -1.60770776740012       -3.93401984070296        0.02013503642415
C           -2.96494466361937       -4.07582609161004       -0.18054603773063
C           -3.80689084121851       -2.98568805349051        0.03362561447734
C           -3.24714743133604       -1.78221544899928        0.45376829266707
C           -1.88070537631112       -1.70418954175572        0.64326979484623
C           -5.27548373636446       -3.15917235903329       -0.19954624156524
O           -5.78790045863839       -4.24285662927157       -0.28534800662451
O           -5.88905712359847       -1.97730736225548       -0.29204537228679
C           -7.29608294156943       -2.00160278142057       -0.57576657068980
C           -7.54291427675055       -2.20320876791802       -2.06070195478002
H            0.91141399774946        0.22571006071756        0.53227542066933
H            1.32752365483390        1.09015221000409       -0.93952328809241
H            2.48552390442952       -0.02452680833331       -0.22481058474258
H           -0.20422020131207       -0.81537743395464       -1.46568991368769
H            1.35630744097433       -0.95348657436799       -2.25761530471214
H            0.78168439259769       -3.13081565878207       -1.43675824463070
H            2.15925642915835       -2.51745201221685       -0.52940297753468
H            0.71604780060600       -3.60052180506570        1.03885853429265
H            0.56120182469393       -1.86585541423688        1.34544410414631
H           -0.92342147876879       -4.75624680092657       -0.13904888431775
H           -3.37785476106149       -5.02675149810059       -0.49228995201455
H           -3.86941930184047       -0.91808048788370        0.63996054895905
H           -1.41054864712191       -0.78934068266259        0.97610742291925
H           -7.76861379633133       -2.79468468924858        0.01266870380994
H           -7.67765408529234       -1.03150195710100       -0.24402237541252
H           -7.17440600942470       -3.17619236280638       -2.38600895372346
H           -8.60864987385288       -2.15104768545181       -2.26633852858174
H           -7.03489995551117       -1.42948993773970       -2.63634939748504
33
 energy: -45.542728921184 gnorm: 0.010010213947 xtb: 6.7.1 (edcfbbe)
C            1.42131830801112        0.13227534548359       -0.41858681886963
C            0.84685132036131       -0.98650458403059       -1.27975062667813
C            1.08156027558199       -2.38353460087050       -0.70372739201332
C            0.35969832147810       -2.65823529269404        0.61997635662480
N           -1.08121433102054       -2.76602351028020        0.43509949377935
C           -1.60143317597444       -3.92834161980823        0.02420557272714
C           -2.95448871126293       -4.07014444740192       -0.18344000200122
C           -3.79679970190500       -2.97875881515443        0.02628826494309
C           -3.23295283672870       -1.77658763610194        0.44495587136089
C           -1.86961179272099       -1.70603494219919        0.63948299757641
C           -5.27682699637195       -3.15364650447912       -0.19958383953617
O           -5.78333108555969       -4.23515867036166       -0.29301854961926
O           -5.89077382523901       -1.98567589597308       -0.28582561811436
C           -7.29742124267539       -2.00432778439485       -0.57830253451910
C           -7.54649116545537       -2.20229188518917       -2.06443599304006
H            0.91385669951974        0.22306858631519        0.53906699704851
H            1.32098368032767        1.08184264412155       -0.93516231835838
H            2.47804367052264       -0.03561752660677       -0.23010696812086
H           -0.22009579160933       -0.81956169861639       -1.45191648712905
H            1.33668996038541       -0.95445420640619       -2.25372317741217
H            0.77956167226635       -3.13439961225346       -1.43705611784876
H            2.14907386076514       -2.51257548509015       -0.51997129157480
H            0.71991078435722       -3.59964027295130        1.03962951763979
H            0.56373424618490       -1.85774941480772        1.33188672265054
H           -0.91837704309657       -4.75035394010657       -0.12854745833537
H           -3.37264168039227       -5.01524040327375       -0.49513965026645
H           -3.85483977930074       -0.91418471419837        0.62229979437357
H           -1.39845369269409       -0.79403885497514        0.97278052625406
H           -7.76496329048630       -2.80594023100174        0.00152504025040
H           -7.66241995252306       -1.03252057661284       -0.23991932899971
H           -7.18584896638142       -3.17749378587492       -2.38220273549170
H           -8.61188157074073       -2.14712595699825       -2.25973896342878
H           -7.04292616762314       -1.42840370720783       -2.63851128387130
33
 energy: -45.542886043208 gnorm: 0.004328382735 xtb: 6.7.1 (edcfbbe)
C            1.41615382958534        0.12868593414822       -0.41735199702969
C            0.83551482037768       -0.98960614612726       -1.27592628927541
C            1.07945269318706       -2.38600093166443       -0.70293842748408
C            0.36008489798857       -2.65970999750839        0.62562794506402
N           -1.07594130174587       -2.76655755746558        0.44146617187126
C           -1.59699634413964       -3.92849145622527        0.02971450617866
C           -2.94914214202893       -4.06866050792883       -0.18352493654471
C           -3.78984974915222       -2.97454050932036        0.01990773313252
C           -3.22589076636397       -1.77135813559194        0.43610616569027
C           -1.86312815938379       -1.70407009364845        0.63746058687526
C           -5.27241118894231       -3.15080610536614       -0.21297993483351
O           -5.77426464920255       -4.23624714604802       -0.30474506807683
O           -5.88783429796265       -1.98703293528188       -0.28923274969245
C           -7.29746636212773       -2.00502295060256       -0.57690526779685
C           -7.55077943862089       -2.20050380335670       -2.06330206368595
H            0.91509284657299        0.21936511540125        0.54377323691911
H            1.31357174130954        1.07870163518910       -0.93268890713557
H            2.47377426123932       -0.04208643839385       -0.23612162896590
H           -0.23337659228045       -0.82437923317003       -1.43783606410211
H            1.31642660356603       -0.95409496596303       -2.25396494056358
H            0.77815979692847       -3.13798778847997       -1.43494909319026
H            2.14711281349988       -2.50960980134807       -0.51986715946061
H            0.72543703761182       -3.59866075603904        1.04516272448485
H            0.57038464562683       -1.85498516926746        1.33060767950861
H           -0.91447165667173       -4.75217686867197       -0.11828275298774
H           -3.37051467919290       -5.01151481765215       -0.49726093227256
H           -3.84801139450784       -0.90735016485359        0.60478941473239
H           -1.39167070575588       -0.79199507952680        0.97113247966641
H           -7.76289033867576       -2.80957175316870       -0.00002860918180
H           -7.65859309990987       -1.03424479988916       -0.23480061858821
H           -7.19363347876254       -3.17608192153820       -2.38253285370243
H           -8.61745299077016       -2.14356048194064       -2.25264453229202
H           -7.04935665129599       -1.42722436870011       -2.63933381726115
33
 energy: -45.543018271874 gnorm: 0.004410428215 xtb: 6.7.1 (edcfbbe)
C            1.40770713453584        0.12406618714085       -0.41688144433615
C            0.81745997748701       -0.99447946362224       -1.26936803733765
C            1.07735332675552       -2.38909404872191       -0.70016642576498
C            0.36391474174350       -2.66250221590161        0.63551978042415
N           -1.06803368376243       -2.76812463366106        0.45148937441394
C           -1.59063885849354       -3.93078057983319        0.03945332565480
C           -2.94149428466721       -4.06628675103565       -0.18583374656865
C           -3.77888378775032       -2.96722262911610        0.00618634524452
C           -3.21543948475930       -1.76313544909996        0.42001908547073
C           -1.85369998266183       -1.70077547401706        0.63462952420294
C           -5.26384555504358       -3.14614666002062       -0.22941216371804
O           -5.75437611067745       -4.23786907422493       -0.33165494606693
O           -5.88232060139413       -1.98679927266862       -0.29537946217945
C           -7.29641302222234       -2.00621049431761       -0.57493669738932
C           -7.55922706282440       -2.19740724291833       -2.06061497480950
H            0.91759223441009        0.21375868809091        0.55045339263476
H            1.29956738787602        1.07517763059204       -0.92984542598560
H            2.46748590682033       -0.04847433833150       -0.24774060538608
H           -0.25512961021276       -0.83356015007242       -1.41289337286169
H            1.28098213853385       -0.95355894745423       -2.25599571466700
H            0.77569974809881       -3.14384792371733       -1.42895241823175
H            2.14651776791193       -2.50464482716320       -0.52275448290666
H            0.73463161407860       -3.59905971408418        1.05512705945888
H            0.58134952773866       -1.85461057452092        1.33415900815139
H           -0.90916450866604       -4.75784173028638       -0.09927032640632
H           -3.36742579554783       -5.00777979062651       -0.49897122728422
H           -3.83699013772160       -0.89559929924264        0.57598073018681
H           -1.38177613520341       -0.78837058991213        0.96889117779172
H           -7.75745623690090       -2.81330610818824        0.00101693527233
H           -7.65561685496500       -1.03768617318714       -0.22741700691383
H           -7.20626138393367       -3.17295753478797       -2.38484517523592
H           -8.62794788182299       -2.13789890375257       -2.24187791009995
H           -7.06063052675962       -1.42435191133754       -2.63958417475743
33
 energy: -45.543083847397 gnorm: 0.004935813286 xtb: 6.7.1 (edcfbbe)
C            1.40168302287614        0.12258551438962       -0.41808769434975
C            0.80632884968654       -0.99750220868845       -1.26473328118577
C            1.07651810980843       -2.39033397293921       -0.69684577803475
C            0.36815710941799       -2.66473337500850        0.64212520155261
N           -1.06377296312583       -2.76950960064473        0.45720063118851
C           -1.58717729531521       -3.93325167318439        0.04702181924337
C           -2.93709759464913       -4.06567021317946       -0.18518202302751
C           -3.77219894543066       -2.96314653425880       -0.00334492984109
C           -3.20890076264434       -1.75874363017552        0.40896830100203
C           -1.84810593593150       -1.69903379388083        0.63230411113163
C           -5.25626070855010       -3.14270465065826       -0.24556665067155
O           -5.74072812474265       -4.23677400915036       -0.35511242649445
O           -5.87817874949297       -1.98477011064805       -0.30135109812665
C           -7.29480719017725       -2.00710472704961       -0.57331664007024
C           -7.56544614792408       -2.19490317001989       -2.05773808614849
H            0.91910904012845        0.21136565876205        0.55332407755516
H            1.28806779846139        1.07384574172497       -0.93000260762969
H            2.46313455847951       -0.04827574872847       -0.25704992335930
H           -0.26853685406858       -0.84044283544255       -1.39640423001445
H            1.25772225332118       -0.95437040573525       -2.25717844643552
H            0.77464688769466       -3.14758863138970       -1.42309935714877
H            2.14718542789536       -2.50105743327366       -0.52469505303735
H            0.73962029587690       -3.60135746367505        1.06110279675457
H            0.58710359789616       -1.85743600330856        1.34062614764811
H           -0.90663501569856       -4.76253954008720       -0.08440875932078
H           -3.36465938542072       -5.00676464749151       -0.49826109519632
H           -3.82884825048390       -0.88832768414688        0.55698777871138
H           -1.37585652417998       -0.78694976839310        0.96767095219115
H           -7.75078489826610       -2.81617161576205        0.00386299777781
H           -7.65531354205316       -1.04057761122518       -0.22123190303716
H           -7.21417481416230       -3.16970732748871       -2.38697388049573
H           -8.63516899422609       -2.13452965696617       -2.23411305252240
H           -7.06913425499986       -1.42089887227650       -2.63796789860878
33
 energy: -45.543156524483 gnorm: 0.003544116682 xtb: 6.7.1 (edcfbbe)
C            1.39382050626209        0.12264540435306       -0.42069240413136
C            0.79390247025919       -1.00070260874764       -1.25904742184372
C            1.07583063320715       -2.39102153301095       -0.69159795810338
C            0.37380785325780       -2.66818494588726        0.64939656557359
N           -1.05977753008434       -2.77211985024378        0.46401037431327
C           -1.58392554117919       -3.93692167969406        0.05705561022590
C           -2.93244017563280       -4.06528513306491       -0.18414839616980
C           -3.76492652735049       -2.95868410420306       -0.01562611970709
C           -3.20097914954687       -1.75453312659748        0.39551752730842
C           -1.84168112246627       -1.69815209048409        0.62949723308319
C           -5.24702991744303       -3.13816184554974       -0.26488903974994
O           -5.72617791570992       -4.23273977634981       -0.38938655519396
O           -5.87340973343692       -1.98122884070196       -0.30764676553515
C           -7.29181615485447       -2.00837432865425       -0.57149642890167
C           -7.57254640221825       -2.19161036669839       -2.05394410088962
H            0.92102090032405        0.21020009038907        0.55567644849986
H            1.27157529901361        1.07320427618228       -0.93207993753702
H            2.45750066383835       -0.04368618621590       -0.27008212000082
H           -0.28317575897680       -0.84868272064266       -1.37806643130602
H            1.23190959107556       -0.95683816809953       -2.25742838745055
H            0.77477980252331       -3.15156578286201       -1.41502655395756
H            2.14832539007156       -2.49587617657705       -0.52539860339386
H            0.74447343453709       -3.60627621601350        1.06613393785186
H            0.59231561914541       -1.86346433293770        1.35085923130328
H           -0.90489032503201       -4.76877589877094       -0.06490273842161
H           -3.36114989864723       -5.00680151176486       -0.49488077919562
H           -3.81790126290695       -0.88054854240067        0.53498443158648
H           -1.36876300646028       -0.78684660154939        0.96586295188155
H           -7.74028280971339       -2.82056929460844        0.00752061002481
H           -7.65508378239846       -1.04459732040924       -0.21312455670488
H           -7.22273735231832       -3.16500214693051       -2.38981563833180
H           -8.64320782514289       -2.13095535661770       -2.22405558668797
H           -7.07986997199658       -1.41522328463689       -2.63464839843905
33
 energy: -45.543213306665 gnorm: 0.002230057865 xtb: 6.7.1 (edcfbbe)
C            1.38491030696835        0.12432435352329       -0.42422816290307
C            0.78142218903834       -1.00355074557683       -1.25338066092489
C            1.07494888824687       -2.39101280547117       -0.68505160946833
C            0.37919987426238       -2.67238415294147        0.65686398346482
N           -1.05609190028515       -2.77606550425661        0.47167365967893
C           -1.58074552060334       -3.94183319101919        0.06918587126902
C           -2.92763170810363       -4.06655482342404       -0.18126844272421
C           -3.75771496550348       -2.95577690260649       -0.02788283913010
C           -3.19263205177288       -1.75171692837127        0.38141882042036
C           -1.83508089024583       -1.69869248621996        0.62603284012338
C           -5.23729701833298       -3.13380448588775       -0.28729504486046
O           -5.71400963747018       -4.22677860604746       -0.43048774438475
O           -5.86816099349012       -1.97783802980906       -0.31346136928628
C           -7.28754864426515       -2.00950974589762       -0.56932977903206
C           -7.57958515049573       -2.18682550000568       -2.04981599992820
H            0.92384612907614        0.21013918366279        0.55788391490309
H            1.25099672118241        1.07342629512412       -0.93536701640413
H            2.45132945824499       -0.03524973728279       -0.28634349371856
H           -0.29750574838991       -0.85673005551886       -1.36107577919499
H            1.20759754339921       -0.96044846785608       -2.25660670125737
H            0.77661835427948       -3.15488222474779       -1.40631574481385
H            2.14897418635173       -2.48882941572389       -0.52321813860359
H            0.74936938956792       -3.61237149550468        1.07002506910610
H            0.59649626553583       -1.87060936924519        1.36236331747925
H           -0.90359144420491       -4.77641549565055       -0.04208870631875
H           -3.35694752690800       -5.00865912893297       -0.48915911062310
H           -3.80619890776997       -0.87398386120060        0.51113702878791
H           -1.36154490598632       -0.78803116220109        0.96254419108342
H           -7.72787945850382       -2.82611516614472        0.01019088030256
H           -7.65297125622092       -1.04886830790371       -0.20327276661720
H           -7.23161226732961       -3.15837595622906       -2.39307010720171
H           -8.65140168996340       -2.12626830238347       -2.21152436892292
H           -7.09206762030873       -1.40708777825003       -2.63054599030063
33
 energy: -45.543247879992 gnorm: 0.001881672762 xtb: 6.7.1 (edcfbbe)
C            1.37724823477494        0.12703255225400       -0.42762633286134
C            0.77237913251137       -1.00544864639162       -1.24934762546113
C            1.07448492608190       -2.39048596836746       -0.67924851640521
C            0.38243872581687       -2.67573180730796        0.66277367188820
N           -1.05346758618914       -2.78025518713346        0.47822582016703
C           -1.57838115473385       -3.94698883996373        0.08028349182328
C           -2.92392342302234       -4.06963714796596       -0.17765799599122
C           -3.75231983580054       -2.95579038882263       -0.03679780289942
C           -3.18643070937914       -1.75126884588282        0.37007258203161
C           -1.83034683391058       -1.70040447576897        0.62255518225181
C           -5.22989488213978       -3.13158909873256       -0.30531513013425
O           -5.70656738207731       -4.22188728138735       -0.46749486283686
O           -5.86367331348574       -1.97646513795916       -0.31636652959443
C           -7.28322592170378       -2.01006610770545       -0.56713003477313
C           -7.58456666493445       -2.18108139028620       -2.04646371173207
H            0.92696057538928        0.21025504908564        0.55961336868360
H            1.23124572192445        1.07469207018931       -0.93809526646959
H            2.44617631789010       -0.02523432569090       -0.30168835874341
H           -0.30759083331986       -0.86262398864506       -1.35034076179967
H            1.19155977731340       -0.96392137639446       -2.25519251694075
H            0.78009607415607       -3.15685420351607       -1.39955007975840
H            2.14926895964988       -2.48165736321577       -0.51867411237823
H            0.75355161862397       -3.61678174089192        1.07263389238428
H            0.59875518537629       -1.87585495688012        1.37111202488866
H           -0.90290373030611       -4.78386228074071       -0.02191361977560
H           -3.35346971613140       -5.01246123733046       -0.48259937444694
H           -3.79786758415277       -0.87100700628700        0.49131389392338
H           -1.35665195083747       -0.78960862722821        0.95794252276069
H           -7.71834133480934       -2.83078246066088        0.01062306415556
H           -7.64890997653949       -1.05205271422268       -0.19417372893819
H           -7.23851490791352       -3.15081741053738       -2.39623991372415
H           -8.65751363354776       -2.12067229836218       -2.19993016230216
H           -7.10211387457463       -1.39806735724967       -2.62677307699231
33
 energy: -45.543278520500 gnorm: 0.001945671480 xtb: 6.7.1 (edcfbbe)
C            1.36756193856324        0.13199337280793       -0.43235233349388
C            0.76408378085139       -1.00718540485369       -1.24592963186376
C            1.07502049435521       -2.38888107978396       -0.67167225114007
C            0.38440094095738       -2.67888040632291        0.66969405759447
N           -1.05095428441830       -2.78623372512921        0.48535170694979
C           -1.57585806767163       -3.95508777264173        0.09506940776697
C           -2.91992001991801       -4.07727527137962       -0.17085159028755
C           -3.74680452954163       -2.96036413059060       -0.04578212243742
C           -3.18079808858191       -1.75403118561892        0.35623934015404
C           -1.82643017910688       -1.70404966110793        0.61655363867788
C           -5.22174105900521       -3.13207275922254       -0.32717133093513
O           -5.70020082783787       -4.21749490037543       -0.51538199747139
O           -5.85806697007049       -1.97787799849662       -0.31688623473264
C           -7.27729236224673       -2.01029223442777       -0.56330059512086
C           -7.58910021269955       -2.17033299598455       -2.04215105760849
H            0.93177444114421        0.20937573893819        0.56168349935889
H            1.20254748264039        1.07783495588433       -0.94052150661296
H            2.43996281861205       -0.00785712808354       -0.32298913679297
H           -0.31665461872853       -0.86924121801567       -1.34313418372265
H            1.17907756321108       -0.96851395034029       -2.25321325180410
H            0.78774760078611       -3.15824395226394       -1.39161966628484
H            2.15001281424851       -2.47114553230440       -0.50901863635089
H            0.75855097768021       -3.62007942048423        1.07613486637070
H            0.59900336260379       -1.88015832963139        1.38025500113043
H           -0.90229181696736       -4.79469406814067        0.00447745978420
H           -3.34915231860747       -5.02150676485729       -0.47142414245223
H           -3.79117860632230       -0.87185368103581        0.46660208463851
H           -1.35336968553578       -0.79177708636019        0.94856920485655
H           -7.70919664547063       -2.83645735015842        0.00887826796412
H           -7.64104096056834       -1.05553394810167       -0.18081767668704
H           -7.24546140722042       -3.13709326183025       -2.40141203604458
H           -8.66346918333661       -2.11011395277283       -2.18483701007896
H           -7.11327237179843       -1.38225489731418       -2.62051214332460
33
 energy: -45.543298088805 gnorm: 0.001302766124 xtb: 6.7.1 (edcfbbe)
C            1.36429773543811        0.13452027098607       -0.43401361525968
C            0.76517645000008       -1.00762262722555       -1.24672644051706
C            1.07708009015056       -2.38780742797336       -0.66923802876688
C            0.38297425523946       -2.67803690361654        0.67119279566618
N           -1.05103577650188       -2.78793896572342        0.48534172364821
C           -1.57541879287069       -3.95857655883991        0.09933192973567
C           -2.91931168950851       -4.08290238837565       -0.16753861357216
C           -3.74660433005551       -2.96609818362209       -0.04705314996246
C           -3.18181981920024       -1.75797361565732        0.35181888865411
C           -1.82776210290914       -1.70600971082909        0.61253711473905
C           -5.22091900902243       -3.13630951795743       -0.33144338932193
O           -5.69968754148104       -4.21962811284384       -0.52921303479267
O           -5.85707465253501       -1.98233628640892       -0.31288781552594
C           -7.27591851470148       -2.01056238405403       -0.56072888768685
C           -7.58823231194650       -2.16284679374317       -2.04057294460049
H            0.93314489505550        0.20709024205043        0.56214696928236
H            1.18996370323275        1.07993107490741       -0.93957970348406
H            2.43789335356822        0.00212711428662       -0.33035427086482
H           -0.31552682479582       -0.87171117951989       -1.34773414166673
H            1.18351598537126       -0.97017780058688       -2.25284909520366
H            0.79383508460945       -3.15853998489467       -1.38918858787976
H            2.15149411367335       -2.46720241900068       -0.50233959332723
H            0.75925718957639       -3.61786775327378        1.07853169578635
H            0.59593655646624       -1.87804707921231        1.38072727259571
H           -0.90175649406944       -4.79851749532028        0.01244604271397
H           -3.34774504218522       -5.02843476250394       -0.46529933570612
H           -3.79377224660102       -0.87662542559878        0.45902265216224
H           -1.35576949672842       -0.79195349986618        0.94148678291356
H           -7.71056669661148       -2.83865235820914        0.00642195371694
H           -7.63726128788582       -1.05690092536852       -0.17396649530866
H           -7.24460850041424       -3.12759104856757       -2.40485889842356
H           -8.66272168193719       -2.10250576451498       -2.18146368081079
H           -7.11356660042080       -1.37167172892232       -2.61542609893326
33
 energy: -45.543320749389 gnorm: 0.001638346333 xtb: 6.7.1 (edcfbbe)
C            1.35883192179397        0.13787064639317       -0.43665463560891
C            0.76786149633594       -1.00919964910088       -1.24861329587756
C            1.08135592692742       -2.38646405759136       -0.66510739284262
C            0.38076894495726       -2.67537789999025        0.67356268649164
N           -1.05154742326803       -2.78937935012217        0.48376818389080
C           -1.57432837420994       -3.96328647154623        0.10477484142542
C           -2.91810555786364       -4.09174096173941       -0.16248901447381
C           -3.74705504767917       -2.97562472704589       -0.04897165158034
C           -3.18474970013667       -1.76425898487718        0.34429296087297
C           -1.83098931839425       -1.70811623913759        0.60499452961600