54
 energy: -94.068861155699 gnorm: 0.118753760488 xtb: 6.7.1 (edcfbbe)
C            0.97903000000000        0.21854000000000       -0.22925000000000
C            0.43298000000000       -0.50543000000000        0.98575000000000
O            1.14434000000000       -0.09485000000000        2.16629000000000
C            2.28712000000000       -0.78788000000000        2.43226000000000
O            2.73851000000000       -1.69241000000000        1.74183000000000
C            2.91047000000000       -0.36512000000000        3.75190000000000
N            2.48345000000000        0.97316000000000        4.23488000000000
C            3.09884000000000        2.13005000000000        3.90454000000000
C            4.22333000000000        2.27072000000000        2.89808000000000
C            5.25370000000000        3.19292000000000        2.90604000000000
C            6.04621000000000        2.93417000000000        1.75985000000000
C            5.43308000000000        1.89839000000000        1.09264000000000
O            4.35961000000000        1.45589000000000        1.80549000000000
C            5.67697000000000        1.23871000000000       -0.17489000000000
C            4.71084000000000        1.30049000000000       -1.18922000000000
C            4.95394000000000        0.72127000000000       -2.43707000000000
C            6.16316000000000        0.07166000000000       -2.67210000000000
C            7.13021000000000       -0.00160000000000       -1.67074000000000
C            6.89024000000000        0.58681000000000       -0.42456000000000
Cl           6.46730000000000       -0.63394000000000       -4.21010000000000
N            2.51656000000000        3.11131000000000        4.63479000000000
C            1.49039000000000        2.58028000000000        5.41076000000000
C            1.45531000000000        1.21191000000000        5.13539000000000
C            0.52810000000000        0.36061000000000        5.72751000000000
C           -0.37310000000000        0.96208000000000        6.62573000000000
C           -0.34339000000000        2.33902000000000        6.91178000000000
C            0.59986000000000        3.18054000000000        6.30225000000000
S           -1.55116000000000       -0.14245000000000        7.38058000000000
O           -2.32004000000000       -0.67557000000000        6.27443000000000
O           -0.75641000000000       -0.99915000000000        8.23614000000000
C           -2.63607000000000        0.81550000000000        8.39962000000000
C            2.82512000000000        4.53436000000000        4.52159000000000
H            0.94189000000000        1.30254000000000       -0.08026000000000
H            0.40509000000000       -0.03667000000000       -1.12433000000000
H            2.02671000000000       -0.04493000000000       -0.40107000000000
H           -0.61760000000000       -0.23736000000000        1.13649000000000
H            0.47163000000000       -1.59335000000000        0.85590000000000
H            2.64617000000000       -1.11150000000000        4.50797000000000
H            4.00016000000000       -0.36528000000000        3.65259000000000
H            5.45061000000000        3.94880000000000        3.65268000000000
H            6.93271000000000        3.46343000000000        1.43355000000000
H            3.76963000000000        1.81938000000000       -1.02264000000000
H            4.20320000000000        0.78691000000000       -3.22058000000000
H            8.07315000000000       -0.51022000000000       -1.85647000000000
H            7.65722000000000        0.52593000000000        0.34425000000000
H            0.49682000000000       -0.70139000000000        5.50916000000000
H           -1.04599000000000        2.78821000000000        7.61070000000000
H            0.63145000000000        4.24231000000000        6.51665000000000
H           -2.05833000000000        1.29941000000000        9.18916000000000
H           -3.15810000000000        1.54909000000000        7.78262000000000
H           -3.36295000000000        0.13426000000000        8.84818000000000
H            3.71627000000000        4.75163000000000        5.11533000000000
H            2.98841000000000        4.79693000000000        3.47330000000000
H            1.99461000000000        5.14300000000000        4.88681000000000
54
 energy: -94.083718131136 gnorm: 0.051790984250 xtb: 6.7.1 (edcfbbe)
C            0.98765175698350        0.22278003415785       -0.23391211289467
C            0.43465449494992       -0.49702756845956        0.98238572254676
O            1.14620304583356       -0.11240906349544        2.16917455496417
C            2.27298399386555       -0.79268762634874        2.43187010696491
O            2.72890883589933       -1.66803276521833        1.75291875477568
C            2.90973915398953       -0.35702385225138        3.74582977212518
N            2.49154814078065        0.96072600553071        4.21113409167137
C            3.09902459951220        2.12448999262983        3.88927446731665
C            4.19786234123992        2.27934228371149        2.92530253199484
C            5.23797265726243        3.19026792775388        2.92025601489490
C            6.01443004051153        2.91993140900691        1.77642121794934
C            5.39953051157963        1.87819613237114        1.12113390593285
O            4.30582184038553        1.47786187486066        1.82470447011887
C            5.66689012850353        1.23329067667916       -0.16526534246174
C            4.70792200548028        1.29068803750033       -1.17962184987831
C            4.95258887327099        0.72260188026492       -2.41922086421126
C            6.16002415920552        0.07767460901955       -2.65540381567134
C            7.12348626676985        0.00909824305321       -1.65643625161770
C            6.88305712483148        0.59579032880886       -0.42292880323521
Cl           6.46578367109547       -0.62813656468559       -4.19353262777580
N            2.52420318128558        3.11740751199721        4.60646853985318
C            1.50665675838349        2.58549960054671        5.38371552521636
C            1.47416978548329        1.20727065777122        5.11863761606674
C            0.54084495934934        0.37449932898659        5.72651614751538
C           -0.35094437642322        0.97182117558784        6.60981235575273
C           -0.31247516315106        2.33838262694614        6.88721026175186
C            0.61843466211428        3.17350731236376        6.28093340916813
S           -1.54075122217391       -0.14707189230118        7.37093560717706
O           -2.30328688325886       -0.68614450053894        6.27210677036723
O           -0.75231800666356       -1.00619465673459        8.21879064304351
C           -2.63320594191378        0.82322483188261        8.39861203778278
C            2.83481346060416        4.52949974565309        4.51273972679664
H            0.93705179149159        1.30179688210592       -0.08497621243215
H            0.40757071683644       -0.03779853210283       -1.11578612136642
H            2.02737919537873       -0.05764807857062       -0.40416816811050
H           -0.60950912966474       -0.22351942977518        1.16004734983208
H            0.49646515721856       -1.58288279494135        0.85738309646129
H            2.64253980025370       -1.09675496368416        4.50665208798965
H            3.99723472172234       -0.36355492422369        3.63506343682548
H            5.44781653128125        3.94386942031380        3.65380770689874
H            6.89650539457752        3.44073618948870        1.44981489549296
H            3.77335386215486        1.80870201975054       -1.01348928370053
H            4.20953879357769        0.78670760502429       -3.20168394484779
H            8.05985718723291       -0.49788848316243       -1.84332222538634
H            7.64199570667676        0.53451841697942        0.34462825159577
H            0.48453642557229       -0.68348963476880        5.52257275452393
H           -1.01579780799887        2.77505681576570        7.58273390316482
H            0.64085612566394        4.22896907765465        6.50463499523650
H           -2.06091207013158        1.29840108213348        9.18932763290799
H           -3.15850955328799        1.54803638581766        7.78442825371668
H           -3.35096911345561        0.13525381538443        8.83830599847017
H            3.71681557766210        4.76032291428169        5.11066042747345
H            3.00926440321973        4.79618228158661        3.47091269977653
H            1.99595142843227        5.11698019789214        4.88406988147658
54
 energy: -94.088185283685 gnorm: 0.017740166859 xtb: 6.7.1 (edcfbbe)
C            0.99135608952734        0.22737311814319       -0.23502472612656
C            0.43576113067876       -0.49056085358086        0.98339676788394
O            1.15410507781139       -0.12227409856672        2.17324121461865
C            2.27069551906700       -0.79239847987599        2.41950327920962
O            2.72993115284460       -1.66261216811550        1.75005472046113
C            2.91023746263197       -0.34663775645807        3.74090518943561
N            2.50118521595967        0.95340263535147        4.19153887945148
C            3.09921512699575        2.12237951698480        3.87398437324273
C            4.17087233398209        2.28894649182804        2.94401001366075
C            5.22221694869154        3.19004631927174        2.92966070231576
C            5.98709426862250        2.89910198152707        1.79246231409346
C            5.35688113197282        1.86004917199493        1.14454109225083
O            4.26744375864770        1.47908320582095        1.85169763666485
C            5.64529703972997        1.22704614453071       -0.14912215308084
C            4.69057917646371        1.27789178913392       -1.16385440241371
C            4.94344601389442        0.72231800007880       -2.40069060635629
C            6.15495012126843        0.08615062638578       -2.63547919553850
C            7.11610928175294        0.02596961294628       -1.63490304072592
C            6.86805700286108        0.60567515702037       -0.40669825245796
Cl           6.46617264889569       -0.62163250465554       -4.17197949110548
N            2.53011316261355        3.12406565381122        4.58017134218748
C            1.52270101912420        2.59168449531034        5.35914300767531
C            1.49072056593857        1.20719136423367        5.09916843560538
C            0.55293511348979        0.38791900382652        5.71706846047920
C           -0.32955143706927        0.98316679423246        6.59322973737561
C           -0.28716249266860        2.34495930898350        6.86636265318160
C            0.63675961016965        3.17313646464409        6.25933076332550
S           -1.52717087720327       -0.15437875098852        7.35851444623397
O           -2.28035404928358       -0.70122460221085        6.26666719529340
O           -0.74378659786648       -1.01766984093243        8.19461030350561
C           -2.62729150751284        0.82837053201168        8.39510373578087
C            2.84404046738034        4.52601806550911        4.50086594150860
H            0.93946371471427        1.30408314435860       -0.09240321926913
H            0.40545081996312       -0.03982577067928       -1.10767401361344
H            2.02426408327766       -0.06805115912656       -0.40400896326913
H           -0.60042501902915       -0.20838740010209        1.18099689631285
H            0.50956436231500       -1.57452027709053        0.85600208541973
H            2.63765508314956       -1.08364685362546        4.50252706866983
H            3.99571786231609       -0.37072412582825        3.61461685256591
H            5.44730889840670        3.93979085913252        3.65773996190986
H            6.87276561491150        3.40489705482091        1.46818458339886
H            3.75574890424096        1.78801840737764       -0.99424854004575
H            4.20744635411388        0.78241112418405       -3.18542895192667
H            8.05204418883870       -0.47422468416081       -1.82315030209837
H            7.62258032604477        0.55453416174223        0.36191138477321
H            0.48039363788690       -0.67055738472201        5.53124399221907
H           -0.98966687492932        2.77108956185371        7.56302845625141
H            0.65441638410836        4.22552310434740        6.48693664379678
H           -2.05623207124256        1.29609777557779        9.18633042801077
H           -3.15393327821361        1.54671545865453        7.78059362057523
H           -3.33648189922100        0.12947330954846        8.82525382621152
H            3.71560366269174        4.76654145840124        5.11008585191909
H            3.03833382899000        4.80194260745253        3.46557888984733
H            1.99568193725517        5.09738322968692        4.87058311070502
54
 energy: -94.088969657838 gnorm: 0.009982266165 xtb: 6.7.1 (edcfbbe)
C            0.99115197566496        0.22889688020595       -0.23598874363490
C            0.43358104527825       -0.48503543118700        0.98410305084478
O            1.15701626771180       -0.12178448358435        2.17425358011588
C            2.27077014607713       -0.79286783342695        2.41498276504878
O            2.74146527548539       -1.65757666733871        1.74042507174660
C            2.91305341428430       -0.34301826342785        3.73937433668244
N            2.50259892332270        0.95504888952017        4.18685463131693
C            3.09781820822667        2.12533570356293        3.87247504891042
C            4.16643947017708        2.29383130976763        2.94607363641224
C            5.22338873280122        3.18934183632188        2.93025399796084
C            5.98252274713459        2.88769612620896        1.79443131608998
C            5.34101489526296        1.85061257706263        1.15178957013034
O            4.25332779942297        1.48012071665896        1.85637087367203
C            5.62910856861508        1.21977945022528       -0.13794139817200
C            4.67129465034761        1.26277727863571       -1.15000899782014
C            4.93156946085328        0.71337444390918       -2.38831256681535
C            6.15032619701738        0.08893776734386       -2.62156244883331
C            7.11267226665332        0.03719907663114       -1.62050776903452
C            6.85830598174897        0.61221387494220       -0.39170754177067
Cl           6.46957190346945       -0.61525811137125       -4.15754855155544
N            2.52888974026071        3.12876716037780        4.57445621456673
C            1.52382208637473        2.59583870360034        5.35147761290750
C            1.49352314824097        1.21064597000710        5.09225530774991
C            0.55821420392256        0.39193287770570        5.71097734713266
C           -0.32223002403734        0.98895331300123        6.58745431862643
C           -0.28230560354809        2.35179193720951        6.86111854273765
C            0.63974484680368        3.17908006266268        6.25026711828893
S           -1.51703925619543       -0.16021291741789        7.34999306204532
O           -2.26353842858314       -0.71157801679234        6.25845042427803
O           -0.73276902250665       -1.02610216519304        8.17910400419246
C           -2.62119785568305        0.82344909843289        8.38967158621930
C            2.84765001337517        4.52814946809177        4.49591333287936
H            0.94521142225194        1.30641071352702       -0.09822221288851
H            0.40177727463663       -0.03978608516695       -1.10636512857690
H            2.02190653834771       -0.07386087604702       -0.40551687742606
H           -0.59883590922680       -0.19623327163579        1.18663701791533
H            0.50371761178960       -1.56849231606698        0.85479241342805
H            2.63907825473677       -1.08112945735620        4.49909002462716
H            3.99798461298321       -0.37361134221224        3.60695652997673
H            5.45301356262485        3.93852745650366        3.65815933682261
H            6.87253317735331        3.38373142360172        1.46861630785134
H            3.73048819084146        1.76161106030826       -0.97557860619416
H            4.19711231039433        0.76884389122632       -3.17504524119339
H            8.05417358459486       -0.45238450080579       -1.80951264305211
H            7.61081116569082        0.57089239518499        0.38017731095453
H            0.48346972567177       -0.66736964258584        5.52988139801679
H           -0.98323789887149        2.77605310767863        7.55984901801480
H            0.66021199196333        4.23211171570446        6.47547399698421
H           -2.04923570938349        1.28975291474278        9.18090368109733
H           -3.14707189093939        1.54127711602354        7.77409781920299
H           -3.32776509236043        0.11971913263721        8.81613448832857
H            3.71136038471004        4.76966235188071        5.11733611437527
H            3.06047846865019        4.80486943102900        3.46339618330470
H            1.99431644556177        5.10018414948180        4.85197033551161
54
 energy: -94.089599707817 gnorm: 0.007988128510 xtb: 6.7.1 (edcfbbe)
C            0.98795920077350        0.22913001156180       -0.23828526352544
C            0.42816329297932       -0.47642436308718        0.98557754557483
O            1.16055296775721       -0.11524888156016        2.17330262147000
C            2.27763656238479       -0.78003966450209        2.40371421934143
O            2.75644779518111       -1.64267277079776        1.72834001349823
C            2.91731370602855       -0.33550930176594        3.73711137623613
N            2.50421147770042        0.96251338656237        4.18352872474224
C            3.09712441882243        2.13415433627662        3.87421692330043
C            4.16620963715832        2.30254073900041        2.94706315914061
C            5.23313959280337        3.18666523939808        2.93009327935616
C            5.98553568589777        2.87064932581377        1.79499345778834
C            5.32527813936580        1.83910431482322        1.15860220648816
O            4.23975966186487        1.48439533569460        1.86041576828586
C            5.60769105961946        1.20889114960031       -0.12455737973965
C            4.64138289359011        1.23244385197282       -1.12976204205895
C            4.91154911017279        0.68960357342697       -2.36956817015463
C            6.14405593561206        0.08981144123613       -2.60298350285866
C            7.11066023104712        0.05447740356775       -1.60400919104864
C            6.84835185552443        0.62554541234526       -0.37483939698824
Cl           6.47627569096815       -0.60589955994864       -4.13913366322462
N            2.52551532235711        3.13775177391532        4.57149197203460
C            1.52149312307658        2.60321108710692        5.34541718010331
C            1.49461316176279        1.21838347826483        5.08547844051662
C            0.56358069171348        0.39775680507733        5.70372032376658
C           -0.31561811781277        0.99690570994176        6.58187709866992
C           -0.28165947388849        2.36081718571771        6.85714884337079
C            0.63878515274841        3.18892215157012        6.24217630687691
S           -1.50194165200853       -0.16940610688427        7.33776483416548
O           -2.23753835848964       -0.72775242136663        6.24419981109532
O           -0.71382589971244       -1.03950044114135        8.15621376916613
C           -2.61312774016385        0.80896956416264        8.38134388612678
C            2.85119136121797        4.53490150904831        4.49139098965080
H            0.95321819355665        1.30833792904928       -0.10739699291631
H            0.39377319891721       -0.03946295167508       -1.10634400066382
H            2.01583488633341       -0.08373554801462       -0.40932111551747
H           -0.59965558859952       -0.17762170636038        1.19273373528548
H            0.48896040813605       -1.56005950957786        0.85643609851133
H            2.63839804938645       -1.07581717672188        4.49260068112133
H            4.00162418884914       -0.37193430121902        3.60389740690103
H            5.46760924792246        3.93480408278558        3.65847207861516
H            6.88260133410460        3.35139040363935        1.46494951548378
H            3.69022162223953        1.71103147622877       -0.94732049623385
H            4.17610072581996        0.73279127167749       -3.15697283594291
H            8.06171500029512       -0.41712955420627       -1.79464325893628
H            7.59808893263022        0.60028866838095        0.40156141200654
H            0.48840349402811       -0.66232801124503        5.52647528566102
H           -0.98146054920330        2.78344310275251        7.55797494199807
H            0.66252230689998        4.24373047118093        6.46134923209948
H           -2.03942484144699        1.27433493297137        9.17198601394655
H           -3.13656353606768        1.52735547553379        7.76415793950064
H           -3.31766612383844        0.10107667938119        8.80401079400208
H            3.70046844120409        4.77635098082673        5.13464150115834
H            3.09559121850377        4.80533352463822        3.46270624356807
H            1.99013290427741        5.11384848494170        4.81818167918509
54
 energy: -94.089953830432 gnorm: 0.009286713121 xtb: 6.7.1 (edcfbbe)
C            0.98444982486830        0.22782847607846       -0.24181752636478
C            0.42300914845210       -0.46740990509519        0.98679562143256
O            1.16062940944840       -0.10668159224928        2.17249343957563
C            2.27991184398636       -0.76804077862945        2.39809755917505
O            2.76705644384563       -1.62244600679539        1.71729813466776
C            2.92005368780401       -0.32527434686300        3.73440075263605
N            2.50600316254614        0.97305756447003        4.18296941441530
C            3.09759434574642        2.14571914010981        3.87692284738662
C            4.16752418630069        2.31157855986920        2.94865442105319
C            5.24513894068656        3.18275864988499        2.93162948921074
C            5.99352245862708        2.85644940244388        1.79678828244814
C            5.31815122370344        1.83179537206915        1.16277408525588
O            4.23032594659053        1.49214154357715        1.86268042607037
C            5.59507006184168        1.19976456942563       -0.11698612175501
C            4.62030921494710        1.20111437897083       -1.11499582927858
C            4.89548917510538        0.66050130589950       -2.35466775363917
C            6.14012595213767        0.08603860585377       -2.59182254691471
C            7.11267387941143        0.06869995208425       -1.59767752972773
C            6.84572055337686        0.63843762017276       -0.36896296907065
Cl           6.48140102716001       -0.60121572278397       -4.12914022769096
N            2.52277152357706        3.14790675500581        4.57222966875409
C            1.51796722810690        2.61132614946719        5.34411615182808
C            1.49489294381593        1.22703274443544        5.08331207967057
C            0.56661549826132        0.40368665590774        5.70049203446452
C           -0.31326948902875        1.00234892291550        6.57945032630583
C           -0.28497453781988        2.36618609823699        6.85558737435032
C            0.63397031023417        3.19678564133937        6.23950855066961
S           -1.49028520634237       -0.17700663269414        7.32875330661298
O           -2.21692089121142       -0.74084671269021        6.23198070164572
O           -0.69711697903899       -1.04997780087040        8.13908126386448
C           -2.60824867055300        0.79128171902499        8.37516798369419
C            2.85269998401193        4.54412708523395        4.49020120029736
H            0.95982155312789        1.30825135469077       -0.11583469665013
H            0.38574562817709       -0.03909056212539       -1.10766922069528
H            2.00934707331222       -0.09457134620697       -0.41449619793562
H           -0.60156453784443       -0.15928478696128        1.19565348496874
H            0.47322125645498       -1.55214312266024        0.86222213420863
H            2.63789119498043       -1.06684253464115        4.48700916007513
H            4.00426021348204       -0.36219790145716        3.60387842039757
H            5.48449580940312        3.92886300695924        3.66088153929658
H            6.89653188124302        3.32422504644614        1.46349372178632
H            3.66087446541641        1.66125128820889       -0.92612364208582
H            4.15552609753350        0.68711019998230       -3.13917530970364
H            8.07167522546498       -0.38614248972241       -1.79119736404483
H            7.59592108310655        0.62985486855261        0.40767067480213
H            0.49227623513496       -0.65645971168269        5.52386445789767
H           -0.98543159091254        2.78752912742363        7.55676273209321
H            0.65781226270751        4.25272512020956        6.45437340727749
H           -2.03388561826209        1.25641689020727        9.16552325520957
H           -3.12989584852767        1.51049724482143        7.75736666561539
H           -3.31207726209904        0.08182521716501        8.79576415946949
H            3.68735393027146        4.78685365052967        5.15279055332843
H            3.12397082914567        4.80465195383569        3.46521552174325
H            1.98512791808589        5.13013007261785        4.78889193190253
54
 energy: -94.090401682274 gnorm: 0.008307029177 xtb: 6.7.1 (edcfbbe)
C            0.97820256540777        0.22387682452598       -0.24606218380242
C            0.41480006576356       -0.45482530832812        0.99044269491201
O            1.15868054582197       -0.09134585700919        2.17174941348829
C            2.28489667205192       -0.74407922810744        2.38956191799863
O            2.77675400303829       -1.59042029398480        1.70351659966712
C            2.92201065998294       -0.30822225799482        3.73011255750074
N            2.50794771026745        0.99016785445267        4.18305526963585
C            3.09797109132955        2.16423992079669        3.87992969329927
C            4.16883706663254        2.32518648868056        2.95023739865307
C            5.26230335835282        3.17652219740094        2.93520447248264
C            6.00732298255476        2.83787348668613        1.80153155868734
C            5.31344117367151        1.82530880573746        1.16606908056320
O            4.21820320857231        1.50644078168525        1.86306853809380
C            5.58463219541773        1.18854854702491       -0.11097320345955
C            4.59898468198634        1.15549712841837       -1.09883086535626
C            4.87767503575626        0.61464898167865       -2.33723741424015
C            6.13732640390421        0.07601762913442       -2.58252937422737
C            7.11922811252423        0.08711888408290       -1.59704353927050
C            6.84796192942848        0.65715507710935       -0.36975051601522
Cl           6.48773131352324       -0.60076580228637       -4.12186946620733
N            2.51946080218895        3.16356974299753        4.57532479611264
C            1.51318625220234        2.62375890988897        5.34550516720913
C            1.49458076459307        1.24027304647966        5.08246833524904
C            0.56942255178448        0.41269060893871        5.69821452468879
C           -0.31260291371969        1.00796811326007        6.57802854291151
C           -0.29103208841135        2.37108636920682        6.85511834799568
C            0.62583191557433        3.20620253520814        6.24003788312613
S           -1.47666071086317       -0.18650825926113        7.31793438952362
O           -2.19242051984371       -0.75608352820248        6.21576452508381
O           -0.67575647037267       -1.06243651441900        8.11883996172215
C           -2.60397630212941        0.76385128626191        8.36779674952562
C            2.85293938736935        4.55944135171717        4.49138328265537
H            0.96781581941060        1.30571272081167       -0.12686131451835
H            0.37225442749141       -0.04036620161245       -1.10778100887798
H            1.99819091709673       -0.11264163395855       -0.42186553639244
H           -0.60616756012346       -0.13446656482394        1.20000052670918
H            0.45138088328389       -1.54156614346329        0.87549371959621
H            2.63446825234939       -1.05133590826062        4.47897707965439
H            4.00658002721616       -0.34448974328770        3.60613956969522
H            5.51000383857061        3.91798278500193        3.66673833645316
H            6.91880500424586        3.28825502382579        1.46672728399768
H            3.62985507891611        1.59133971065179       -0.90278455219427
H            4.12942680792180        0.61471846228396       -3.11518049262982
H            8.08815917906590       -0.34437232325282       -1.79575567567449
H            7.60173665632956        0.67258790215028        0.40335114020414
H            0.49767102312574       -0.64727788370712        5.52079238038218
H           -0.99348689434100        2.79061603119168        7.55581041212070
H            0.64724325027566        4.26284859083408        6.45177984472895
H           -2.03048250779846        1.22858174610908        9.15912698634748
H           -3.12445094922575        1.48455705386208        7.75066487693457
H           -3.30734021159431        0.05271315453055        8.78555282942324
H            3.66608772159496        4.80627176929295        5.17905896818052
H            3.15846032563899        4.80576156083151        3.47262948603269
H            1.97716546619021        5.15293236920646        4.75296600162082
54