54
 energy: -94.102702886849 gnorm: 0.000456194010 xtb: 6.7.1 (edcfbbe)
C            1.39903308708952        1.12795061710316       -0.50373578281603
C            0.54108121492096        0.40375717703836        0.52087489080096
O            1.13301999440840        0.47178207826737        1.83155388328451
C            2.05852529770520       -0.42678304625217        2.12194686258599
O            2.44491154384294       -1.30836230985364        1.41209407808771
C            2.60686576576559       -0.21341672034362        3.54547182186761
N            2.24904426187391        1.06910891732939        4.07758798481057
C            2.72269999923154        2.27330495177618        3.67483276865796
C            3.74834748763714        2.46600860190212        2.71296554767042
C            4.52218093749994        3.57381238937879        2.38019699016110
C            5.37692105758454        3.17453268848570        1.35779395656541
C            5.09719704160540        1.83987246760204        1.09431618332601
O            4.12293662508949        1.41830590557762        1.92036167554968
C            5.67247540991062        0.93834765563544        0.12842473843740
C            5.22857077127849       -0.38676204177358        0.02347115595433
C            5.77742191320201       -1.23994545909330       -0.90881195202806
C            6.78578567340943       -0.78708501531031       -1.75345601186191
C            7.24156870197474        0.52559895753678       -1.65954098565287
C            6.69036315502373        1.37819145815771       -0.72968306303655
Cl           7.47031883703042       -1.84637401209711       -2.91460446086892
N            2.06731178240965        3.25476495016676        4.33971197493987
C            1.14504698113647        2.67150998955290        5.18248536409274
C            1.25057340719743        1.27968855187460        5.00246571674453
C            0.42416439274978        0.40325978334683        5.69057176649615
C           -0.49376126081522        0.96499080927565        6.55054307618136
C           -0.60624189896465        2.33891849697704        6.73802177391882
C            0.21673294279034        3.21903716717842        6.06155913797125
S           -1.67036158470353       -0.15229865409562        7.36461113414244
O           -2.95566081521832        0.47212420069797        7.28591695666948
O           -1.47509541658034       -1.44299244596567        6.77174478084089
C           -1.12196158521737       -0.19450006054247        9.08705230480604
C            2.21858597866776        4.67378057175840        4.16179763449608
H            1.55545721208780        2.16352354270207       -0.20901597009205
H            0.89639776062811        1.11091563379651       -1.46563152163720
H            2.36379340277710        0.63615971254886       -0.60733044644111
H           -0.43521216441994        0.87731429095742        0.63262034564285
H            0.41931991097086       -0.64689234734196        0.24485946771323
H            2.18813610827180       -0.99275362751517        4.18599681774256
H            3.69232858279889       -0.34116147947827        3.51429045068404
H            4.50981997032947        4.54113570633105        2.83490653682658
H            6.10861319673744        3.78634594293973        0.87439692605927
H            4.44540948617604       -0.75109552502544        0.66880947997265
H            5.42596321436709       -2.25623095071459       -0.98435766849314
H            8.02430193001101        0.86800511877741       -2.31716781874986
H            7.05020618971098        2.39199520964037       -0.66602277698395
H            0.43623018194122       -0.66784853584731        5.57132975487919
H           -1.37205305180983        2.70488631037754        7.40248505808905
H            0.12579839692925        4.28221957606899        6.21033347980703
H           -0.09668941526821       -0.53996672423871        9.10850956652146
H           -1.22015447871043        0.79835650297079        9.50550089929940
H           -1.76454343791815       -0.88989076791669        9.61429494527716
H            3.10577531827258        5.04082656882624        4.68075750366937
H            2.28974027292181        4.91280101477835        3.10120666108226
H            1.34401971373772        5.17234620605726        4.57286640643345
