      -----------------------------------------------------------      
     |                   =====================                   |     
     |                           x T B                           |     
     |                   =====================                   |     
     |                         S. Grimme                         |     
     |          Mulliken Center for Theoretical Chemistry        |     
     |                    University of Bonn                     |     
      -----------------------------------------------------------      

   * xtb version 6.7.1 (edcfbbe) compiled by 'conda@3ef47c1a292c' on 2024-11-25

   xtb is free software: you can redistribute it and/or modify it under
   the terms of the GNU Lesser General Public License as published by
   the Free Software Foundation, either version 3 of the License, or
   (at your option) any later version.
   
   xtb is distributed in the hope that it will be useful,
   but WITHOUT ANY WARRANTY; without even the implied warranty of
   MERCHANTABILITY or FITNESS FOR A PARTICULAR PURPOSE.  See the
   GNU Lesser General Public License for more details.
   
   Cite this work as:
   * C. Bannwarth, E. Caldeweyher, S. Ehlert, A. Hansen, P. Pracht,
     J. Seibert, S. Spicher, S. Grimme, WIREs Comput. Mol. Sci., 2020, 11,
     e01493. DOI: 10.1002/wcms.1493
   
   for GFN2-xTB:
   * C. Bannwarth, S. Ehlert and S. Grimme., J. Chem. Theory Comput., 2019,
     15, 1652-1671. DOI: 10.1021/acs.jctc.8b01176
   for GFN1-xTB:
   * S. Grimme, C. Bannwarth, P. Shushkov, J. Chem. Theory Comput., 2017,
     13, 1989-2009. DOI: 10.1021/acs.jctc.7b00118
   for GFN0-xTB:
   * P. Pracht, E. Caldeweyher, S. Ehlert, S. Grimme, ChemRxiv, 2019, preprint.
     DOI: 10.26434/chemrxiv.8326202.v1
   for GFN-FF:
   * S. Spicher and S. Grimme, Angew. Chem. Int. Ed., 2020, 59, 15665-15673.
     DOI: 10.1002/anie.202004239
   
   for ALPB and GBSA implicit solvation:
   * S. Ehlert, M. Stahn, S. Spicher, S. Grimme, J. Chem. Theory Comput.,
     2021, 17, 4250-4261. DOI: 10.1021/acs.jctc.1c00471
   
   for ddCOSMO and CPCM-X implicit solvation:
   * M. Stahn, S. Ehlert, S. Grimme, J. Phys. Chem. A,
     2023, XX, XXXX-XXXX. DOI: 10.1021/acs.jpca.3c04382
   
   for DFT-D4:
   * E. Caldeweyher, C. Bannwarth and S. Grimme, J. Chem. Phys., 2017,
     147, 034112. DOI: 10.1063/1.4993215
   * E. Caldeweyher, S. Ehlert, A. Hansen, H. Neugebauer, S. Spicher,
     C. Bannwarth and S. Grimme, J. Chem. Phys., 2019, 150, 154122.
     DOI: 10.1063/1.5090222
   * E. Caldeweyher, J.-M. Mewes, S. Ehlert and S. Grimme, Phys. Chem. Chem. Phys.
     2020, 22, 8499-8512. DOI: 10.1039/D0CP00502A
   
   for sTDA-xTB:
   * S. Grimme and C. Bannwarth, J. Chem. Phys., 2016, 145, 054103.
     DOI: 10.1063/1.4959605
   
   in the mass-spec context:
   * V. Asgeirsson, C. Bauer and S. Grimme, Chem. Sci., 2017, 8, 4879.
     DOI: 10.1039/c7sc00601b
   * J. Koopman and S. Grimme, ACS Omega 2019, 4, 12, 15120-15133.
     DOI: 10.1021/acsomega.9b02011
   
   for metadynamics refer to:
   * S. Grimme, J. Chem. Theory Comput., 2019, 155, 2847-2862
     DOI: 10.1021/acs.jctc.9b00143
   
   for SPH calculations refer to:
   * S. Spicher and S. Grimme, J. Chem. Theory Comput., 2021, 17, 1701-1714
     DOI: 10.1021/acs.jctc.0c01306
   
   for ONIOM refer to:
   * C. Plett, A. Katbashev, S. Ehlert, S. Grimme, M. Bursch,
     Phys. Chem. Chem. Phys., 2023, 25, 17860-17868. DOI: 10.1039/D3CP02178E
   
   for DIPRO refer to:
   * J. Kohn, N. Gildemeister, S. Grimme, D. Fazzi, A. Hansen,
     J. Chem. Phys., 2023, just accepted.
   
   for PTB refer to:
   * S. Grimme, M. Mueller, A. Hansen, J. Chem. Phys., 2023, 158, 124111.
     DOI: 10.1063/5.0137838
   
   with help from (in alphabetical order)
   P. Atkinson, C. Bannwarth, F. Bohle, G. Brandenburg, E. Caldeweyher
   M. Checinski, S. Dohm, S. Ehlert, S. Ehrlich, I. Gerasimov, C. Hölzer
   A. Katbashev, J. Kohn, J. Koopman, C. Lavigne, S. Lehtola, F. März, M. Müller,
   F. Musil, H. Neugebauer, J. Pisarek, C. Plett, P. Pracht, F. Pultar,
   J. Seibert, P. Shushkov, S. Spicher, M. Stahn, M. Steiner, T. Strunk,
   J. Stückrath, T. Rose, and J. Unsleber
   
 * started run on 2024/12/20 at 02:09:39.238     
   ID    Z sym.   atoms
    1    6 C      1-10, 12, 14, 15, 17, 18
    2    8 O      11
    3    7 N      13, 16
    4    1 H      19-37

           -------------------------------------------------
          |                Calculation Setup                |
           -------------------------------------------------

          program call               : xtb C0192.xyz --opt --namespace C0192 --charge +1
          calculation namespace      : C0192
          coordinate file            : C0192.xyz
          omp threads                :                     8


           -------------------------------------------------
          |                 G F N 2 - x T B                 |
           -------------------------------------------------

        Reference                      10.1021/acs.jctc.8b01176
      * Hamiltonian:
        H0-scaling (s, p, d)           1.850000    2.230000    2.230000
        zeta-weighting                 0.500000
      * Dispersion:
        s8                             2.700000
        a1                             0.520000
        a2                             5.000000
        s9                             5.000000
      * Repulsion:
        kExp                           1.500000    1.000000
        rExp                           1.000000
      * Coulomb:
        alpha                          2.000000
        third order                    shell-resolved
        anisotropic                    true
        a3                             3.000000
        a5                             4.000000
        cn-shift                       1.200000
        cn-exp                         4.000000
        max-rad                        5.000000


          ...................................................
          :                      SETUP                      :
          :.................................................:
          :  # basis functions                  91          :
          :  # atomic orbitals                  91          :
          :  # shells                           55          :
          :  # electrons                        94          :
          :  max. iterations                   250          :
          :  Hamiltonian                  GFN2-xTB          :
          :  restarted?                      false          :
          :  GBSA solvation                  false          :
          :  PC potential                    false          :
          :  electronic temp.          300.0000000     K    :
          :  accuracy                    1.0000000          :
          :  -> integral cutoff          0.2500000E+02      :
          :  -> integral neglect         0.1000000E-07      :
          :  -> SCF convergence          0.1000000E-05 Eh   :
          :  -> wf. convergence          0.1000000E-03 e    :
          :  Broyden damping             0.4000000          :
          :  net charge                          1          :
          :  unpaired electrons                  0          :
          ...................................................

 iter      E             dE          RMSdq      gap      omega  full diag
   1    -51.9616546 -0.519617E+02  0.375E+00    3.67       0.0  T
   2    -52.0777000 -0.116045E+00  0.229E+00    3.05       1.0  T
   3    -52.0863291 -0.862914E-02  0.132E+00    2.52       1.0  T
   4    -52.0909869 -0.465778E-02  0.379E-01    1.88       1.0  T
   5    -52.0946985 -0.371160E-02  0.126E-01    2.01       1.0  T
   6    -52.0950293 -0.330797E-03  0.568E-02    2.05       1.0  T
   7    -52.0950697 -0.404347E-04  0.264E-02    2.06       1.0  T
   8    -52.0950750 -0.527198E-05  0.738E-03    2.06       2.2  T
   9    -52.0950758 -0.858880E-06  0.332E-03    2.06       4.9  T
  10    -52.0950760 -0.166933E-06  0.113E-03    2.06      14.5  T
  11    -52.0950760 -0.819314E-08  0.542E-04    2.06      30.3  T
  12    -52.0950760 -0.339389E-08  0.227E-04    2.06      72.6  T

   *** convergence criteria satisfied after 12 iterations ***

         #    Occupation            Energy/Eh            Energy/eV
      -------------------------------------------------------------
         1        2.0000           -0.8987509             -24.4563
       ...           ...                  ...                  ...
        41        2.0000           -0.5494530             -14.9514
        42        2.0000           -0.5483795             -14.9222
        43        2.0000           -0.5449022             -14.8275
        44        2.0000           -0.5294812             -14.4079
        45        2.0000           -0.5157901             -14.0354
        46        2.0000           -0.4987323             -13.5712
        47        2.0000           -0.4959671             -13.4960 (HOMO)
        48                         -0.4201263             -11.4322 (LUMO)
        49                         -0.3941971             -10.7266
        50                         -0.3825891             -10.4108
        51                         -0.3327089              -9.0535
        52                         -0.3308672              -9.0034
       ...                                ...                  ...
        91                          0.5007646              13.6265
      -------------------------------------------------------------
                  HL-Gap            0.0758408 Eh            2.0637 eV
             Fermi-level           -0.4580467 Eh          -12.4641 eV

 SCC (total)                   0 d,  0 h,  0 min,  0.025 sec
 SCC setup                      ...        0 min,  0.000 sec (  0.543%)
 Dispersion                     ...        0 min,  0.000 sec (  1.727%)
 classical contributions        ...        0 min,  0.000 sec (  0.220%)
 integral evaluation            ...        0 min,  0.002 sec (  7.413%)
 iterations                     ...        0 min,  0.018 sec ( 70.518%)
 molecular gradient             ...        0 min,  0.005 sec ( 19.007%)
 printout                       ...        0 min,  0.000 sec (  0.510%)

         :::::::::::::::::::::::::::::::::::::::::::::::::::::
         ::                     SUMMARY                     ::
         :::::::::::::::::::::::::::::::::::::::::::::::::::::
         :: total energy             -51.333221578572 Eh    ::
         :: gradient norm              0.089590814224 Eh/a0 ::
         :: HOMO-LUMO gap              2.063734092440 eV    ::
         ::.................................................::
         :: SCC energy               -52.094073856279 Eh    ::
         :: -> isotropic ES            0.106568480043 Eh    ::
         :: -> anisotropic ES         -0.006408919231 Eh    ::
         :: -> anisotropic XC          0.030584248192 Eh    ::
         :: -> dispersion             -0.036411755872 Eh    ::
         :: repulsion energy           0.760852277707 Eh    ::
         :: add. restraining           0.000000000000 Eh    ::
         :: total charge               1.000000000000 e     ::
         :::::::::::::::::::::::::::::::::::::::::::::::::::::

      ----------------------------------------------------------- 
     |                   =====================                   |
     |                        A N C O P T                        |
     |                   =====================                   |
     |               Approximate Normal Coordinate               |
     |                Rational Function Optimizer                |
      ----------------------------------------------------------- 
      ----------------------------------------------------------- 
     |                   =====================                   |
     |                        A N C O P T                        |
     |                   =====================                   |
     |               Approximate Normal Coordinate               |
     |                Rational Function Optimizer                |
      ----------------------------------------------------------- 

          ...................................................
          :                      SETUP                      :
          :.................................................:
          :   optimization level            normal          :
          :   max. optcycles                   200          :
          :   ANC micro-cycles                  20          :
          :   degrees of freedom               105          :
          :.................................................:
          :   RF solver                   davidson          :
          :   write xtbopt.log                true          :
          :   linear?                        false          :
          :   energy convergence         0.5000000E-05 Eh   :
          :   grad. convergence          0.1000000E-02 Eh/α :
          :   maxmium RF displ.          1.0000000          :
          :   Hlow (freq-cutoff)         0.1000000E-01      :
          :   Hmax (freq-cutoff)         5.0000000          :
          :   S6 in model hess.         20.0000000          :
          ...................................................

generating ANC from exact Hessian ...
Using Lindh-Hessian (1995)
 Shifting diagonal of input Hessian by    9.6998071298929466E-003
 Lowest  eigenvalues of input Hessian
    0.000000    0.000000    0.000000    0.000000    0.000000    0.000000
    0.010000    0.010264    0.010642    0.011355    0.013073    0.013789
    0.014228    0.015331    0.017766    0.018041    0.019295    0.019532
 Highest eigenvalues
    1.889719    1.897655    1.972415    2.056771    2.083801    2.123842


........................................................................
.............................. CYCLE    1 ..............................
........................................................................

 iter      E             dE          RMSdq      gap      omega  full diag
   1    -52.0950760 -0.520951E+02  0.858E-05    2.06       0.0  T
   2    -52.0950760 -0.326565E-10  0.513E-05    2.06     320.7  T
   3    -52.0950760 -0.149214E-11  0.323E-05    2.06     509.6  T
     SCC iter.                  ...        0 min,  0.004 sec
     gradient                   ...        0 min,  0.005 sec
 * total energy  :   -51.3332216 Eh     change       -0.4517844E-09 Eh
   gradient norm :     0.0895932 Eh/α   predicted     0.0000000E+00 (-100.00%)
   displ. norm   :     0.2442276 α      lambda       -0.1140178E-01
   maximum displ.:     0.0758779 α      in ANC's #63, #25, #9, ...

........................................................................
.............................. CYCLE    2 ..............................
........................................................................

 iter      E             dE          RMSdq      gap      omega  full diag
   1    -52.1421176 -0.521421E+02  0.194E-01    2.22       0.0  T
   2    -52.1422933 -0.175678E-03  0.107E-01    2.24       1.0  T
   3    -52.1422862  0.701001E-05  0.521E-02    2.24       1.0  T
   4    -52.1423006 -0.143396E-04  0.168E-02    2.25       1.0  T
   5    -52.1423111 -0.105340E-04  0.372E-03    2.25       4.4  T
   6    -52.1423113 -0.178873E-06  0.206E-03    2.25       8.0  T
   7    -52.1423113 -0.465302E-07  0.744E-04    2.25      22.1  T
   8    -52.1423113 -0.458036E-08  0.290E-04    2.25      56.6  T
     SCC iter.                  ...        0 min,  0.010 sec
     gradient                   ...        0 min,  0.005 sec
 * total energy  :   -51.3410101 Eh     change       -0.7788516E-02 Eh
   gradient norm :     0.0390750 Eh/α   predicted    -0.6044640E-02 ( -22.39%)
   displ. norm   :     0.2078678 α      lambda       -0.3325869E-02
   maximum displ.:     0.1069690 α      in ANC's #4, #9, #25, ...

........................................................................
.............................. CYCLE    3 ..............................
........................................................................

 iter      E             dE          RMSdq      gap      omega  full diag
   1    -52.1638926 -0.521639E+02  0.134E-01    2.34       0.0  T
   2    -52.1640032 -0.110587E-03  0.714E-02    2.36       1.0  T
   3    -52.1640039 -0.705880E-06  0.368E-02    2.36       1.0  T
   4    -52.1640058 -0.192094E-05  0.119E-02    2.37       1.4  T
   5    -52.1640109 -0.508853E-05  0.237E-03    2.36       6.9  T
   6    -52.1640110 -0.702175E-07  0.115E-03    2.36      14.2  T
   7    -52.1640110 -0.178905E-07  0.485E-04    2.36      33.9  T
   8    -52.1640110 -0.274575E-08  0.187E-04    2.36      88.1  T
     SCC iter.                  ...        0 min,  0.010 sec
     gradient                   ...        0 min,  0.005 sec
 * total energy  :   -51.3429452 Eh     change       -0.1935138E-02 Eh
   gradient norm :     0.0131111 Eh/α   predicted    -0.1735451E-02 ( -10.32%)
   displ. norm   :     0.1421561 α      lambda       -0.4909921E-03
   maximum displ.:     0.1094961 α      in ANC's #4, #9, #10, ...

........................................................................
.............................. CYCLE    4 ..............................
........................................................................

 iter      E             dE          RMSdq      gap      omega  full diag
   1    -52.1636103 -0.521636E+02  0.526E-02    2.37       0.0  T
   2    -52.1636180 -0.767810E-05  0.292E-02    2.38       1.0  T
   3    -52.1636177  0.267240E-06  0.103E-02    2.38       1.6  T
   4    -52.1636181 -0.436903E-06  0.279E-03    2.39       5.9  T
   5    -52.1636184 -0.320409E-06  0.767E-04    2.39      21.4  T
   6    -52.1636185 -0.375768E-08  0.342E-04    2.39      48.0  T
     SCC iter.                  ...        0 min,  0.030 sec
     gradient                   ...        0 min,  0.022 sec
 * total energy  :   -51.3433099 Eh     change       -0.3646972E-03 Eh
   gradient norm :     0.0068523 Eh/α   predicted    -0.2504602E-03 ( -31.32%)
   displ. norm   :     0.2165755 α      lambda       -0.3888849E-03
   maximum displ.:     0.1748044 α      in ANC's #4, #10, #2, ...

........................................................................
.............................. CYCLE    5 ..............................
........................................................................

 iter      E             dE          RMSdq      gap      omega  full diag
   1    -52.1604610 -0.521605E+02  0.608E-02    2.38       0.0  T
   2    -52.1604660 -0.496107E-05  0.350E-02    2.40       1.0  T
   3    -52.1604658  0.212321E-06  0.735E-03    2.40       2.2  T
   4    -52.1604663 -0.524942E-06  0.216E-03    2.40       7.6  T
   5    -52.1604664 -0.106717E-06  0.851E-04    2.40      19.3  T
   6    -52.1604664 -0.367069E-08  0.311E-04    2.40      52.9  T
     SCC iter.                  ...        0 min,  0.021 sec
     gradient                   ...        0 min,  0.013 sec
 * total energy  :   -51.3435739 Eh     change       -0.2639201E-03 Eh
   gradient norm :     0.0041209 Eh/α   predicted    -0.2035645E-03 ( -22.87%)
   displ. norm   :     0.1663536 α      lambda       -0.1601790E-03
   maximum displ.:     0.1291001 α      in ANC's #4, #2, #10, ...

........................................................................
.............................. CYCLE    6 ..............................
........................................................................

 iter      E             dE          RMSdq      gap      omega  full diag
   1    -52.1590263 -0.521590E+02  0.390E-02    2.40       0.0  T
   2    -52.1590270 -0.734913E-06  0.227E-02    2.40       1.0  T
   3    -52.1590268  0.218535E-06  0.381E-03    2.40       4.3  T
   4    -52.1590272 -0.349068E-06  0.125E-03    2.40      13.1  T
   5    -52.1590272 -0.242530E-07  0.535E-04    2.40      30.7  T
   6    -52.1590272 -0.532701E-09  0.172E-04    2.40      95.6  T
     SCC iter.                  ...        0 min,  0.010 sec
     gradient                   ...        0 min,  0.005 sec
 * total energy  :   -51.3437065 Eh     change       -0.1326959E-03 Eh
   gradient norm :     0.0052457 Eh/α   predicted    -0.8230619E-04 ( -37.97%)
   displ. norm   :     0.2189539 α      lambda       -0.1985908E-03
   maximum displ.:     0.1542467 α      in ANC's #4, #2, #10, ...

........................................................................
.............................. CYCLE    7 ..............................
........................................................................

 iter      E             dE          RMSdq      gap      omega  full diag
   1    -52.1583981 -0.521584E+02  0.480E-02    2.40       0.0  T
   2    -52.1583988 -0.694728E-06  0.279E-02    2.41       1.0  T
   3    -52.1583984  0.380564E-06  0.455E-03    2.41       3.6  T
   4    -52.1583990 -0.590299E-06  0.142E-03    2.41      11.6  T
   5    -52.1583990 -0.211360E-07  0.662E-04    2.41      24.8  T
   6    -52.1583990 -0.776637E-09  0.202E-04    2.41      81.4  T
     SCC iter.                  ...        0 min,  0.008 sec
     gradient                   ...        0 min,  0.005 sec
 * total energy  :   -51.3438783 Eh     change       -0.1717489E-03 Eh
   gradient norm :     0.0058075 Eh/α   predicted    -0.1040584E-03 ( -39.41%)
   displ. norm   :     0.3650886 α      lambda       -0.3023839E-03
   maximum displ.:     0.2447805 α      in ANC's #4, #2, #10, ...

........................................................................
.............................. CYCLE    8 ..............................
........................................................................

 iter      E             dE          RMSdq      gap      omega  full diag
   1    -52.1579420 -0.521579E+02  0.777E-02    2.41       0.0  T
   2    -52.1579441 -0.209727E-05  0.452E-02    2.41       1.0  T
   3    -52.1579433  0.735647E-06  0.679E-03    2.41       2.4  T
   4    -52.1579446 -0.125280E-05  0.245E-03    2.41       6.7  T
   5    -52.1579447 -0.855785E-07  0.120E-03    2.41      13.7  T
   6    -52.1579447 -0.502476E-08  0.291E-04    2.41      56.6  T
   7    -52.1579447 -0.278965E-08  0.842E-05    2.41     195.1  T
     SCC iter.                  ...        0 min,  0.009 sec
     gradient                   ...        0 min,  0.005 sec
 * total energy  :   -51.3441205 Eh     change       -0.2422183E-03 Eh
   gradient norm :     0.0065783 Eh/α   predicted    -0.1713460E-03 ( -29.26%)
   displ. norm   :     0.4383613 α      lambda       -0.3028354E-03
   maximum displ.:     0.2902949 α      in ANC's #4, #2, #10, ...

........................................................................
.............................. CYCLE    9 ..............................
........................................................................

 iter      E             dE          RMSdq      gap      omega  full diag
   1    -52.1577857 -0.521578E+02  0.923E-02    2.43       0.0  T
   2    -52.1577887 -0.298333E-05  0.536E-02    2.42       1.0  T
   3    -52.1577876  0.116621E-05  0.817E-03    2.42       2.0  T
   4    -52.1577895 -0.194390E-05  0.288E-03    2.42       5.7  T
   5    -52.1577896 -0.110584E-06  0.145E-03    2.42      11.4  T
   6    -52.1577896 -0.949287E-08  0.335E-04    2.42      49.0  T
   7    -52.1577896 -0.355775E-08  0.103E-04    2.42     159.5  T
     SCC iter.                  ...        0 min,  0.009 sec
     gradient                   ...        0 min,  0.005 sec
 * total energy  :   -51.3443352 Eh     change       -0.2147243E-03 Eh
   gradient norm :     0.0070385 Eh/α   predicted    -0.1805249E-03 ( -15.93%)
   displ. norm   :     0.2771296 α      lambda       -0.2146031E-03
   maximum displ.:     0.1706752 α      in ANC's #4, #2, #10, ...

........................................................................
.............................. CYCLE   10 ..............................
........................................................................

 iter      E             dE          RMSdq      gap      omega  full diag
   1    -52.1605922 -0.521606E+02  0.596E-02    2.44       0.0  T
   2    -52.1605939 -0.171347E-05  0.346E-02    2.44       1.0  T
   3    -52.1605930  0.943604E-06  0.658E-03    2.44       2.5  T
   4    -52.1605943 -0.134605E-05  0.199E-03    2.44       8.2  T
   5    -52.1605944 -0.631764E-07  0.967E-04    2.44      17.0  T
   6    -52.1605944 -0.499102E-08  0.297E-04    2.44      55.3  T
     SCC iter.                  ...        0 min,  0.007 sec
     gradient                   ...        0 min,  0.005 sec
 * total energy  :   -51.3444898 Eh     change       -0.1545295E-03 Eh
   gradient norm :     0.0039366 Eh/α   predicted    -0.1155515E-03 ( -25.22%)
   displ. norm   :     0.2911490 α      lambda       -0.1471380E-03
   maximum displ.:     0.1694685 α      in ANC's #2, #4, #10, ...

........................................................................
.............................. CYCLE   11 ..............................
........................................................................

 iter      E             dE          RMSdq      gap      omega  full diag
   1    -52.1612804 -0.521613E+02  0.610E-02    2.45       0.0  T
   2    -52.1612818 -0.143576E-05  0.355E-02    2.45       1.0  T
   3    -52.1612805  0.124940E-05  0.687E-03    2.45       2.4  T
   4    -52.1612822 -0.168909E-05  0.196E-03    2.45       8.4  T
   5    -52.1612823 -0.562881E-07  0.972E-04    2.45      16.9  T
   6    -52.1612823 -0.346208E-08  0.226E-04    2.45      72.7  T
     SCC iter.                  ...        0 min,  0.008 sec
     gradient                   ...        0 min,  0.005 sec
 * total energy  :   -51.3445958 Eh     change       -0.1060653E-03 Eh
   gradient norm :     0.0035464 Eh/α   predicted    -0.7980586E-04 ( -24.76%)
   displ. norm   :     0.2063200 α      lambda       -0.1302798E-03
   maximum displ.:     0.1476836 α      in ANC's #2, #3, #8, ...

........................................................................
.............................. CYCLE   12 ..............................
........................................................................

 iter      E             dE          RMSdq      gap      omega  full diag
   1    -52.1637744 -0.521638E+02  0.460E-02    2.47       0.0  T
   2    -52.1637763 -0.186256E-05  0.265E-02    2.47       1.0  T
   3    -52.1637751  0.119366E-05  0.754E-03    2.46       2.2  T
   4    -52.1637766 -0.149140E-05  0.205E-03    2.47       8.0  T
   5    -52.1637767 -0.136957E-06  0.799E-04    2.47      20.6  T
   6    -52.1637767 -0.115779E-08  0.332E-04    2.47      49.5  T
     SCC iter.                  ...        0 min,  0.007 sec
     gradient                   ...        0 min,  0.005 sec
 * total energy  :   -51.3446805 Eh     change       -0.8462659E-04 Eh
   gradient norm :     0.0034732 Eh/α   predicted    -0.6792509E-04 ( -19.74%)
   displ. norm   :     0.2784866 α      lambda       -0.1134697E-03
   maximum displ.:     0.1915250 α      in ANC's #2, #3, #10, ...

........................................................................
.............................. CYCLE   13 ..............................
........................................................................

 iter      E             dE          RMSdq      gap      omega  full diag
   1    -52.1616261 -0.521616E+02  0.599E-02    2.46       0.0  T
   2    -52.1616276 -0.141371E-05  0.349E-02    2.47       1.0  T
   3    -52.1616254  0.213456E-05  0.770E-03    2.47       2.1  T
   4    -52.1616281 -0.265796E-05  0.187E-03    2.47       8.8  T
   5    -52.1616281 -0.474483E-07  0.907E-04    2.47      18.1  T
   6    -52.1616281 -0.416158E-09  0.271E-04    2.47      60.7  T
     SCC iter.                  ...        0 min,  0.012 sec
     gradient                   ...        0 min,  0.005 sec
 * total energy  :   -51.3447675 Eh     change       -0.8701210E-04 Eh
   gradient norm :     0.0037578 Eh/α   predicted    -0.6113843E-04 ( -29.74%)
   displ. norm   :     0.1881518 α      lambda       -0.8958984E-04
   maximum displ.:     0.1370531 α      in ANC's #2, #3, #10, ...

........................................................................
.............................. CYCLE   14 ..............................
........................................................................

 iter      E             dE          RMSdq      gap      omega  full diag
   1    -52.1612777 -0.521613E+02  0.385E-02    2.47       0.0  T
   2    -52.1612783 -0.594406E-06  0.224E-02    2.47       1.0  T
   3    -52.1612767  0.166589E-05  0.657E-03    2.47       2.5  T
   4    -52.1612786 -0.198407E-05  0.104E-03    2.47      15.7  T
   5    -52.1612787 -0.137111E-07  0.547E-04    2.47      30.0  T
   6    -52.1612787 -0.661096E-09  0.209E-04    2.47      78.5  T
     SCC iter.                  ...        0 min,  0.008 sec
     gradient                   ...        0 min,  0.005 sec
 * total energy  :   -51.3448426 Eh     change       -0.7512323E-04 Eh
   gradient norm :     0.0028035 Eh/α   predicted    -0.4638231E-04 ( -38.26%)
   displ. norm   :     0.2485133 α      lambda       -0.1112543E-03
   maximum displ.:     0.1819618 α      in ANC's #2, #3, #10, ...

........................................................................
.............................. CYCLE   15 ..............................
........................................................................

 iter      E             dE          RMSdq      gap      omega  full diag
   1    -52.1611213 -0.521611E+02  0.488E-02    2.47       0.0  T
   2    -52.1611222 -0.939666E-06  0.285E-02    2.47       1.0  T
   3    -52.1611194  0.284155E-05  0.835E-03    2.47       2.0  T
   4    -52.1611227 -0.335774E-05  0.125E-03    2.47      13.2  T
   5    -52.1611227 -0.182434E-07  0.661E-04    2.47      24.9  T
   6    -52.1611227 -0.137672E-08  0.268E-04    2.47      61.2  T
     SCC iter.                  ...        0 min,  0.008 sec
     gradient                   ...        0 min,  0.005 sec
 * total energy  :   -51.3449273 Eh     change       -0.8472629E-04 Eh
   gradient norm :     0.0020885 Eh/α   predicted    -0.5906640E-04 ( -30.29%)
   displ. norm   :     0.2678145 α      lambda       -0.8530661E-04
   maximum displ.:     0.1973174 α      in ANC's #2, #3, #10, ...

........................................................................
.............................. CYCLE   16 ..............................
........................................................................

 iter      E             dE          RMSdq      gap      omega  full diag
   1    -52.1611641 -0.521612E+02  0.512E-02    2.48       0.0  T
   2    -52.1611651 -0.983934E-06  0.300E-02    2.47       1.0  T
   3    -52.1611615  0.353663E-05  0.923E-03    2.47       1.8  T
   4    -52.1611657 -0.414636E-05  0.125E-03    2.47      13.2  T
   5    -52.1611657 -0.157895E-07  0.656E-04    2.47      25.1  T
   6    -52.1611657 -0.499142E-09  0.276E-04    2.47      59.6  T
     SCC iter.                  ...        0 min,  0.008 sec
     gradient                   ...        0 min,  0.005 sec
 * total energy  :   -51.3449886 Eh     change       -0.6124244E-04 Eh
   gradient norm :     0.0033835 Eh/α   predicted    -0.4571760E-04 ( -25.35%)
   displ. norm   :     0.2326449 α      lambda       -0.6229375E-04
   maximum displ.:     0.1747029 α      in ANC's #2, #3, #10, ...

........................................................................
.............................. CYCLE   17 ..............................
........................................................................

 iter      E             dE          RMSdq      gap      omega  full diag
   1    -52.1613880 -0.521614E+02  0.433E-02    2.47       0.0  T
   2    -52.1613887 -0.730495E-06  0.253E-02    2.47       1.0  T
   3    -52.1613866  0.216877E-05  0.731E-03    2.47       2.2  T
   4    -52.1613891 -0.255580E-05  0.113E-03    2.47      14.5  T
   5    -52.1613892 -0.165925E-07  0.574E-04    2.47      28.7  T
   6    -52.1613892 -0.129010E-08  0.246E-04    2.47      66.8  T
     SCC iter.                  ...        0 min,  0.008 sec
     gradient                   ...        0 min,  0.005 sec
 * total energy  :   -51.3450335 Eh     change       -0.4493809E-04 Eh
   gradient norm :     0.0029868 Eh/α   predicted    -0.3283778E-04 ( -26.93%)
   displ. norm   :     0.2477239 α      lambda       -0.5564856E-04
   maximum displ.:     0.1897696 α      in ANC's #2, #3, #10, ...

........................................................................
.............................. CYCLE   18 ..............................
........................................................................

 iter      E             dE          RMSdq      gap      omega  full diag
   1    -52.1617690 -0.521618E+02  0.455E-02    2.48       0.0  T
   2    -52.1617698 -0.795035E-06  0.268E-02    2.47       1.0  T
   3    -52.1617674  0.239946E-05  0.760E-03    2.47       2.2  T
   4    -52.1617702 -0.281221E-05  0.116E-03    2.47      14.2  T
   5    -52.1617702 -0.166877E-07  0.579E-04    2.47      28.4  T
   6    -52.1617702 -0.125792E-08  0.237E-04    2.47      69.5  T
     SCC iter.                  ...        0 min,  0.008 sec
     gradient                   ...        0 min,  0.005 sec
 * total energy  :   -51.3450717 Eh     change       -0.3823970E-04 Eh
   gradient norm :     0.0022854 Eh/α   predicted    -0.2953279E-04 ( -22.77%)
   displ. norm   :     0.1510317 α      lambda       -0.3373086E-04
   maximum displ.:     0.1183387 α      in ANC's #2, #3, #10, ...

........................................................................
.............................. CYCLE   19 ..............................
........................................................................

 iter      E             dE          RMSdq      gap      omega  full diag
   1    -52.1625719 -0.521626E+02  0.286E-02    2.48       0.0  T
   2    -52.1625723 -0.377131E-06  0.168E-02    2.47       1.0  T
   3    -52.1625718  0.556012E-06  0.395E-03    2.47       4.2  T
   4    -52.1625724 -0.667704E-06  0.826E-04    2.47      19.9  T
   5    -52.1625724 -0.132646E-07  0.379E-04    2.47      43.3  T
     SCC iter.                  ...        0 min,  0.006 sec
     gradient                   ...        0 min,  0.005 sec
 * total energy  :   -51.3450949 Eh     change       -0.2319562E-04 Eh
   gradient norm :     0.0011191 Eh/α   predicted    -0.1725742E-04 ( -25.60%)
   displ. norm   :     0.2125088 α      lambda       -0.2354686E-04
   maximum displ.:     0.1646485 α      in ANC's #2, #10, #1, ...

........................................................................
.............................. CYCLE   20 ..............................
........................................................................

 iter      E             dE          RMSdq      gap      omega  full diag
   1    -52.1616331 -0.521616E+02  0.405E-02    2.48       0.0  T
   2    -52.1616337 -0.517498E-06  0.238E-02    2.47       1.0  T
   3    -52.1616330  0.626555E-06  0.451E-03    2.48       3.6  T
   4    -52.1616338 -0.785279E-06  0.111E-03    2.47      14.8  T
   5    -52.1616338 -0.205303E-07  0.540E-04    2.48      30.4  T
   6    -52.1616338 -0.769617E-09  0.211E-04    2.48      78.0  T
     SCC iter.                  ...        0 min,  0.008 sec
     gradient                   ...        0 min,  0.005 sec
 * total energy  :   -51.3451124 Eh     change       -0.1745312E-04 Eh
   gradient norm :     0.0032356 Eh/α   predicted    -0.1201307E-04 ( -31.17%)
   displ. norm   :     0.0828588 α      lambda       -0.3154167E-04
   maximum displ.:     0.0442985 α      in ANC's #1, #3, #8, ...
 * RMSD in coord.:     0.5918216 α      energy gain  -0.1189081E-01 Eh

generating ANC from exact Hessian ...
Using Lindh-Hessian (1995)
 Shifting diagonal of input Hessian by    9.6556953307714889E-003
 Lowest  eigenvalues of input Hessian
    0.000000    0.000000    0.000000    0.000000    0.000000    0.000000
    0.010000    0.010336    0.010693    0.011644    0.013044    0.014256
    0.014671    0.015813    0.018500    0.018685    0.019823    0.019951
 Highest eigenvalues
    1.984687    2.032871    2.058238    2.185182    2.234605    2.266547


........................................................................
.............................. CYCLE   21 ..............................
........................................................................

 iter      E             dE          RMSdq      gap      omega  full diag
   1    -52.1635610 -0.521636E+02  0.196E-02    2.48       0.0  T
   2    -52.1635614 -0.436655E-06  0.114E-02    2.48       1.4  T
   3    -52.1635611  0.289065E-06  0.330E-03    2.48       5.0  T
   4    -52.1635615 -0.329093E-06  0.964E-04    2.48      17.0  T
   5    -52.1635615 -0.395555E-07  0.295E-04    2.48      55.7  T
     SCC iter.                  ...        0 min,  0.007 sec
     gradient                   ...        0 min,  0.005 sec
 * total energy  :   -51.3451299 Eh     change       -0.1754736E-04 Eh
   gradient norm :     0.0030323 Eh/α   predicted     0.0000000E+00 (-100.00%)
   displ. norm   :     0.0308943 α      lambda       -0.1890670E-04
   maximum displ.:     0.0128974 α      in ANC's #1, #8, #9, ...

........................................................................
.............................. CYCLE   22 ..............................
........................................................................

 iter      E             dE          RMSdq      gap      omega  full diag
   1    -52.1629115 -0.521629E+02  0.918E-03    2.48       0.0  T
   2    -52.1629117 -0.130450E-06  0.545E-03    2.48       3.0  T
   3    -52.1629116  0.485380E-07  0.160E-03    2.48      10.3  T
   4    -52.1629117 -0.635875E-07  0.410E-04    2.48      40.1  T
   5    -52.1629117 -0.495839E-08  0.145E-04    2.48     113.4  T
     SCC iter.                  ...        0 min,  0.006 sec
     gradient                   ...        0 min,  0.005 sec
 * total energy  :   -51.3451506 Eh     change       -0.2071203E-04 Eh
   gradient norm :     0.0015406 Eh/α   predicted    -0.1266022E-04 ( -38.88%)
   displ. norm   :     0.1330217 α      lambda       -0.4253090E-04
   maximum displ.:     0.0589817 α      in ANC's #1, #9, #8, ...

........................................................................
.............................. CYCLE   23 ..............................
........................................................................

 iter      E             dE          RMSdq      gap      omega  full diag
   1    -52.1616250 -0.521616E+02  0.335E-02    2.47       0.0  T
   2    -52.1616261 -0.112477E-05  0.199E-02    2.48       1.0  T
   3    -52.1616249  0.117372E-05  0.630E-03    2.48       2.6  T
   4    -52.1616263 -0.141272E-05  0.129E-03    2.48      12.8  T
   5    -52.1616264 -0.488190E-07  0.473E-04    2.48      34.8  T
   6    -52.1616264 -0.239186E-08  0.233E-04    2.48      70.5  T
     SCC iter.                  ...        0 min,  0.008 sec
     gradient                   ...        0 min,  0.005 sec
 * total energy  :   -51.3451803 Eh     change       -0.2964685E-04 Eh
   gradient norm :     0.0028780 Eh/α   predicted    -0.2143313E-04 ( -27.71%)
   displ. norm   :     0.0320522 α      lambda       -0.1347619E-04
   maximum displ.:     0.0170017 α      in ANC's #1, #4, #3, ...

........................................................................
.............................. CYCLE   24 ..............................
........................................................................

 iter      E             dE          RMSdq      gap      omega  full diag
   1    -52.1619962 -0.521620E+02  0.746E-03    2.48       0.0  T
   2    -52.1619962 -0.328982E-07  0.436E-03    2.48       3.8  T
   3    -52.1619962  0.746723E-07  0.152E-03    2.48      10.8  T
   4    -52.1619962 -0.874412E-07  0.231E-04    2.48      71.2  T
   5    -52.1619962 -0.172309E-08  0.909E-05    2.48     180.9  T
     SCC iter.                  ...        0 min,  0.006 sec
     gradient                   ...        0 min,  0.005 sec
 * total energy  :   -51.3451928 Eh     change       -0.1247831E-04 Eh
   gradient norm :     0.0023317 Eh/α   predicted    -0.6745164E-05 ( -45.94%)
   displ. norm   :     0.1894332 α      lambda       -0.6572132E-04
   maximum displ.:     0.0980056 α      in ANC's #1, #4, #3, ...

........................................................................
.............................. CYCLE   25 ..............................
........................................................................

 iter      E             dE          RMSdq      gap      omega  full diag
   1    -52.1629846 -0.521630E+02  0.418E-02    2.48       0.0  T
   2    -52.1629854 -0.807518E-06  0.245E-02    2.49       1.0  T
   3    -52.1629829  0.246096E-05  0.831E-03    2.49       2.0  T
   4    -52.1629858 -0.287024E-05  0.104E-03    2.49      15.9  T
   5    -52.1629858 -0.256399E-07  0.491E-04    2.49      33.5  T
   6    -52.1629858 -0.909360E-09  0.253E-04    2.49      65.0  T
     SCC iter.                  ...        0 min,  0.007 sec
     gradient                   ...        0 min,  0.005 sec
 * total energy  :   -51.3452379 Eh     change       -0.4512228E-04 Eh
   gradient norm :     0.0011367 Eh/α   predicted    -0.3406429E-04 ( -24.51%)
   displ. norm   :     0.2516943 α      lambda       -0.2979307E-04
   maximum displ.:     0.1346869 α      in ANC's #1, #4, #3, ...

........................................................................
.............................. CYCLE   26 ..............................
........................................................................

 iter      E             dE          RMSdq      gap      omega  full diag
   1    -52.1626698 -0.521627E+02  0.517E-02    2.49       0.0  T
   2    -52.1626708 -0.952925E-06  0.304E-02    2.49       1.0  T
   3    -52.1626667  0.410216E-05  0.103E-02    2.49       1.6  T
   4    -52.1626714 -0.476919E-05  0.107E-03    2.49      15.3  T
   5    -52.1626714 -0.915238E-08  0.615E-04    2.49      26.7  T
   6    -52.1626714 -0.295680E-08  0.314E-04    2.49      52.4  T
     SCC iter.                  ...        0 min,  0.008 sec
     gradient                   ...        0 min,  0.005 sec
 * total energy  :   -51.3452659 Eh     change       -0.2797283E-04 Eh
   gradient norm :     0.0027058 Eh/α   predicted    -0.1533249E-04 ( -45.19%)
   displ. norm   :     0.0949091 α      lambda       -0.2171650E-04
   maximum displ.:     0.0557280 α      in ANC's #1, #9, #14, ...

........................................................................
.............................. CYCLE   27 ..............................
........................................................................

 iter      E             dE          RMSdq      gap      omega  full diag
   1    -52.1627024 -0.521627E+02  0.189E-02    2.49       0.0  T
   2    -52.1627025 -0.121853E-06  0.111E-02    2.49       1.5  T
   3    -52.1627020  0.508115E-06  0.366E-03    2.49       4.5  T
   4    -52.1627026 -0.594699E-06  0.427E-04    2.49      38.5  T
   5    -52.1627026 -0.225922E-08  0.239E-04    2.49      68.8  T
     SCC iter.                  ...        0 min,  0.006 sec
     gradient                   ...        0 min,  0.005 sec
 * total energy  :   -51.3452850 Eh     change       -0.1912961E-04 Eh
   gradient norm :     0.0021968 Eh/α   predicted    -0.1095642E-04 ( -42.73%)
   displ. norm   :     0.2299633 α      lambda       -0.5380031E-04
   maximum displ.:     0.1381692 α      in ANC's #1, #14, #9, ...

........................................................................
.............................. CYCLE   28 ..............................
........................................................................

 iter      E             dE          RMSdq      gap      omega  full diag
   1    -52.1621511 -0.521622E+02  0.458E-02    2.48       0.0  T
   2    -52.1621518 -0.761565E-06  0.270E-02    2.48       1.0  T
   3    -52.1621495  0.237880E-05  0.816E-03    2.49       2.0  T
   4    -52.1621523 -0.279588E-05  0.110E-03    2.49      14.9  T
   5    -52.1621523 -0.217663E-07  0.581E-04    2.49      28.3  T
   6    -52.1621523 -0.125310E-08  0.290E-04    2.49      56.7  T
     SCC iter.                  ...        0 min,  0.007 sec
     gradient                   ...        0 min,  0.005 sec
 * total energy  :   -51.3453229 Eh     change       -0.3793494E-04 Eh
   gradient norm :     0.0015129 Eh/α   predicted    -0.2833512E-04 ( -25.31%)
   displ. norm   :     0.2290903 α      lambda       -0.2645143E-04
   maximum displ.:     0.1436428 α      in ANC's #1, #14, #9, ...

........................................................................
.............................. CYCLE   29 ..............................
........................................................................

 iter      E             dE          RMSdq      gap      omega  full diag
   1    -52.1617068 -0.521617E+02  0.452E-02    2.48       0.0  T
   2    -52.1617073 -0.575037E-06  0.266E-02    2.48       1.0  T
   3    -52.1617059  0.146917E-05  0.648E-03    2.49       2.5  T
   4    -52.1617076 -0.173969E-05  0.106E-03    2.48      15.5  T
   5    -52.1617076 -0.192299E-07  0.563E-04    2.48      29.2  T
   6    -52.1617076 -0.905537E-09  0.248E-04    2.48      66.2  T
     SCC iter.                  ...        0 min,  0.007 sec
     gradient                   ...        0 min,  0.005 sec
 * total energy  :   -51.3453467 Eh     change       -0.2375517E-04 Eh
   gradient norm :     0.0021554 Eh/α   predicted    -0.1353498E-04 ( -43.02%)
   displ. norm   :     0.0634413 α      lambda       -0.1842280E-04
   maximum displ.:     0.0366992 α      in ANC's #1, #4, #14, ...

........................................................................
.............................. CYCLE   30 ..............................
........................................................................

 iter      E             dE          RMSdq      gap      omega  full diag
   1    -52.1625353 -0.521625E+02  0.119E-02    2.48       0.0  T
   2    -52.1625353 -0.729148E-07  0.699E-03    2.48       2.4  T
   3    -52.1625353  0.132627E-07  0.981E-04    2.48      16.8  T
   4    -52.1625353 -0.215476E-07  0.329E-04    2.48      49.9  T
     SCC iter.                  ...        0 min,  0.005 sec
     gradient                   ...        0 min,  0.005 sec
 * total energy  :   -51.3453616 Eh     change       -0.1493345E-04 Eh
   gradient norm :     0.0017132 Eh/α   predicted    -0.9249849E-05 ( -38.06%)
   displ. norm   :     0.3810446 α      lambda       -0.4832455E-04
   maximum displ.:     0.2377872 α      in ANC's #1, #9, #14, ...

........................................................................
.............................. CYCLE   31 ..............................
........................................................................

 iter      E             dE          RMSdq      gap      omega  full diag
   1    -52.1616336 -0.521616E+02  0.692E-02    2.48       0.0  T
   2    -52.1616350 -0.141163E-05  0.408E-02    2.49       1.0  T
   3    -52.1616343  0.704700E-06  0.589E-03    2.49       2.8  T
   4    -52.1616352 -0.947158E-06  0.177E-03    2.49       9.3  T
   5    -52.1616353 -0.591944E-07  0.810E-04    2.49      20.3  T
   6    -52.1616353 -0.102573E-08  0.308E-04    2.49      53.4  T
     SCC iter.                  ...        0 min,  0.007 sec
     gradient                   ...        0 min,  0.005 sec
 * total energy  :   -51.3453963 Eh     change       -0.3468018E-04 Eh
   gradient norm :     0.0028757 Eh/α   predicted    -0.2572661E-04 ( -25.82%)
   displ. norm   :     0.0525321 α      lambda       -0.2589163E-04
   maximum displ.:     0.0328698 α      in ANC's #3, #4, #10, ...

........................................................................
.............................. CYCLE   32 ..............................
........................................................................

 iter      E             dE          RMSdq      gap      omega  full diag
   1    -52.1630721 -0.521631E+02  0.135E-02    2.49       0.0  T
   2    -52.1630724 -0.287304E-06  0.771E-03    2.49       2.1  T
   3    -52.1630723  0.130453E-06  0.264E-03    2.49       6.2  T
   4    -52.1630724 -0.158922E-06  0.747E-04    2.49      22.0  T
   5    -52.1630724 -0.197786E-07  0.238E-04    2.49      69.1  T
     SCC iter.                  ...        0 min,  0.006 sec
     gradient                   ...        0 min,  0.005 sec
 * total energy  :   -51.3454118 Eh     change       -0.1548761E-04 Eh
   gradient norm :     0.0013295 Eh/α   predicted    -0.1298722E-04 ( -16.14%)
   displ. norm   :     0.1114612 α      lambda       -0.1166904E-04
   maximum displ.:     0.0679464 α      in ANC's #1, #2, #9, ...

........................................................................
.............................. CYCLE   33 ..............................
........................................................................

 iter      E             dE          RMSdq      gap      omega  full diag
   1    -52.1630525 -0.521631E+02  0.189E-02    2.48       0.0  T
   2    -52.1630526 -0.562992E-07  0.112E-02    2.48       1.5  T
   3    -52.1630525  0.360578E-07  0.128E-03    2.48      12.8  T
   4    -52.1630526 -0.544732E-07  0.388E-04    2.48      42.4  T
   5    -52.1630526 -0.137419E-08  0.173E-04    2.48      95.1  T
     SCC iter.                  ...        0 min,  0.006 sec
     gradient                   ...        0 min,  0.005 sec
 * total energy  :   -51.3454249 Eh     change       -0.1311847E-04 Eh
   gradient norm :     0.0009589 Eh/α   predicted    -0.5870190E-05 ( -55.25%)
   displ. norm   :     0.1538379 α      lambda       -0.1353263E-04
   maximum displ.:     0.0979082 α      in ANC's #1, #2, #9, ...

........................................................................
.............................. CYCLE   34 ..............................
........................................................................

 iter      E             dE          RMSdq      gap      omega  full diag
   1    -52.1621288 -0.521621E+02  0.274E-02    2.48       0.0  T
   2    -52.1621290 -0.190022E-06  0.162E-02    2.48       1.0  T
   3    -52.1621289  0.458925E-07  0.182E-03    2.48       9.1  T
   4    -52.1621290 -0.828352E-07  0.673E-04    2.48      24.4  T
   5    -52.1621290 -0.689585E-08  0.322E-04    2.48      51.1  T
     SCC iter.                  ...        0 min,  0.006 sec
     gradient                   ...        0 min,  0.005 sec
 * total energy  :   -51.3454389 Eh     change       -0.1398788E-04 Eh
   gradient norm :     0.0015508 Eh/α   predicted    -0.6841792E-05 ( -51.09%)
   displ. norm   :     0.1265619 α      lambda       -0.1168893E-04
   maximum displ.:     0.0743377 α      in ANC's #1, #2, #3, ...

........................................................................
.............................. CYCLE   35 ..............................
........................................................................

 iter      E             dE          RMSdq      gap      omega  full diag
   1    -52.1621824 -0.521622E+02  0.250E-02    2.48       0.0  T
   2    -52.1621826 -0.144846E-06  0.146E-02    2.48       1.1  T
   3    -52.1621825  0.301025E-07  0.157E-03    2.48      10.5  T
   4    -52.1621826 -0.731869E-07  0.695E-04    2.48      23.7  T
   5    -52.1621826 -0.692170E-08  0.320E-04    2.48      51.4  T
     SCC iter.                  ...        0 min,  0.006 sec
     gradient                   ...        0 min,  0.005 sec
 * total energy  :   -51.3454522 Eh     change       -0.1332137E-04 Eh
   gradient norm :     0.0016665 Eh/α   predicted    -0.5890248E-05 ( -55.78%)
   displ. norm   :     0.2221183 α      lambda       -0.1711170E-04
   maximum displ.:     0.1350778 α      in ANC's #1, #2, #3, ...

........................................................................
.............................. CYCLE   36 ..............................
........................................................................

 iter      E             dE          RMSdq      gap      omega  full diag
   1    -52.1617154 -0.521617E+02  0.409E-02    2.48       0.0  T
   2    -52.1617158 -0.377602E-06  0.239E-02    2.48       1.0  T
   3    -52.1617156  0.166605E-06  0.290E-03    2.48       5.7  T
   4    -52.1617159 -0.288768E-06  0.112E-03    2.48      14.7  T
   5    -52.1617159 -0.161537E-07  0.510E-04    2.48      32.3  T
   6    -52.1617159 -0.933646E-09  0.133E-04    2.48     123.5  T
     SCC iter.                  ...        0 min,  0.007 sec
     gradient                   ...        0 min,  0.005 sec
 * total energy  :   -51.3454714 Eh     change       -0.1920591E-04 Eh
   gradient norm :     0.0023006 Eh/α   predicted    -0.8744953E-05 ( -54.47%)
   displ. norm   :     0.1938406 α      lambda       -0.2966372E-04
   maximum displ.:     0.1064164 α      in ANC's #2, #1, #3, ...

........................................................................
.............................. CYCLE   37 ..............................
........................................................................

 iter      E             dE          RMSdq      gap      omega  full diag
   1    -52.1620916 -0.521621E+02  0.393E-02    2.48       0.0  T
   2    -52.1620921 -0.485937E-06  0.229E-02    2.48       1.0  T
   3    -52.1620913  0.725921E-06  0.466E-03    2.48       3.5  T
   4    -52.1620923 -0.940533E-06  0.113E-03    2.48      14.5  T
   5    -52.1620923 -0.711261E-08  0.533E-04    2.48      30.8  T
   6    -52.1620923 -0.695245E-09  0.163E-04    2.48     101.1  T
     SCC iter.                  ...        0 min,  0.007 sec
     gradient                   ...        0 min,  0.005 sec
 * total energy  :   -51.3454934 Eh     change       -0.2200101E-04 Eh
   gradient norm :     0.0019222 Eh/α   predicted    -0.1538939E-04 ( -30.05%)
   displ. norm   :     0.4608525 α      lambda       -0.3332941E-04
   maximum displ.:     0.2651542 α      in ANC's #1, #2, #3, ...

........................................................................
.............................. CYCLE   38 ..............................
........................................................................

 iter      E             dE          RMSdq      gap      omega  full diag
   1    -52.1600943 -0.521601E+02  0.878E-02    2.48       0.0  T
   2    -52.1600969 -0.263896E-05  0.513E-02    2.48       1.0  T
   3    -52.1600943  0.264389E-05  0.930E-03    2.48       1.8  T
   4    -52.1600977 -0.348364E-05  0.263E-03    2.48       6.3  T
   5    -52.1600978 -0.965472E-07  0.123E-03    2.48      13.3  T
   6    -52.1600978 -0.139098E-08  0.388E-04    2.48      42.4  T
   7    -52.1600978 -0.458771E-08  0.977E-05    2.48     168.4  T
     SCC iter.                  ...        0 min,  0.009 sec
     gradient                   ...        0 min,  0.005 sec
 * total energy  :   -51.3455092 Eh     change       -0.1573369E-04 Eh
   gradient norm :     0.0041712 Eh/α   predicted    -0.1823929E-04 (  15.93%)
   displ. norm   :     0.0752647 α      lambda       -0.4933907E-04
   maximum displ.:     0.0460608 α      in ANC's #5, #4, #9, ...

........................................................................
.............................. CYCLE   39 ..............................
........................................................................

 iter      E             dE          RMSdq      gap      omega  full diag
   1    -52.1625925 -0.521626E+02  0.177E-02    2.49       0.0  T
   2    -52.1625933 -0.734751E-06  0.100E-02    2.49       1.6  T
   3    -52.1625931  0.135238E-06  0.362E-03    2.49       4.5  T
   4    -52.1625933 -0.169298E-06  0.114E-03    2.49      14.4  T
   5    -52.1625933 -0.464447E-07  0.331E-04    2.49      49.6  T
   6    -52.1625933 -0.788560E-10  0.172E-04    2.49      95.5  T
     SCC iter.                  ...        0 min,  0.007 sec
     gradient                   ...        0 min,  0.005 sec
 * total energy  :   -51.3455358 Eh     change       -0.2667136E-04 Eh
   gradient norm :     0.0018986 Eh/α   predicted    -0.2481385E-04 (  -6.96%)
   displ. norm   :     0.1054086 α      lambda       -0.1316896E-04
   maximum displ.:     0.0657903 α      in ANC's #1, #2, #5, ...

........................................................................
.............................. CYCLE   40 ..............................
........................................................................

 iter      E             dE          RMSdq      gap      omega  full diag
   1    -52.1627738 -0.521628E+02  0.227E-02    2.49       0.0  T
   2    -52.1627742 -0.361875E-06  0.132E-02    2.50       1.2  T
   3    -52.1627740  0.140513E-06  0.279E-03    2.49       5.9  T
   4    -52.1627742 -0.177964E-06  0.813E-04    2.50      20.2  T
   5    -52.1627742 -0.222551E-07  0.299E-04    2.50      55.0  T
     SCC iter.                  ...        0 min,  0.006 sec
     gradient                   ...        0 min,  0.005 sec
 * total energy  :   -51.3455489 Eh     change       -0.1302615E-04 Eh
   gradient norm :     0.0012596 Eh/α   predicted    -0.6621410E-05 ( -49.17%)
   displ. norm   :     0.2457115 α      lambda       -0.1271399E-04
   maximum displ.:     0.1503221 α      in ANC's #1, #2, #4, ...

........................................................................
.............................. CYCLE   41 ..............................
........................................................................

 iter      E             dE          RMSdq      gap      omega  full diag
   1    -52.1617900 -0.521618E+02  0.489E-02    2.49       0.0  T
   2    -52.1617908 -0.755325E-06  0.286E-02    2.49       1.0  T
   3    -52.1617900  0.807713E-06  0.501E-03    2.49       3.3  T
   4    -52.1617910 -0.106602E-05  0.133E-03    2.50      12.4  T
   5    -52.1617911 -0.189289E-07  0.612E-04    2.50      26.9  T
   6    -52.1617911 -0.769226E-09  0.221E-04    2.50      74.2  T
     SCC iter.                  ...        0 min,  0.008 sec
     gradient                   ...        0 min,  0.005 sec
 * total energy  :   -51.3455573 Eh     change       -0.8434829E-05 Eh
   gradient norm :     0.0016970 Eh/α   predicted    -0.6525814E-05 ( -22.63%)
   displ. norm   :     0.0373578 α      lambda       -0.4681270E-05
   maximum displ.:     0.0251989 α      in ANC's #3, #2, #4, ...

........................................................................
.............................. CYCLE   42 ..............................
........................................................................

 iter      E             dE          RMSdq      gap      omega  full diag
   1    -52.1626651 -0.521627E+02  0.942E-03    2.50       0.0  T
   2    -52.1626652 -0.103457E-06  0.540E-03    2.50       3.0  T
   3    -52.1626652  0.355495E-07  0.136E-03    2.50      12.1  T
   4    -52.1626652 -0.426312E-07  0.487E-04    2.50      33.8  T
   5    -52.1626652 -0.879461E-08  0.168E-04    2.50      98.1  T
     SCC iter.                  ...        0 min,  0.007 sec
     gradient                   ...        0 min,  0.005 sec
 * total energy  :   -51.3455614 Eh     change       -0.4134077E-05 Eh
   gradient norm :     0.0009537 Eh/α   predicted    -0.2348931E-05 ( -43.18%)
   displ. norm   :     0.0717058 α      lambda       -0.3929256E-05
   maximum displ.:     0.0581463 α      in ANC's #1, #2, #9, ...

   *** GEOMETRY OPTIMIZATION CONVERGED AFTER 42 ITERATIONS ***

------------------------------------------------------------------------
 total energy gain   :        -0.0123398 Eh       -7.7434 kcal/mol
 total RMSD          :         0.8668938 a0        0.4587 Å
 total power (kW/mol):        -0.7713872 (step)  -45.6156 (real)
------------------------------------------------------------------------

 ANCopt (total)                0 d,  0 h,  0 min,  0.710 sec
 optimizer setup                ...        0 min,  0.000 sec (  0.015%)
 model hessian                  ...        0 min,  0.039 sec (  5.526%)
 ANC generation                 ...        0 min,  0.002 sec (  0.229%)
 coordinate transformation      ...        0 min,  0.004 sec (  0.511%)
 single point calculation       ...        0 min,  0.655 sec ( 92.252%)
 optimization log               ...        0 min,  0.004 sec (  0.584%)
 hessian update                 ...        0 min,  0.001 sec (  0.107%)
 rational function              ...        0 min,  0.004 sec (  0.560%)

================
 final structure:
================
37
 xtb: 6.7.1 (edcfbbe)
C            2.14135009828836        1.51305387412634       -0.76943386202340
C            1.08903251465373        0.52509660615571       -0.38518949983452
C           -0.25407987011767        0.87642912850821       -0.40782167171088
C           -1.24746699333423       -0.01890821155214       -0.04121233280907
C           -2.68469828196831        0.41364545262651       -0.05034149709840
C           -0.87586597181566       -1.30622517404837        0.35738140597118
C            0.47296610090892       -1.67307373339163        0.42406088751474
C            1.43353453222793       -0.75231712367041        0.03957394952151
C            0.87565217511870       -3.02579121832688        0.92974000642794
C           -1.90820278699086       -2.30801221466325        0.71354027029189
O           -2.20119757597770       -2.69163525942016        1.80462586830531
C           -2.64098078632726       -2.90903644170181       -0.54028163265795
N           -1.70884478798029       -3.24308175838729       -1.57475916221469
C           -1.12717832357094       -2.36521512473765       -2.43929637616351
C           -0.21841275588758       -3.06377006873094       -3.17525963663293
N           -0.25286638278194       -4.35477972723383       -2.74611875762417
C           -1.15849743729185       -4.44027665918505       -1.77504606606152
C            0.53886998597821       -5.43089337492829       -3.27692787242872
H            1.77623932194752        2.19713563188849       -1.53133298031780
H            2.42181183844189        2.10480455418878        0.10194467052038
H            3.03474269665979        1.01316317814868       -1.13456604238056
H           -0.53553418027590        1.87554295945858       -0.70579463223117
H           -3.27874642373391       -0.15947494443741        0.65771305102439
H           -2.75461621032301        1.46405511632096        0.22132860241157
H           -3.12222212664810        0.31054107840026       -1.04526627295579
H            2.47565128109422       -1.03101719323520        0.08793572715003
H            0.79684650243507       -3.04160282417296        2.01689809443447
H            0.23307227478595       -3.81899105645539        0.54756382032255
H            1.90662947479898       -3.24586913102818        0.66438000291827
H           -3.19173088170880       -3.79633049472427       -0.22252948151256
H           -3.34381942171041       -2.15680373315824       -0.90355663593122
H           -1.38671940568894       -1.32771992209748       -2.47537963864468
H            0.43383993454449       -2.73264204284345       -3.95705200514036
H           -1.41749567291471       -5.33610614746552       -1.24393862128791
H            0.44673042172136       -6.30954019545996       -2.64242282611943
H            0.20382239014016       -5.68418276674375       -4.28428346355064
H            1.58605473330174       -5.13202103802332       -3.32699538947989

 Bond Distances (Angstroems)
 ---------------------------
C1-C2=1.4937         C1-H19=1.0871        C1-H20=1.0900        C1-H21=1.0869        C2-C1=1.4937         C2-C3=1.3885         
C2-C8=1.3896         C3-C2=1.3885         C3-C4=1.3867         C3-H22=1.0799        C4-C3=1.3867         C4-C5=1.5009         
C4-C6=1.3979         C5-C4=1.5009         C5-H23=1.0875        C5-H24=1.0872        C5-H25=1.0918        C6-C4=1.3979         
C6-C7=1.3994         C6-C10=1.4819        C7-C6=1.3994         C7-C8=1.3850         C7-C9=1.4992         C8-C2=1.3896         
C8-C7=1.3850         C8-H26=1.0798        C9-C7=1.4992         C9-H27=1.0901        C9-H28=1.0900        C9-H29=1.0871        
C10-C6=1.4819        C10-O11=1.1931       C10-C12=1.5717       O11-C10=1.1931       C12-C10=1.5717       C12-N13=1.4320       
C12-H30=1.0916       C12-H31=1.0917       N13-C12=1.4320       N13-C14=1.3625       N13-C17=1.3328       C14-N13=1.3625       
C14-C15=1.3622       C14-H32=1.0701       C15-C14=1.3622       C15-N16=1.3609       C15-H33=1.0706       N16-C15=1.3609       
N16-C17=1.3306       N16-C18=1.4376       C17-N13=1.3328       C17-N16=1.3306       C17-H34=1.0732       C18-N16=1.4376       
C18-H35=1.0877       C18-H36=1.0914       C18-H37=1.0902       H19-C1=1.0871        H20-C1=1.0900        H21-C1=1.0869        
H22-C3=1.0799        H23-C5=1.0875        H24-C5=1.0872        H25-C5=1.0918        H26-C8=1.0798        H27-C9=1.0901        
H28-C9=1.0900        H29-C9=1.0871        H30-C12=1.0916       H31-C12=1.0917       H32-C14=1.0701       H33-C15=1.0706       
H34-C17=1.0732       H35-C18=1.0877       H36-C18=1.0914       H37-C18=1.0902       
 C  H  Rav=1.0855 sigma=0.0070  Rmin=1.0701  Rmax=1.0918    19
 C  C  Rav=1.4381 sigma=0.0644  Rmin=1.3622  Rmax=1.5717    12
 N  C  Rav=1.3761 sigma=0.0433  Rmin=1.3306  Rmax=1.4376     6
 O  C  Rav=1.1931 sigma=0.0000  Rmin=1.1931  Rmax=1.1931     1

 selected bond angles (degree)
 --------------------
H19-C1-C2=111.09               H20-C1-C2=109.55               H20-C1-H19=107.76              H21-C1-C2=111.18               
H21-C1-H19=109.27              H21-C1-H20=107.86              C3-C2-C1=120.66                C8-C2-C1=120.80                
C8-C2-C3=118.52                C4-C3-C2=121.69                H22-C3-C2=119.39               H22-C3-C4=118.92               
C5-C4-C3=119.89                C6-C4-C3=118.66                C6-C4-C5=121.44                H23-C5-C4=111.54               
H24-C5-C4=109.78               H24-C5-H23=108.14              H25-C5-C4=111.23               H25-C5-H23=108.94              
H25-C5-H24=107.05              C7-C6-C4=120.74                C10-C6-C4=120.39               C10-C6-C7=118.87               
C8-C7-C6=118.75                C9-C7-C6=120.76                C9-C7-C8=120.48                C7-C8-C2=121.60                
H26-C8-C2=119.36               H26-C8-C7=119.03               H27-C9-C7=109.27               H28-C9-C7=112.33               
H28-C9-H27=107.25              H29-C9-C7=110.80               H29-C9-H27=108.00              H29-C9-H28=109.04              
O11-C10-C6=127.46              C12-C10-C6=113.05              C12-C10-O11=119.48             

 selected dihedral angles (degree)
 ---------------------------------
C3-C2-C1-H19=327.79           C3-C2-C1-H20= 86.74           C3-C2-C1-H21=205.86           C8-C2-C1-H19=149.67           
C8-C2-C1-H20=268.62           C8-C2-C1-H21= 27.74           C4-C3-C2-C1=180.73            C4-C3-C2-C8=358.89            
H22-C3-C2-C1=359.93           H22-C3-C2-C8=178.09           C5-C4-C3-C2=178.59            C5-C4-C3-H22=359.39           
C6-C4-C3-C2=359.88            C6-C4-C3-H22=180.68           H23-C5-C4-C3=206.65           H23-C5-C4-C6= 25.32           
H24-C5-C4-C3=326.50           H24-C5-C4-C6=145.17           H25-C5-C4-C3= 84.80           H25-C5-C4-C6=263.46           
C7-C6-C4-C3=  1.89            C7-C6-C4-C5=183.21            C10-C6-C4-C3=182.06           C10-C6-C4-C5=  3.37           
C8-C7-C6-C4=357.61            C8-C7-C6-C10=177.45           C9-C7-C6-C4=176.30            C9-C7-C6-C10=356.14           
C7-C8-C2-C1=178.75            C7-C8-C2-C3=  0.59            H26-C8-C2-C1=359.80           H26-C8-C2-C3=181.64           
C2-C8-C7-C6=  1.13            C2-C8-C7-C9=182.44            H26-C8-C7-C6=180.08           H26-C8-C7-C9=  1.39           
H27-C9-C7-C6=283.34           H27-C9-C7-C8=102.01           H28-C9-C7-C6= 42.23           H28-C9-C7-C8=220.90           
H29-C9-C7-C6=164.46           H29-C9-C7-C8=343.12           O11-C10-C6-C4=254.42          O11-C10-C6-C7= 74.58          
C12-C10-C6-C4= 75.60          C12-C10-C6-C7=255.77          
           -------------------------------------------------
          |                Final Singlepoint                |
           -------------------------------------------------

          ...................................................
          :                      SETUP                      :
          :.................................................:
          :  # basis functions                  91          :
          :  # atomic orbitals                  91          :
          :  # shells                           55          :
          :  # electrons                        94          :
          :  max. iterations                   250          :
          :  Hamiltonian                  GFN2-xTB          :
          :  restarted?                      false          :
          :  GBSA solvation                  false          :
          :  PC potential                    false          :
          :  electronic temp.          300.0000000     K    :
          :  accuracy                    1.0000000          :
          :  -> integral cutoff          0.2500000E+02      :
          :  -> integral neglect         0.1000000E-07      :
          :  -> SCF convergence          0.1000000E-05 Eh   :
          :  -> wf. convergence          0.1000000E-03 e    :
          :  Broyden damping             0.4000000          :
          :  net charge                          1          :
          :  unpaired electrons                  0          :
          ...................................................

 iter      E             dE          RMSdq      gap      omega  full diag
   1    -52.1626652 -0.521627E+02  0.648E-05    2.50       0.0  T
   2    -52.1626652 -0.463771E-10  0.412E-05    2.50     399.2  T
   3    -52.1626652 -0.331752E-10  0.217E-05    2.50     756.9  T

   *** convergence criteria satisfied after 3 iterations ***

         #    Occupation            Energy/Eh            Energy/eV
      -------------------------------------------------------------
         1        2.0000           -0.8992822             -24.4707
       ...           ...                  ...                  ...
        41        2.0000           -0.5537040             -15.0671
        42        2.0000           -0.5528999             -15.0452
        43        2.0000           -0.5487162             -14.9313
        44        2.0000           -0.5332645             -14.5109
        45        2.0000           -0.5207979             -14.1716
        46        2.0000           -0.5045648             -13.7299
        47        2.0000           -0.5020213             -13.6607 (HOMO)
        48                         -0.4103156             -11.1653 (LUMO)
        49                         -0.3898545             -10.6085
        50                         -0.3731871             -10.1549
        51                         -0.3334005              -9.0723
        52                         -0.3321305              -9.0377
       ...                                ...                  ...
        91                          0.5507171              14.9858
      -------------------------------------------------------------
                  HL-Gap            0.0917057 Eh            2.4954 eV
             Fermi-level           -0.4561684 Eh          -12.4130 eV

 SCC (total)                   0 d,  0 h,  0 min,  0.010 sec
 SCC setup                      ...        0 min,  0.000 sec (  0.723%)
 Dispersion                     ...        0 min,  0.000 sec (  1.663%)
 classical contributions        ...        0 min,  0.000 sec (  0.253%)
 integral evaluation            ...        0 min,  0.001 sec ( 13.728%)
 iterations                     ...        0 min,  0.004 sec ( 37.141%)
 molecular gradient             ...        0 min,  0.005 sec ( 45.437%)
 printout                       ...        0 min,  0.000 sec (  0.917%)

         :::::::::::::::::::::::::::::::::::::::::::::::::::::
         ::                     SUMMARY                     ::
         :::::::::::::::::::::::::::::::::::::::::::::::::::::
         :: total energy             -51.345561425090 Eh    ::
         :: gradient norm              0.000954190003 Eh/a0 ::
         :: HOMO-LUMO gap              2.495438180039 eV    ::
         ::.................................................::
         :: SCC energy               -52.161785006990 Eh    ::
         :: -> isotropic ES            0.101791943887 Eh    ::
         :: -> anisotropic ES         -0.006923386294 Eh    ::
         :: -> anisotropic XC          0.028631770277 Eh    ::
         :: -> dispersion             -0.038066433001 Eh    ::
         :: repulsion energy           0.816223581900 Eh    ::
         :: add. restraining           0.000000000000 Eh    ::
         :: total charge               1.000000000000 e     ::
         :::::::::::::::::::::::::::::::::::::::::::::::::::::

           -------------------------------------------------
          |                Property Printout                |
           -------------------------------------------------

    * Orbital Energies and Occupations

         #    Occupation            Energy/Eh            Energy/eV
      -------------------------------------------------------------
         1        2.0000           -0.8992822             -24.4707
       ...           ...                  ...                  ...
        35        2.0000           -0.5925019             -16.1228
        36        2.0000           -0.5913341             -16.0910
        37        2.0000           -0.5853657             -15.9286
        38        2.0000           -0.5847763             -15.9126
        39        2.0000           -0.5821049             -15.8399
        40        2.0000           -0.5691721             -15.4880
        41        2.0000           -0.5537040             -15.0671
        42        2.0000           -0.5528999             -15.0452
        43        2.0000           -0.5487162             -14.9313
        44        2.0000           -0.5332645             -14.5109
        45        2.0000           -0.5207979             -14.1716
        46        2.0000           -0.5045648             -13.7299
        47        2.0000           -0.5020213             -13.6607 (HOMO)
        48                         -0.4103156             -11.1653 (LUMO)
        49                         -0.3898545             -10.6085
        50                         -0.3731871             -10.1549
        51                         -0.3334005              -9.0723
        52                         -0.3321305              -9.0377
        53                         -0.2112393              -5.7481
        54                         -0.1807633              -4.9188
        55                         -0.1259201              -3.4265
        56                         -0.0837793              -2.2798
        57                         -0.0593651              -1.6154
        58                         -0.0463233              -1.2605
       ...                                ...                  ...
        91                          0.5507171              14.9858
      -------------------------------------------------------------
                  HL-Gap            0.0917057 Eh            2.4954 eV
             Fermi-level           -0.4561684 Eh          -12.4130 eV

     #   Z          covCN         q      C6AA      α(0)
     1   6 C        3.759    -0.119    22.833     6.812
     2   6 C        2.962     0.028    27.385     8.584
     3   6 C        2.931    -0.053    29.325     8.881
     4   6 C        2.964     0.016    27.660     8.627
     5   6 C        3.757    -0.117    22.796     6.807
     6   6 C        2.981    -0.050    29.245     8.871
     7   6 C        2.966     0.014    27.708     8.634
     8   6 C        2.930    -0.054    29.340     8.883
     9   6 C        3.757    -0.112    22.701     6.793
    10   6 C        2.814     0.243    22.929     7.845
    11   8 O        0.857    -0.289    19.581     5.933
    12   6 C        3.740    -0.059    21.715     6.649
    13   7 N        2.867     0.073    19.968     6.637
    14   6 C        3.070    -0.007    28.111     8.694
    15   6 C        3.073    -0.010    28.178     8.703
    16   7 N        2.865     0.079    19.864     6.620
    17   6 C        3.098     0.043    26.927     8.504
    18   6 C        3.692    -0.087    22.349     6.764
    19   1 H        0.925     0.057     2.232     2.336
    20   1 H        0.925     0.071     2.072     2.251
    21   1 H        0.925     0.055     2.263     2.352
    22   1 H        0.926     0.055     2.263     2.353
    23   1 H        0.925     0.048     2.345     2.395
    24   1 H        0.925     0.070     2.085     2.258
    25   1 H        0.924     0.045     2.388     2.417
    26   1 H        0.926     0.050     2.318     2.381
    27   1 H        0.925     0.077     2.014     2.219
    28   1 H        0.925     0.020     2.732     2.585
    29   1 H        0.925     0.053     2.283     2.363
    30   1 H        0.924     0.102     1.767     2.079
    31   1 H        0.924     0.111     1.690     2.033
    32   1 H        0.927     0.109     1.701     2.040
    33   1 H        0.926     0.110     1.699     2.038
    34   1 H        0.926     0.113     1.667     2.019
    35   1 H        0.925     0.101     1.777     2.085
    36   1 H        0.924     0.108     1.717     2.049
    37   1 H        0.925     0.108     1.715     2.048

 Mol. C6AA /au·bohr⁶  :      13571.111524
 Mol. C8AA /au·bohr⁸  :     319464.086495
 Mol. α(0) /au        :        181.540055


Wiberg/Mayer (AO) data.
largest (>0.10) Wiberg bond orders for each atom

 ---------------------------------------------------------------------------
     #   Z sym  total        # sym  WBO       # sym  WBO       # sym  WBO
 ---------------------------------------------------------------------------
     1   6 C    3.992 --     2 C    1.034    21 H    0.980    19 H    0.978
                            20 H    0.957
     2   6 C    3.987 --     3 C    1.406     8 C    1.399     1 C    1.034
     3   6 C    3.989 --     4 C    1.421     2 C    1.406    22 H    0.964
                             7 C    0.100
     4   6 C    3.987 --     3 C    1.421     6 C    1.360     5 C    1.025
     5   6 C    3.993 --     4 C    1.025    23 H    0.979    24 H    0.975
                            25 H    0.966
     6   6 C    3.975 --     4 C    1.360     7 C    1.352    10 C    0.993
     7   6 C    3.987 --     8 C    1.426     6 C    1.352     9 C    1.026
                             3 C    0.100
     8   6 C    3.989 --     7 C    1.426     2 C    1.399    26 H    0.964
     9   6 C    3.993 --     7 C    1.026    29 H    0.983    28 H    0.976
                            27 H    0.961
    10   6 C    3.912 --    11 O    1.925     6 C    0.993    12 C    0.889
    11   8 O    2.156 --    10 C    1.925
    12   6 C    3.933 --    13 N    0.991    30 H    0.962    31 H    0.942
                            10 C    0.889
    13   7 N    3.718 --    17 C    1.347    14 C    1.221    12 C    0.991
    14   6 C    3.948 --    15 C    1.587    13 N    1.221    32 H    0.959
    15   6 C    3.948 --    14 C    1.587    16 N    1.228    33 H    0.961
    16   7 N    3.722 --    17 C    1.357    15 C    1.228    18 C    0.991
    17   6 C    3.944 --    16 N    1.357    13 N    1.347    34 H    0.954
    18   6 C    3.933 --    16 N    0.991    35 H    0.975    37 H    0.965
                            36 H    0.960
    19   1 H    0.996 --     1 C    0.978
    20   1 H    0.994 --     1 C    0.957
    21   1 H    0.997 --     1 C    0.980
    22   1 H    0.995 --     3 C    0.964
    23   1 H    0.997 --     5 C    0.979
    24   1 H    0.995 --     5 C    0.975
    25   1 H    0.998 --     5 C    0.966
    26   1 H    0.997 --     8 C    0.964
    27   1 H    0.994 --     9 C    0.961
    28   1 H    0.999 --     9 C    0.976
    29   1 H    0.997 --     9 C    0.983
    30   1 H    0.989 --    12 C    0.962
    31   1 H    0.987 --    12 C    0.942
    32   1 H    0.988 --    14 C    0.959
    33   1 H    0.988 --    15 C    0.961
    34   1 H    0.987 --    17 C    0.954
    35   1 H    0.989 --    18 C    0.975
    36   1 H    0.988 --    18 C    0.960
    37   1 H    0.988 --    18 C    0.965
 ---------------------------------------------------------------------------

Topologies differ in total number of bonds
Writing topology from bond orders to xtbtopo.mol

molecular dipole:
                 x           y           z       tot (Debye)
 q only:       -0.864      -5.999      -4.600
   full:       -0.962      -6.065      -4.662      19.597
molecular quadrupole (traceless):
                xx          xy          yy          xz          yz          zz
 q only:      -26.818       7.098      42.470       6.413      49.171     -15.652
  q+dip:      -25.414       7.983      45.294       7.610      48.352     -19.880
   full:      -25.964       7.556      44.218       8.403      49.896     -18.254

           -------------------------------------------------
          |                Geometry Summary                 |
           -------------------------------------------------

      molecular mass/u    :      243.3247241
   center of mass at/Å    :       -0.5476936      -1.9414791      -0.7226793
  moments of inertia/u·Å² :        0.8741150E+03   0.1429165E+04   0.1731028E+04
rotational constants/cm⁻¹ :        0.1928537E-01   0.1179544E-01   0.9738512E-02

 * 33 selected distances

     #   Z          #   Z                                           value/Å
     2   6 C        3   6 C                                       1.3884877
     3   6 C        4   6 C                                       1.3866686
     4   6 C        6   6 C                                       1.3979090
     6   6 C        7   6 C                                       1.3994186
     2   6 C        8   6 C                                       1.3895653
     7   6 C        8   6 C                                       1.3850325
    10   6 C       11   8 O                                       1.1930971
    12   6 C       13   7 N                                       1.4319944
    13   7 N       14   6 C                                       1.3625016
    14   6 C       15   6 C                                       1.3621586
    15   6 C       16   7 N                                       1.3609024
    13   7 N       17   6 C                                       1.3327689
    16   7 N       17   6 C                                       1.3305863
    16   7 N       18   6 C                                       1.4375763 (max)
     1   6 C       19   1 H                                       1.0870898
     1   6 C       20   1 H                                       1.0900130
     1   6 C       21   1 H                                       1.0869051
     3   6 C       22   1 H                                       1.0799227
     5   6 C       23   1 H                                       1.0875209
     5   6 C       24   1 H                                       1.0872230
     5   6 C       25   1 H                                       1.0917569
     8   6 C       26   1 H                                       1.0798241
     9   6 C       27   1 H                                       1.0901253
     9   6 C       28   1 H                                       1.0900155
     9   6 C       29   1 H                                       1.0870900
    12   6 C       30   1 H                                       1.0915966
    12   6 C       31   1 H                                       1.0916983
    14   6 C       32   1 H                                       1.0700748 (min)
    15   6 C       33   1 H                                       1.0706441
    17   6 C       34   1 H                                       1.0731570
    18   6 C       35   1 H                                       1.0877071
    18   6 C       36   1 H                                       1.0914110
    18   6 C       37   1 H                                       1.0901502

 * 4 distinct bonds (by element types)

   Z      Z             #   av. dist./Å        max./Å        min./Å
   1 H    6 C          19     1.0854698     1.0917569     1.0700748
   6 C    6 C           7     1.3870343     1.3994186     1.3621586
   6 C    7 N           6     1.3760550     1.4375763     1.3305863
   6 C    8 O           1     1.1930971     1.1930971     1.1930971


optimized geometry written to: xtbopt.xyz


           -------------------------------------------------
          | TOTAL ENERGY              -51.345561425090 Eh   |
          | GRADIENT NORM               0.000954190003 Eh/α |
          | HOMO-LUMO GAP               2.495438180039 eV   |
           -------------------------------------------------

------------------------------------------------------------------------
 * finished run on 2024/12/20 at 02:09:40.004     
------------------------------------------------------------------------
 total:
 * wall-time:     0 d,  0 h,  0 min,  0.765 sec
 *  cpu-time:     0 d,  0 h,  0 min,  6.001 sec
 * ratio c/w:     7.844 speedup
 SCF:
 * wall-time:     0 d,  0 h,  0 min,  0.025 sec
 *  cpu-time:     0 d,  0 h,  0 min,  0.200 sec
 * ratio c/w:     7.954 speedup
 ANC optimizer:
 * wall-time:     0 d,  0 h,  0 min,  0.722 sec
 *  cpu-time:     0 d,  0 h,  0 min,  5.674 sec
 * ratio c/w:     7.858 speedup

