24
 energy: -25.683106481163 gnorm: 0.053125951514 xtb: 6.7.1 (edcfbbe)
C           -2.21154000000000        0.00844000000000        0.77124000000000
N           -0.88274000000000        0.00220000000000        0.00430000000000
C           -1.21970000000000       -0.01219000000000       -1.48642000000000
C           -0.10499000000000       -1.25460000000000        0.41125000000000
C            1.30901000000000       -1.25553000000000       -0.15595000000000
C            2.07246000000000        0.00669000000000        0.21985000000000
C            1.30687000000000        1.26014000000000       -0.18016000000000
C           -0.10697000000000        1.26771000000000        0.38732000000000
H           -2.76835000000000       -0.89479000000000        0.50432000000000
H           -1.99511000000000        0.01994000000000        1.84365000000000
H           -2.77078000000000        0.90437000000000        0.48548000000000
H           -0.29922000000000       -0.01831000000000       -2.07228000000000
H           -1.80480000000000       -0.91219000000000       -1.69807000000000
H           -1.80400000000000        0.88403000000000       -1.71559000000000
H           -0.07194000000000       -1.27205000000000        1.50736000000000
H           -0.67211000000000       -2.12519000000000        0.06298000000000
H            1.28486000000000       -1.36408000000000       -1.24602000000000
H            1.84796000000000       -2.13040000000000        0.22621000000000
H            3.05659000000000        0.00289000000000       -0.26202000000000
H            2.24855000000000        0.01726000000000        1.30265000000000
H            1.28228000000000        1.34754000000000       -1.27212000000000
H            1.84441000000000        2.14314000000000        0.18491000000000
H           -0.67559000000000        2.13067000000000        0.02288000000000
H           -0.07368000000000        1.30587000000000        1.48290000000000
24
 energy: -25.688202419209 gnorm: 0.026148494738 xtb: 6.7.1 (edcfbbe)
C           -2.18760393127570        0.00834868493415        0.75967247776678
N           -0.88761636890173        0.00224281916819        0.00831434849109
C           -1.20671980669339       -0.01188904843523       -1.45403228370568
C           -0.10668481661695       -1.22786262192069        0.40079494033115
C            1.30356417505046       -1.24850245932803       -0.16912913640925
C            2.07056754815398        0.00676902939501        0.22821806265695
C            1.30144892740103        1.25286397939820       -0.19318631731342
C           -0.10862556931897        1.24079738103445        0.37736260399168
H           -2.75607807230370       -0.88344029176746        0.50569610402620
H           -1.99318906515059        0.01972825482588        1.82965196374816
H           -2.75840935526928        0.89315903660161        0.48720330717961
H           -0.29414658991209       -0.01798049412194       -2.04177073065316
H           -1.78895386741932       -0.90183981538112       -1.68318907469233
H           -1.78826151012757        0.87387494202557       -1.70051733589587
H           -0.06580789307727       -1.24368042415642        1.49255596194935
H           -0.67201173800077       -2.09795886480090        0.06137297107526
H            1.27991283093051       -1.35587536254253       -1.25599221139100
H            1.81705152889670       -2.12928511868332        0.22360658680040
H            3.05157661892171        0.00300239879090       -0.24843655605559
H            2.23348948933305        0.01731758255821        1.30964020021648
H            1.27738042402333        1.33915966973144       -1.28191394263895
H            1.81353535102670        2.14192272472614        0.18235079568548
H           -0.67544870160473        2.10343128458033        0.02177617405581
H           -0.06749960806540        1.27725671336758        1.46862109078086
24
 energy: -25.689331554939 gnorm: 0.003565145365 xtb: 6.7.1 (edcfbbe)
C           -2.16091251648418        0.00826582483041        0.74718172793268
N           -0.88720411177076        0.00223800495171        0.00739109159011
C           -1.19551413177534       -0.01168506197631       -1.43100534937430
C           -0.11619260141725       -1.21274729257551        0.39708124199248
C            1.29428390265948       -1.24393444964159       -0.17577193750423
C            2.06838301784043        0.00675243723155        0.22674855545794
C            1.29219022958689        1.24816318699784       -0.19973674953861
C           -0.11810851817761        1.22560853292023        0.37391943161414
H           -2.74010261365462       -0.87846150832700        0.50198185378997
H           -1.98189723426012        0.01951534033175        1.81940026093550
H           -2.74229762684201        0.88831527367789        0.48379933852934
H           -0.28582388425850       -0.01769255902804       -2.02112017154355
H           -1.77635197285186       -0.89726286167649       -1.67697244991834
H           -1.77586681616967        0.86924822538881       -1.69419687190923
H           -0.05790155557076       -1.22630520677829        1.48707621338207
H           -0.67717275035824       -2.09017514391713        0.07112690056186
H            1.27513880730473       -1.34481038022692       -1.26068936055796
H            1.79050213759203       -2.13071483319671        0.21927847605867
H            3.05100926360391        0.00306587632300       -0.24096953404417
H            2.21580654173565        0.01727802073010        1.30742928601706
H            1.27266433204280        1.32802888585419       -1.28639340323060
H            1.78700039398171        2.14322181358725        0.17802691723562
H           -0.68058428077599        2.09582785070392        0.03163483520611
H           -0.05957801198070        1.25982002381534        1.46344969731744
24
 energy: -25.689372851293 gnorm: 0.001238735247 xtb: 6.7.1 (edcfbbe)
C           -2.16557341399648        0.00827566672841        0.74779764811584
N           -0.88921741097368        0.00224827837687        0.00866071556355
C           -1.19327582607348       -0.01171254447187       -1.43277101463159
C           -0.11539841416985       -1.21180748360704        0.39900259251525
C            1.29485008537783       -1.24481297724509       -0.17726429414288
C            2.06712703889575        0.00674623135989        0.22649852949045
C            1.29276127851102        1.24901306648121       -0.20124432002524
C           -0.11731429822805        1.22471262686637        0.37584009467274
H           -2.74546793180256       -0.87951494195174        0.50250793652858
H           -1.98591452194126        0.01943771650209        1.82107249141045
H           -2.74756406829853        0.88949497729999        0.48444951980865
H           -0.28164951133257       -0.01762636583649       -2.02211025393213
H           -1.77374489714304       -0.89838728045265       -1.68041317794413
H           -1.77341360645077        0.87018905678553       -1.69763344602116
H           -0.05280034153187       -1.22355129520674        1.48942632704661
H           -0.67710381885096       -2.09075655144705        0.07702484809543
H            1.27401848322098       -1.34341002899455       -1.26275658233905
H            1.79200945020513       -2.13241020789600        0.21465049142156
H            3.05040942383393        0.00306937488901       -0.24009582310894
H            2.21365709001580        0.01727552647258        1.30776683696937
H            1.27156821804728        1.32659517234837       -1.28843087652590
H            1.78850784079118        2.14482585145443        0.17338270671541
H           -0.68051051572759        2.09652068042287        0.03747688676793
H           -0.05449033237820        1.25714545112161        1.46583216354920
24
 energy: -25.689382050680 gnorm: 0.000938428214 xtb: 6.7.1 (edcfbbe)
C           -2.16732482266189        0.00827155883108        0.74611873400938
N           -0.88899476797271        0.00225193913666        0.00918338085924
C           -1.19131990818020       -0.01173824585002       -1.43346658797419
C           -0.11555763301774       -1.21144896304323        0.40160370845956
C            1.29403089363288       -1.24425153448661       -0.17904763140243
C            2.06682473152573        0.00673180639427        0.22577584401976
C            1.29195784598617        1.24841271921659       -0.20301184465480
C           -0.11747673595637        1.22441446557834        0.37841011811507
H           -2.74730499087603       -0.88004361020987        0.49973891599615
H           -1.98874660316896        0.01925469395870        1.82039121997880
H           -2.74921415978766        0.89020022323010        0.48194759333974
H           -0.27812800499128       -0.01746527351192       -2.02155691470414
H           -1.77095515926847       -0.89935081952726       -1.68230844985505
H           -1.77093483760483        0.87088618868678       -1.69949741399066
H           -0.04722337312232       -1.21852125892887        1.49214176960041
H           -0.67830417611660       -2.09262288971114        0.08639709016149
H            1.27058287507962       -1.34005311175162       -1.26494034427834
H            1.79158967892243       -2.13304447217191        0.20901209804355
H            3.05144557628221        0.00307587012540       -0.23840077139394
H            2.21089054090596        0.01726119275964        1.30764333522564
H            1.26818774259922        1.32320616216784       -1.29054365176924
H            1.78809756933264        2.14533868778271        0.16776448077244
H           -0.68170210859018        2.09855736362837        0.04671154223309
H           -0.04895017295164        1.25223730769601        1.46860377920849
24
 energy: -25.689384012455 gnorm: 0.000345720066 xtb: 6.7.1 (edcfbbe)
C           -2.16716988940230        0.00826975521113        0.74539599039678
N           -0.88891979123619        0.00225176238378        0.00916973495431
C           -1.19111901064587       -0.01174377730442       -1.43300147154020
C           -0.11525147277215       -1.21077593639423        0.40194938569257
C            1.29393880569828       -1.24429509437733       -0.17906422072507
C            2.06666249657790        0.00672242659827        0.22544870228110
C            1.29187600400313        1.24845204361595       -0.20302353430090
C           -0.11717165949243        1.22375707209295        0.37874852737075
H           -2.74674363421553       -0.87966955807821        0.49835836509325
H           -1.98973795483674        0.01916253288472        1.81950787328218
H           -2.74857018941929        0.88990430909155        0.48070590429226
H           -0.27845309376651       -0.01737615730127       -2.02128576022296
H           -1.77060646314576       -0.89911195710398       -1.68138309200428
H           -1.77075514360143        0.87054374281745       -1.69853961166117
H           -0.04673817965719       -1.21670499314164        1.49224163497548
H           -0.67810645714905       -2.09184839494123        0.08779077394906
H            1.26963056195085       -1.33954695001050       -1.26482873966474
H            1.79154029950614       -2.13341415229451        0.20833770050282
H            3.05126334246599        0.00306684426625       -0.23851528638689
H            2.21056207359064        0.01724642221234        1.30719168059566
H            1.26726789009089        1.32271009386410       -1.29041641645014
H            1.78805774607890        2.14568473015592        0.16710499323563
H           -0.68149526731596        2.09780920153967        0.04805757343603
H           -0.04849101330632        1.25046603421327        1.46871929289848
