43
 energy: -53.267287241062 gnorm: 0.065476126678 xtb: 6.7.1 (edcfbbe)
C            2.39081000000000        0.03020000000000       -0.05493000000000
C            0.89283000000000        0.11198000000000        0.08910000000000
C            0.21246000000000       -1.07853000000000        0.39824000000000
C           -1.16460000000000       -1.08553000000000        0.60795000000000
C           -1.88426000000000        0.10032000000000        0.52740000000000
C           -1.22854000000000        1.29448000000000        0.22914000000000
C            0.16192000000000        1.32122000000000        0.00447000000000
C            0.80812000000000        2.64477000000000       -0.34048000000000
N            0.84353000000000        3.05112000000000       -1.83592000000000
C           -0.25992000000000        4.07425000000000       -2.19653000000000
C           -0.69588000000000        5.28964000000000       -1.38750000000000
C           -2.08226000000000        5.58843000000000       -1.52814000000000
C           -2.67056000000000        6.73584000000000       -0.99466000000000
C           -1.89237000000000        7.63489000000000       -0.29387000000000
C           -0.53491000000000        7.37873000000000       -0.13403000000000
C            0.08455000000000        6.22715000000000       -0.67925000000000
C            1.56439000000000        6.14499000000000       -0.46313000000000
C            2.23077000000000        3.55003000000000       -2.22474000000000
C            0.58646000000000        1.83369000000000       -2.76122000000000
H            2.86577000000000        0.14494000000000        0.92411000000000
H            2.68651000000000       -0.93637000000000       -0.47846000000000
H            2.78510000000000        0.79261000000000       -0.73049000000000
H            0.75786000000000       -2.01795000000000        0.48989000000000
H           -1.67177000000000       -2.01708000000000        0.85151000000000
H           -2.95670000000000        0.09329000000000        0.71124000000000
H           -1.81777000000000        2.20951000000000        0.19032000000000
H            0.30658000000000        3.44424000000000        0.21347000000000
H            1.84059000000000        2.65084000000000        0.02662000000000
H           -1.15545000000000        3.44284000000000       -2.27505000000000
H           -0.04034000000000        4.41780000000000       -3.21598000000000
H           -2.73821000000000        4.93189000000000       -2.10228000000000
H           -3.72948000000000        6.93441000000000       -1.14644000000000
H           -2.33071000000000        8.54251000000000        0.11514000000000
H            0.05488000000000        8.11656000000000        0.41143000000000
H            2.08621000000000        6.16338000000000       -1.42233000000000
H            1.94445000000000        6.99897000000000        0.10998000000000
H            1.81350000000000        5.26043000000000        0.12582000000000
H            2.87479000000000        2.68664000000000       -2.42084000000000
H            2.15386000000000        4.16499000000000       -3.12544000000000
H            2.67586000000000        4.10369000000000       -1.40324000000000
H            1.35304000000000        1.07675000000000       -2.58104000000000
H           -0.41369000000000        1.43365000000000       -2.57425000000000
H            0.65239000000000        2.18138000000000       -3.79786000000000
43
 energy: -53.276485484746 gnorm: 0.028441257233 xtb: 6.7.1 (edcfbbe)
C            2.38079422067990        0.04504012482663       -0.07010638620686
C            0.88552766272433        0.12255459458718        0.07271103771623
C            0.20984060078672       -1.05473376245763        0.39509557979401
C           -1.15798249946229       -1.06772827887867        0.60650888025837
C           -1.87591803370842        0.11299489037430        0.52223080997041
C           -1.22374937271910        1.29253737042052        0.20198012300321
C            0.15237919541484        1.31645705356555       -0.04369986727129
C            0.80517548445235        2.64323427892822       -0.35427361496527
N            0.83393240485068        3.05498921480547       -1.83014997079263
C           -0.26152304149937        4.06686602764997       -2.17918953630728
C           -0.68815906476205        5.29118019597379       -1.37085654222848
C           -2.06085381353323        5.57081202626165       -1.51840188661658
C           -2.65262126949011        6.71123383039580       -1.00299113021658
C           -1.88370813143741        7.61745835852853       -0.29870411291080
C           -0.53552552892993        7.36579364774549       -0.13923110230104
C            0.08557607707110        6.23031307658126       -0.67434228457850
C            1.56720644578941        6.13822295519275       -0.46344489683632
C            2.20404508804116        3.53839754665001       -2.20953220417166
C            0.57845600081667        1.86373275325636       -2.72876736962370
H            2.84963993615189        0.15652502796992        0.90785134927463
H            2.67183649141413       -0.92989816535489       -0.46173353886932
H            2.79333370380888        0.80349351349569       -0.73328220290821
H            0.76122385537189       -1.98188695753940        0.48347373786504
H           -1.65980525585633       -1.99538720762057        0.84678244644418
H           -2.94127413192065        0.11135621115189        0.70669197553729
H           -1.79747833702033        2.21038574072480        0.17097001929052
H            0.27713660110315        3.43954675571006        0.17801218033860
H            1.83728479121762        2.63510556834280        0.00520028497675
H           -1.16435134150230        3.45356046121639       -2.26530746104427
H           -0.01917766570113        4.41493222748764       -3.19048417028447
H           -2.69743663146064        4.89891886066406       -2.08276633258125
H           -3.70771553692079        6.89410488211578       -1.15435699163660
H           -2.32298184658466        8.51678448344223        0.11148141612450
H            0.05929231179839        8.08923622731375        0.40196137378537
H            2.09264989464072        6.15051118789210       -1.41678358482030
H            1.91937101911715        7.00056804279221        0.10269145954786
H            1.83390765041021        5.25566936576853        0.11653677890017
H            2.85149508909803        2.68500038990218       -2.41153682021690
H            2.14173275738889        4.14737476118694       -3.10823313068738
H            2.65076841287703        4.11498202233060       -1.40782257803107
H            1.33062310548024        1.10069532821943       -2.54776211543680
H           -0.40764836994168        1.44679976245663       -2.54176746136965
H            0.64449107194496        2.18985560592396       -3.76692215991390
43
 energy: -53.278937011222 gnorm: 0.007421084221 xtb: 6.7.1 (edcfbbe)
C            2.37390620999316        0.06326613596886       -0.08400557024484
C            0.88113356162258        0.14149299179347        0.06135348887621
C            0.20679686996465       -1.03111679625978        0.38244700765231
C           -1.15702734283664       -1.04888475653100        0.59596404396909
C           -1.87796996550329        0.12876828730632        0.50372131858121
C           -1.22577601994470        1.30247207789209        0.18210473280720
C            0.14549449655379        1.32675754178387       -0.05734491185649
C            0.79719322881558        2.65245554257257       -0.36468189830169
N            0.83074385838671        3.05166509355061       -1.83093755286985
C           -0.24856221758647        4.05837618406038       -2.17450555476673
C           -0.67403202953157        5.27929920242159       -1.35633023686652
C           -2.04184619445728        5.53919493324775       -1.50302735689480
C           -2.64107433605245        6.67436862355126       -0.99898319608513
C           -1.87841466315396        7.59164712918211       -0.29875241441920
C           -0.53255693135265        7.34682651598696       -0.13893969846596
C            0.09517466600577        6.22092362808781       -0.66601115885635
C            1.57878851422125        6.13529687871088       -0.45985109158373
C            2.18164708281008        3.53124972916768       -2.20308272570807
C            0.56672083462779        1.88391426502374       -2.70384070309540
H            2.83756315173325        0.17335197621283        0.89622490048426
H            2.65953998075928       -0.91583709060810       -0.46077506087680
H            2.79730823138629        0.81796068360955       -0.74035534032910
H            0.76822295533418       -1.94717675498141        0.48064739793444
H           -1.65182872479554       -1.97276016106280        0.84866144081844
H           -2.93803972923765        0.13304456111601        0.69698729387777
H           -1.79022833900556        2.22217746808518        0.13445091368980
H            0.25701078694167        3.44296199477586        0.16097176883201
H            1.82433446546963        2.63111090616722       -0.00263346396652
H           -1.15693085880814        3.45873092475468       -2.26044437279015
H           -0.00353266336781        4.41873345571842       -3.17957500592471
H           -2.66262539471262        4.84987736881087       -2.05740131827883
H           -3.69338673872828        6.84618988740299       -1.15708447512542
H           -2.32081802567869        8.48695570254138        0.10690965734054
H            0.06704254898643        8.06465685898307        0.39711999113374
H            2.10226095085380        6.14744379950865       -1.41272561067337
H            1.91308932174544        7.00312305095749        0.10164681934749
H            1.85838374405741        5.25496351051365        0.11531736184458
H            2.83495041481650        2.68195930971369       -2.39104112343369
H            2.13424929449599        4.12825127207415       -3.11059835068703
H            2.62320777230321        4.13180646729557       -1.41613903581953
H            1.30551627989282        1.10905467957442       -2.51963549902210
H           -0.41561778228167        1.46347806552680       -2.51133741849225
H            0.62979873525738        2.18955885579239       -3.74675799175459
43
 energy: -53.279548685008 gnorm: 0.006099120283 xtb: 6.7.1 (edcfbbe)
C            2.37043965148861        0.07938366467837       -0.09006226897515
C            0.87776680093907        0.15719034499614        0.05414112452949
C            0.20330613604989       -1.01478282580547        0.37993878521563
C           -1.16066087961236       -1.03259180193558        0.59409354981163
C           -1.88480483398947        0.14352729334438        0.49271979125015
C           -1.23311812125332        1.31597137149415        0.16464347639621
C            0.14016566594174        1.34034632600850       -0.06496880657640
C            0.79447469512935        2.66538104911902       -0.36876346307218
N            0.83276160045365        3.05000123223423       -1.83565610820115
C           -0.23931282557344        4.05458131090168       -2.17888965553693
C           -0.66341442431705        5.26713291032677       -1.34919656046498
C           -2.03451600805812        5.51381304666918       -1.48666955510816
C           -2.63974527576326        6.64626716260239       -0.98477293287668
C           -1.87904016350927        7.57054533328718       -0.29116875450758
C           -0.53083649349599        7.33321025394879       -0.13251380875111
C            0.10483449051911        6.21119044871053       -0.66072873742606
C            1.58991387780630        6.13700226986585       -0.45668989951332
C            2.18147638482469        3.52348872554912       -2.20561470174878
C            0.56064624007234        1.88001810982600       -2.69472832846875
H            2.83263607958289        0.19481084219055        0.89097446430904
H            2.65522765263433       -0.90152870120747       -0.46226518578605
H            2.79567800906152        0.83010658620983       -0.74929051639347
H            0.76780926404277       -1.92929657757086        0.47623081082161
H           -1.65426042123954       -1.95672112091872        0.84723200122763
H           -2.94593130131931        0.14824355098033        0.67944465431652
H           -1.79487966069610        2.23735993420004        0.10804576795496
H            0.25042113510391        3.45541451857162        0.15262964972973
H            1.81831821802455        2.64182986261830        0.00078249648454
H           -1.15045374250669        3.46047016403001       -2.27010764007669
H            0.00589536180460        4.42558035656405       -3.17970556944828
H           -2.65007294044535        4.81306637055153       -2.03282482194845
H           -3.69376607239618        6.80855917764013       -1.14093844711199
H           -2.32525206245886        8.46500305237874        0.11116756446627
H            0.06827909630014        8.05390704601355        0.40129114492627
H            2.11158266393123        6.15393662727299       -1.41081703597990
H            1.91833575010563        7.00717017773319        0.10407315211346
H            1.87759107605916        5.25911028535423        0.11862783582008
H            2.84140844942352        2.67356545347298       -2.37094332999782
H            2.13979219800967        4.10338405269423       -3.12624851327973
H            2.61368285482451        4.14351954840982       -1.42760932232280
H            1.29307054858100        1.09742105845913       -2.50968827983464
H           -0.42480639937796        1.46616821745551       -2.49591661575684
H            0.61916772529736        2.17483329107457       -3.74152741020876
43
 energy: -53.280308724874 gnorm: 0.007973747207 xtb: 6.7.1 (edcfbbe)
C            2.36342472711031        0.10821250145073       -0.09458148101911
C            0.87097659041166        0.18392317742993        0.05295481755931
C            0.19435418901699       -0.98878446240909        0.37720448819938
C           -1.17093595780593       -1.00511351552406        0.58553952046949
C           -1.89884902652606        0.16883854745573        0.47085760159021
C           -1.24606315474681        1.34131017043366        0.14443782057395
C            0.13191278818607        1.36527285721220       -0.06384672254368
C            0.79030033370077        2.68602636888985       -0.37415107504830
N            0.83776106280647        3.04609166076943       -1.84507828383305
C           -0.22053515822238        4.05240007870748       -2.19270800894057
C           -0.64737869172744        5.24647682733349       -1.34043512567272
C           -2.02630614634728        5.47128943525172       -1.45422914836586
C           -2.64144020583414        6.59674761073509       -0.94911664148636
C           -1.88187662937701        7.53254420457699       -0.27034473413439
C           -0.52914854555811        7.30968692213004       -0.11941206632228
C            0.11917481367618        6.19495426866761       -0.65440644223589
C            1.60665922102555        6.14135228454846       -0.45466422606871
C            2.18765961256566        3.50692189796513       -2.21643233820708
C            0.55454719699981        1.86823236524325       -2.68928729927650
H            2.82786079266922        0.23416491083382        0.88472599759493
H            2.64831652594146       -0.87456162191351       -0.46208085846893
H            2.78622762391639        0.85344627799747       -0.76200055949490
H            0.76149227501574       -1.90234200300068        0.47342188409133
H           -1.66360262408769       -1.92854420099765        0.84442363763182
H           -2.96289224819768        0.17314428336276        0.64392250607574
H           -1.80576300489497        2.26391663174528        0.06887648671194
H            0.24253596538623        3.48099340821359        0.13506762061824
H            1.80955969416340        2.66539647096645        0.00770218168436
H           -1.13381292354783        3.46453096657817       -2.30348692002444
H            0.03200868377499        4.44313901033411       -3.18451502355835
H           -2.63661229802971        4.75485322435404       -1.98662313465472
H           -3.69994293178114        6.74164161540417       -1.09534478084672
H           -2.33403467724933        8.42563481610506        0.12875037154598
H            0.06687111785843        8.03673252557021        0.41156256931732
H            2.12665131112936        6.16766210823660       -1.41037446127112
H            1.92607186404496        7.01525120612326        0.10627026506376
H            1.90885155301311        5.26819150156655        0.12166929137482
H            2.85597346338437        2.65225886719011       -2.33282148480652
H            2.15711636329605        4.04721979474972       -3.16504246013920
H            2.60255192430853        4.16448425914866       -1.45762316305538
H            1.27969652647266        1.07818209089585       -2.50092495174323
H           -0.43595365208375        1.46619466439872       -2.47941222797046
H            0.60640165614139        2.14961599126863       -3.74071344091283
43
 energy: -53.280994876069 gnorm: 0.011148791707 xtb: 6.7.1 (edcfbbe)
C            2.35510518638222        0.13593167370080       -0.09204317288783
C            0.86249666499402        0.20872841635150        0.05562438346705
C            0.18287014728865       -0.96380139363025        0.37843775310516
C           -1.18395108459640       -0.97676484827611        0.57766546944435
C           -1.91286081997843        0.19584666431296        0.44997941402807
C           -1.25744062981300        1.36807629889135        0.12719535373703
C            0.12416238417347        1.38963145892775       -0.06358599560842
C            0.78760586525456        2.70536377108927       -0.38099223182888
N            0.84418939311731        3.04227663264642       -1.85692270484024
C           -0.19913314965460        4.05643606602027       -2.21338296830178
C           -0.63504318920843        5.22729266627903       -1.33539395622192
C           -2.02170740956054        5.42970393246845       -1.41894826061435
C           -2.64625461873725        6.54444924976824       -0.90176384108712
C           -1.88665254122675        7.49148017393756       -0.23923782306540
C           -0.52913102779988        7.28515460906065       -0.10407582787294
C            0.12932961158657        6.18014928044771       -0.65138997656583
C            1.61924813030448        6.14617237396439       -0.45999820607202
C            2.19928079081222        3.48694284903359       -2.22954088814314
C            0.55102228392306        1.85522833558300       -2.68922265538682
H            2.82290099461078        0.27584818273229        0.88400659026631
H            2.64251766049899       -0.84913977408614       -0.45231441258741
H            2.77264588127130        0.87516710812517       -0.77024695396462
H            0.74920031079326       -1.87805454082719        0.47606824809165
H           -1.67899342165274       -1.89952879050054        0.83557419656746
H           -2.98028250687073        0.19906116715458        0.60606655859672
H           -1.81467769109680        2.29163766023919        0.03938802164783
H            0.23689528753819        3.50794393474437        0.11347255592924
H            1.80329741749115        2.69124194491342        0.01141224735603
H           -1.11368129209606        3.47566176696072       -2.35841525618620
H            0.07365706613173        4.47050094946498       -3.19155243908929
H           -2.62948557101475        4.70132005045580       -1.93810400920736
H           -3.71024138474744        6.67059779214990       -1.02976693112577
H           -2.34416899148375        8.38140757521025        0.16178408397308
H            0.06309769135607        8.01896957028853        0.42316590023073
H            2.13681224668915        6.18197488071381       -1.41740296234090
H            1.93082619138622        7.02297425177979        0.10183948384564
H            1.93664425199189        5.27711314092176        0.11556110185390
H            2.87267371104630        2.62760681397079       -2.29199040456623
H            2.18138441504704        3.97958927448735       -3.20722220884937
H            2.59757048050753        4.18448286171355       -1.49577007931017
H            1.27218376572935        1.06275279186212       -2.49705484451074
H           -0.44239750843038        1.46251825717984       -2.47014676366242
H            0.59829500803996        2.12764491976760       -3.74302558824092
43
 energy: -53.281914678172 gnorm: 0.013282831094 xtb: 6.7.1 (edcfbbe)
C            2.34516870135210        0.16255321545063       -0.08117880167069
C            0.85209880743209        0.23254332698658        0.06327763920412
C            0.16788096495908       -0.93870446971940        0.38269579400338
C           -1.20121642214785       -0.94673132005350        0.56707268074473
C           -1.92760872583743        0.22600487868628        0.42822123538830
C           -1.26715344485396        1.39766096255348        0.11310897926205
C            0.11692762604572        1.41439739878505       -0.06287567528195
C            0.78590206614000        2.72365194612561       -0.39023501600894
N            0.85215388776614        3.03937155446074       -1.87152235753702
C           -0.17220268160534        4.06957661366270       -2.24263073938694
C           -0.62556238593081        5.20882290134716       -1.33360916798592
C           -2.01935058043756        5.38481762234796       -1.37941596577624
C           -2.65379885239992        6.48397597292600       -0.83983413971647
C           -1.89454021663680        7.44304168934800       -0.19463294588590
C           -0.53122154890704        7.25801668637524       -0.08517213643264
C            0.13574052398787        6.16682324405398       -0.65182464867605
C            1.62827243761219        6.15191240522129       -0.47556912347197
C            2.21567392192860        3.46307004229814       -2.24526417284041
C            0.54877341869971        1.84405071430195       -2.69487960471105
H            2.81545535476369        0.32099320708489        0.89077041701545
H            2.63745072139687       -0.82597596217577       -0.42923511822254
H            2.75651826215645        0.89382934683210       -0.77286755604493
H            0.73056446939612       -1.85463339896770        0.48668507744994
H           -1.70144268627271       -1.86792970458400        0.82206558157330
H           -2.99790516163714        0.22869662055473        0.56771568128364
H           -1.82137449218076        2.32198508922068        0.01633588284839
H            0.23296486433581        3.53537832818392        0.08761050807208
H            1.79876587538997        2.71864646067799        0.01079181892389
H           -1.08677507698552        3.49924379091667       -2.44177087019805
H            0.13825411955076        4.51336325045252       -3.19902280575871
H           -2.62569637402438        4.64703913900971       -1.88636038710398
H           -3.72396130324860        6.58882995793620       -0.94054261470305
H           -2.35807405815691        8.32657201113849        0.21495028329605
H            0.05654179607541        7.99947729262152        0.43677900507295
H            2.14022270944897        6.19667761581784       -1.43604806589005
H            1.93408401384731        7.03074271567775        0.08698078752232
H            1.96205269528656        5.28625507723176        0.09670168831392
H            2.88952123020831        2.60093914322251       -2.25050207362402
H            2.21321488089151        3.90130670091257       -3.24979475510486
H            2.59906042269319        4.20015136054602       -1.54337499791902
H            1.26747889539533        1.05145478504731       -2.49893401165085
H           -0.44588094452900        1.45985940936976       -2.46706444540275
H            0.59283228902830        2.10983237811253       -3.74987086296621
43
 energy: -53.283171218912 gnorm: 0.014269238833 xtb: 6.7.1 (edcfbbe)
C            2.33444778145584        0.18251531661430       -0.05976008995732
C            0.84039248392596        0.25141287330395        0.07476170665313
C            0.14978169523083       -0.91641551878414        0.39064541179894
C           -1.22200032189109       -0.91770609785289        0.55611588667505
C           -1.94130024873003        0.25726873873122        0.40840016347967
C           -1.27318154855319        1.42712777194891        0.10196636991239
C            0.11152806714521        1.43613155314954       -0.06497207122411
C            0.78645705644593        2.73832853769103       -0.40253302607864
N            0.86160247556177        3.03918944500154       -1.88829757813388
C           -0.14050857478563        4.09464326056535       -2.27791958607833
C           -0.62075087064632        5.19440403463653       -1.33648454893080
C           -2.01884712897913        5.34006936155147       -1.34062245006553
C           -2.66272353569148        6.41807564633927       -0.76664566241231
C           -1.90604130009256        7.38847882923962       -0.13596259564777
C           -0.53634815359104        7.23036633883552       -0.06264170815708
C            0.13630592989610        6.15835576639764       -0.65695688864201
C            1.63139315770509        6.15906346135324       -0.50503050462891
C            2.23606963815225        3.43878293450540       -2.26229749453751
C            0.54688474299791        1.83843961601154       -2.70653359407851
H            2.80352208815621        0.36413755313994        0.90833589727052
H            2.63377547894917       -0.81125956112006       -0.38816334301870
H            2.74150209326959        0.90245855365800       -0.76681909034384
H            0.70526983654960       -1.83523187272331        0.50636791800999
H           -1.73076733789074       -1.83645802723657        0.80440664183707
H           -3.01327806012356        0.26115285261911        0.53427362674233
H           -1.82368853018761        2.35228955000618        0.00159037797863
H            0.23221220979576        3.55862984155753        0.05980842466830
H            1.79782078894429        2.74316211673850        0.00323561276876
H           -1.05153120371426        3.53943892162005       -2.54801899355551
H            0.22406715758645        4.57080773750501       -3.20278010047926
H           -2.62394853172932        4.59715633929930       -1.83992666813738
H           -3.73823290018443        6.50099212883498       -0.83242982393708
H           -2.37659786866620        8.26080463681676        0.29132340888503
H            0.04633132280288        7.97964636365001        0.45292461287717
H            2.13214033874981        6.20961462665719       -1.47109878579679
H            1.93634311408929        7.03864842696153        0.05682357668008
H            1.98107007298525        5.29531107751757        0.06063733922917
H            2.90439420545668        2.57727952929790       -2.21297704565997
H            2.25007393688873        3.82022321905490       -3.28663020732337
H            2.60885240777176        4.21032990998171       -1.59749778302654
H            1.26455170958587        1.04722036043998       -2.50802282589645
H           -0.44729580467410        1.46177483198384       -2.47146473416538
H            0.59006213002737        2.10092901449809       -3.76139977554858
43
 energy: -53.284597497277 gnorm: 0.013507766605 xtb: 6.7.1 (edcfbbe)
C            2.32470541785337        0.18975344064773       -0.03214976257689
C            0.82946043314094        0.26186470634914        0.08592092496074
C            0.13113491469794       -0.90010466208143        0.39904971412570
C           -1.24294727306331       -0.89447653091563        0.54550740492052
C           -1.95146819600962        0.28484110194122        0.39254714279663
C           -1.27392884991133        1.45089625759384        0.09219679661624
C            0.10947747036480        1.45079281439156       -0.07242268640318
C            0.78977903487992        2.74756018928958       -0.41668324011475
N            0.87116265330963        3.04398517186359       -1.90420628490053
C           -0.10949921022411        4.12809717014829       -2.30914206074292
C           -0.62006577055199        5.18848503094497       -1.34347488653201
C           -2.01751168861846        5.30147208999031       -1.31119609640909
C           -2.66863668189930        6.35481486672663       -0.69648297744465
C           -1.91903961936105        7.33370638293885       -0.07138517781173
C           -0.54396040135388        7.20662517041746       -0.03854154250066
C            0.13127757080884        6.15869350655446       -0.66546287814081
C            1.62849924021070        6.16917585065659       -0.54625993720785
C            2.25524941713208        3.41971612053908       -2.27751486135006
C            0.54446591163752        1.84416731614430       -2.72033951442596
H            2.78617621437427        0.39519038820683        0.93412872611744
H            2.63008087822494       -0.81109594586677       -0.33358687997026
H            2.73423339862595        0.89447425335266       -0.75305801668525
H            0.67747621958764       -1.82195949176933        0.53017354006560
H           -1.76142149093391       -1.80986295219941        0.78609171512413
H           -3.02318833041399        0.29323975856715        0.51215329016258
H           -1.82040030996035        2.37723904771883       -0.00779266490232
H            0.23452694910578        3.57199495947192        0.03647043569365
H            1.80108449721264        2.75773733989925       -0.01117148929948
H           -1.01028567731537        3.59164638427724       -2.64430813162122
H            0.30898112440980        4.62879407781972       -3.19662541724446
H           -2.61967718515078        4.55786242365355       -1.81126422081290
H           -3.74656003559020        6.41778586318376       -0.72689133242822