      -----------------------------------------------------------      
     |                   =====================                   |     
     |                           x T B                           |     
     |                   =====================                   |     
     |                         S. Grimme                         |     
     |          Mulliken Center for Theoretical Chemistry        |     
     |                    University of Bonn                     |     
      -----------------------------------------------------------      

   * xtb version 6.7.1 (edcfbbe) compiled by 'conda@3ef47c1a292c' on 2024-11-25

   xtb is free software: you can redistribute it and/or modify it under
   the terms of the GNU Lesser General Public License as published by
   the Free Software Foundation, either version 3 of the License, or
   (at your option) any later version.
   
   xtb is distributed in the hope that it will be useful,
   but WITHOUT ANY WARRANTY; without even the implied warranty of
   MERCHANTABILITY or FITNESS FOR A PARTICULAR PURPOSE.  See the
   GNU Lesser General Public License for more details.
   
   Cite this work as:
   * C. Bannwarth, E. Caldeweyher, S. Ehlert, A. Hansen, P. Pracht,
     J. Seibert, S. Spicher, S. Grimme, WIREs Comput. Mol. Sci., 2020, 11,
     e01493. DOI: 10.1002/wcms.1493
   
   for GFN2-xTB:
   * C. Bannwarth, S. Ehlert and S. Grimme., J. Chem. Theory Comput., 2019,
     15, 1652-1671. DOI: 10.1021/acs.jctc.8b01176
   for GFN1-xTB:
   * S. Grimme, C. Bannwarth, P. Shushkov, J. Chem. Theory Comput., 2017,
     13, 1989-2009. DOI: 10.1021/acs.jctc.7b00118
   for GFN0-xTB:
   * P. Pracht, E. Caldeweyher, S. Ehlert, S. Grimme, ChemRxiv, 2019, preprint.
     DOI: 10.26434/chemrxiv.8326202.v1
   for GFN-FF:
   * S. Spicher and S. Grimme, Angew. Chem. Int. Ed., 2020, 59, 15665-15673.
     DOI: 10.1002/anie.202004239
   
   for ALPB and GBSA implicit solvation:
   * S. Ehlert, M. Stahn, S. Spicher, S. Grimme, J. Chem. Theory Comput.,
     2021, 17, 4250-4261. DOI: 10.1021/acs.jctc.1c00471
   
   for ddCOSMO and CPCM-X implicit solvation:
   * M. Stahn, S. Ehlert, S. Grimme, J. Phys. Chem. A,
     2023, XX, XXXX-XXXX. DOI: 10.1021/acs.jpca.3c04382
   
   for DFT-D4:
   * E. Caldeweyher, C. Bannwarth and S. Grimme, J. Chem. Phys., 2017,
     147, 034112. DOI: 10.1063/1.4993215
   * E. Caldeweyher, S. Ehlert, A. Hansen, H. Neugebauer, S. Spicher,
     C. Bannwarth and S. Grimme, J. Chem. Phys., 2019, 150, 154122.
     DOI: 10.1063/1.5090222
   * E. Caldeweyher, J.-M. Mewes, S. Ehlert and S. Grimme, Phys. Chem. Chem. Phys.
     2020, 22, 8499-8512. DOI: 10.1039/D0CP00502A
   
   for sTDA-xTB:
   * S. Grimme and C. Bannwarth, J. Chem. Phys., 2016, 145, 054103.
     DOI: 10.1063/1.4959605
   
   in the mass-spec context:
   * V. Asgeirsson, C. Bauer and S. Grimme, Chem. Sci., 2017, 8, 4879.
     DOI: 10.1039/c7sc00601b
   * J. Koopman and S. Grimme, ACS Omega 2019, 4, 12, 15120-15133.
     DOI: 10.1021/acsomega.9b02011
   
   for metadynamics refer to:
   * S. Grimme, J. Chem. Theory Comput., 2019, 155, 2847-2862
     DOI: 10.1021/acs.jctc.9b00143
   
   for SPH calculations refer to:
   * S. Spicher and S. Grimme, J. Chem. Theory Comput., 2021, 17, 1701-1714
     DOI: 10.1021/acs.jctc.0c01306
   
   for ONIOM refer to:
   * C. Plett, A. Katbashev, S. Ehlert, S. Grimme, M. Bursch,
     Phys. Chem. Chem. Phys., 2023, 25, 17860-17868. DOI: 10.1039/D3CP02178E
   
   for DIPRO refer to:
   * J. Kohn, N. Gildemeister, S. Grimme, D. Fazzi, A. Hansen,
     J. Chem. Phys., 2023, just accepted.
   
   for PTB refer to:
   * S. Grimme, M. Mueller, A. Hansen, J. Chem. Phys., 2023, 158, 124111.
     DOI: 10.1063/5.0137838
   
   with help from (in alphabetical order)
   P. Atkinson, C. Bannwarth, F. Bohle, G. Brandenburg, E. Caldeweyher
   M. Checinski, S. Dohm, S. Ehlert, S. Ehrlich, I. Gerasimov, C. Hölzer
   A. Katbashev, J. Kohn, J. Koopman, C. Lavigne, S. Lehtola, F. März, M. Müller,
   F. Musil, H. Neugebauer, J. Pisarek, C. Plett, P. Pracht, F. Pultar,
   J. Seibert, P. Shushkov, S. Spicher, M. Stahn, M. Steiner, T. Strunk,
   J. Stückrath, T. Rose, and J. Unsleber
   
 * started run on 2024/12/20 at 02:11:02.786     
   ID    Z sym.   atoms
    1   35 Br     1, 25
    2    6 C      2-8, 10, 12, 13, 15-17, 19-24
    3    8 O      9, 18
    4    7 N      11, 14
    5    1 H      26-40

           -------------------------------------------------
          |                Calculation Setup                |
           -------------------------------------------------

          program call               : xtb C0225.xyz --opt --namespace C0225 --charge +1
          calculation namespace      : C0225
          coordinate file            : C0225.xyz
          omp threads                :                     8


           -------------------------------------------------
          |                 G F N 2 - x T B                 |
           -------------------------------------------------

        Reference                      10.1021/acs.jctc.8b01176
      * Hamiltonian:
        H0-scaling (s, p, d)           1.850000    2.230000    2.230000
        zeta-weighting                 0.500000
      * Dispersion:
        s8                             2.700000
        a1                             0.520000
        a2                             5.000000
        s9                             5.000000
      * Repulsion:
        kExp                           1.500000    1.000000
        rExp                           1.000000
      * Coulomb:
        alpha                          2.000000
        third order                    shell-resolved
        anisotropic                    true
        a3                             3.000000
        a5                             4.000000
        cn-shift                       1.200000
        cn-exp                         4.000000
        max-rad                        5.000000


          ...................................................
          :                      SETUP                      :
          :.................................................:
          :  # basis functions                 127          :
          :  # atomic orbitals                 125          :
          :  # shells                           67          :
          :  # electrons                       126          :
          :  max. iterations                   250          :
          :  Hamiltonian                  GFN2-xTB          :
          :  restarted?                      false          :
          :  GBSA solvation                  false          :
          :  PC potential                    false          :
          :  electronic temp.          300.0000000     K    :
          :  accuracy                    1.0000000          :
          :  -> integral cutoff          0.2500000E+02      :
          :  -> integral neglect         0.1000000E-07      :
          :  -> SCF convergence          0.1000000E-05 Eh   :
          :  -> wf. convergence          0.1000000E-03 e    :
          :  Broyden damping             0.4000000          :
          :  net charge                          1          :
          :  unpaired electrons                  0          :
          ...................................................

 iter      E             dE          RMSdq      gap      omega  full diag
   1    -70.7840277 -0.707840E+02  0.541E+00    2.90       0.0  T
   2    -70.9361917 -0.152164E+00  0.333E+00    2.26       1.0  T
   3    -70.9382736 -0.208185E-02  0.165E+00    2.19       1.0  T
   4    -70.9626717 -0.243981E-01  0.443E-01    1.89       1.0  T
   5    -70.9650844 -0.241272E-02  0.276E-01    1.99       1.0  T
   6    -70.9656819 -0.597494E-03  0.129E-01    2.04       1.0  T
   7    -70.9658539 -0.172006E-03  0.762E-02    2.01       1.0  T
   8    -70.9658880 -0.341129E-04  0.573E-02    2.02       1.0  T
   9    -70.9659052 -0.171960E-04  0.357E-02    2.02       1.0  T
  10    -70.9659221 -0.168871E-04  0.125E-02    2.02       1.3  T
  11    -70.9659233 -0.124793E-05  0.679E-03    2.02       2.3  T
  12    -70.9659236 -0.235161E-06  0.247E-03    2.01       6.4  T
  13    -70.9659237 -0.110047E-06  0.118E-03    2.02      13.4  T
  14    -70.9659237 -0.270258E-08  0.710E-04    2.02      22.3  T
  15    -70.9659237 -0.529081E-08  0.419E-04    2.02      37.8  T

   *** convergence criteria satisfied after 15 iterations ***

         #    Occupation            Energy/Eh            Energy/eV
      -------------------------------------------------------------
         1        2.0000           -0.9341595             -25.4198
       ...           ...                  ...                  ...
        57        2.0000           -0.5412527             -14.7282
        58        2.0000           -0.5405508             -14.7091
        59        2.0000           -0.5364590             -14.5978
        60        2.0000           -0.5104351             -13.8896
        61        2.0000           -0.5073540             -13.8058
        62        2.0000           -0.5067321             -13.7889
        63        2.0000           -0.5038279             -13.7099 (HOMO)
        64                         -0.4297596             -11.6944 (LUMO)
        65                         -0.4259820             -11.5916
        66                         -0.4186081             -11.3909
        67                         -0.3850004             -10.4764
        68                         -0.3657940              -9.9538
       ...                                ...                  ...
       125                          0.4976037              13.5405
      -------------------------------------------------------------
                  HL-Gap            0.0740683 Eh            2.0155 eV
             Fermi-level           -0.4667938 Eh          -12.7021 eV

 SCC (total)                   0 d,  0 h,  0 min,  0.069 sec
 SCC setup                      ...        0 min,  0.000 sec (  0.229%)
 Dispersion                     ...        0 min,  0.001 sec (  0.780%)
 classical contributions        ...        0 min,  0.000 sec (  0.082%)
 integral evaluation            ...        0 min,  0.004 sec (  6.204%)
 iterations                     ...        0 min,  0.032 sec ( 46.215%)
 molecular gradient             ...        0 min,  0.032 sec ( 46.118%)
 printout                       ...        0 min,  0.000 sec (  0.343%)

         :::::::::::::::::::::::::::::::::::::::::::::::::::::
         ::                     SUMMARY                     ::
         :::::::::::::::::::::::::::::::::::::::::::::::::::::
         :: total energy             -70.041428770288 Eh    ::
         :: gradient norm              0.103382102248 Eh/a0 ::
         :: HOMO-LUMO gap              2.015500411650 eV    ::
         ::.................................................::
         :: SCC energy               -70.964682097598 Eh    ::
         :: -> isotropic ES            0.132102322005 Eh    ::
         :: -> anisotropic ES         -0.010197262446 Eh    ::
         :: -> anisotropic XC          0.034958042710 Eh    ::
         :: -> dispersion             -0.045638888481 Eh    ::
         :: repulsion energy           0.923253327310 Eh    ::
         :: add. restraining           0.000000000000 Eh    ::
         :: total charge               1.000000000000 e     ::
         :::::::::::::::::::::::::::::::::::::::::::::::::::::

      ----------------------------------------------------------- 
     |                   =====================                   |
     |                        A N C O P T                        |
     |                   =====================                   |
     |               Approximate Normal Coordinate               |
     |                Rational Function Optimizer                |
      ----------------------------------------------------------- 
      ----------------------------------------------------------- 
     |                   =====================                   |
     |                        A N C O P T                        |
     |                   =====================                   |
     |               Approximate Normal Coordinate               |
     |                Rational Function Optimizer                |
      ----------------------------------------------------------- 

          ...................................................
          :                      SETUP                      :
          :.................................................:
          :   optimization level            normal          :
          :   max. optcycles                   200          :
          :   ANC micro-cycles                  20          :
          :   degrees of freedom               114          :
          :.................................................:
          :   RF solver                   davidson          :
          :   write xtbopt.log                true          :
          :   linear?                        false          :
          :   energy convergence         0.5000000E-05 Eh   :
          :   grad. convergence          0.1000000E-02 Eh/α :
          :   maxmium RF displ.          1.0000000          :
          :   Hlow (freq-cutoff)         0.1000000E-01      :
          :   Hmax (freq-cutoff)         5.0000000          :
          :   S6 in model hess.         20.0000000          :
          ...................................................

generating ANC from exact Hessian ...
Using Lindh-Hessian (1995)
 Shifting diagonal of input Hessian by    9.8279428046790067E-003
 Lowest  eigenvalues of input Hessian
    0.000000    0.000000    0.000000    0.000000    0.000000    0.000000
    0.010000    0.010154    0.010354    0.010619    0.010916    0.011450
    0.012526    0.013387    0.015347    0.017455    0.018351    0.019120
 Highest eigenvalues
    1.917383    1.961991    2.046330    2.078603    2.084307    2.104464


........................................................................
.............................. CYCLE    1 ..............................
........................................................................

 iter      E             dE          RMSdq      gap      omega  full diag
   1    -70.9659237 -0.709659E+02  0.206E-04    2.02       0.0  T
   2    -70.9659237 -0.206924E-09  0.155E-04    2.02     102.0  T
   3    -70.9659237 -0.903100E-10  0.120E-04    2.02     131.9  T
     SCC iter.                  ...        0 min,  0.013 sec
     gradient                   ...        0 min,  0.015 sec
 * total energy  :   -70.0414288 Eh     change       -0.1309303E-08 Eh
   gradient norm :     0.1033782 Eh/α   predicted     0.0000000E+00 (-100.00%)
   displ. norm   :     0.3049016 α      lambda       -0.1504959E-01
   maximum displ.:     0.1248738 α      in ANC's #13, #39, #68, ...

........................................................................
.............................. CYCLE    2 ..............................
........................................................................

 iter      E             dE          RMSdq      gap      omega  full diag
   1    -71.0202278 -0.710202E+02  0.199E-01    2.15       0.0  T
   2    -71.0204090 -0.181260E-03  0.111E-01    2.12       1.0  T
   3    -71.0204083  0.713398E-06  0.514E-02    2.12       1.0  T
   4    -71.0204202 -0.118590E-04  0.132E-02    2.12       1.2  T
   5    -71.0204253 -0.509089E-05  0.616E-03    2.12       2.6  T
   6    -71.0204255 -0.237470E-06  0.417E-03    2.12       3.8  T
   7    -71.0204256 -0.132070E-06  0.262E-03    2.12       6.0  T
   8    -71.0204257 -0.310584E-07  0.178E-03    2.12       8.9  T
   9    -71.0204257 -0.241102E-07  0.884E-04    2.12      17.9  T
  10    -71.0204257 -0.107774E-07  0.326E-04    2.12      48.4  T
     SCC iter.                  ...        0 min,  0.023 sec
     gradient                   ...        0 min,  0.007 sec
 * total energy  :   -70.0515541 Eh     change       -0.1012528E-01 Eh
   gradient norm :     0.0452914 Eh/α   predicted    -0.8234913E-02 ( -18.67%)
   displ. norm   :     0.2681525 α      lambda       -0.4686396E-02
   maximum displ.:     0.1207566 α      in ANC's #13, #9, #8, ...

........................................................................
.............................. CYCLE    3 ..............................
........................................................................

 iter      E             dE          RMSdq      gap      omega  full diag
   1    -71.0490420 -0.710490E+02  0.157E-01    2.18       0.0  T
   2    -71.0491639 -0.121969E-03  0.840E-02    2.17       1.0  T
   3    -71.0491645 -0.557589E-06  0.411E-02    2.18       1.0  T
   4    -71.0491705 -0.598043E-05  0.104E-02    2.18       1.5  T
   5    -71.0491739 -0.340709E-05  0.500E-03    2.18       3.2  T
   6    -71.0491741 -0.195581E-06  0.345E-03    2.18       4.6  T
   7    -71.0491741 -0.803402E-07  0.219E-03    2.18       7.2  T
   8    -71.0491742 -0.182339E-07  0.135E-03    2.18      11.7  T
   9    -71.0491742 -0.247575E-07  0.519E-04    2.18      30.5  T
  10    -71.0491742 -0.198060E-08  0.209E-04    2.18      75.5  T
     SCC iter.                  ...        0 min,  0.020 sec
     gradient                   ...        0 min,  0.007 sec
 * total energy  :   -70.0541590 Eh     change       -0.2604938E-02 Eh
   gradient norm :     0.0149588 Eh/α   predicted    -0.2516417E-02 (  -3.40%)
   displ. norm   :     0.1570650 α      lambda       -0.7207844E-03
   maximum displ.:     0.0737187 α      in ANC's #9, #8, #3, ...

........................................................................
.............................. CYCLE    4 ..............................
........................................................................

 iter      E             dE          RMSdq      gap      omega  full diag
   1    -71.0483778 -0.710484E+02  0.676E-02    2.17       0.0  T
   2    -71.0483866 -0.880958E-05  0.381E-02    2.19       1.0  T
   3    -71.0483797  0.687825E-05  0.183E-02    2.18       1.0  T
   4    -71.0483883 -0.861650E-05  0.466E-03    2.19       3.4  T
   5    -71.0483890 -0.644562E-06  0.143E-03    2.19      11.0  T
   6    -71.0483890 -0.938898E-08  0.898E-04    2.19      17.6  T
   7    -71.0483890 -0.923815E-08  0.419E-04    2.19      37.8  T
     SCC iter.                  ...        0 min,  0.016 sec
     gradient                   ...        0 min,  0.007 sec
 * total energy  :   -70.0546197 Eh     change       -0.4606983E-03 Eh
   gradient norm :     0.0066936 Eh/α   predicted    -0.3693887E-03 ( -19.82%)
   displ. norm   :     0.1783023 α      lambda       -0.3442208E-03
   maximum displ.:     0.0828156 α      in ANC's #3, #9, #8, ...

........................................................................
.............................. CYCLE    5 ..............................
........................................................................

 iter      E             dE          RMSdq      gap      omega  full diag
   1    -71.0456640 -0.710457E+02  0.588E-02    2.18       0.0  T
   2    -71.0456678 -0.378576E-05  0.340E-02    2.19       1.0  T
   3    -71.0456609  0.687163E-05  0.149E-02    2.19       1.1  T
   4    -71.0456691 -0.819927E-05  0.272E-03    2.19       5.8  T
   5    -71.0456693 -0.158246E-06  0.101E-03    2.19      15.7  T
   6    -71.0456693 -0.771318E-08  0.664E-04    2.19      23.8  T
   7    -71.0456693 -0.607672E-08  0.330E-04    2.19      48.0  T
     SCC iter.                  ...        0 min,  0.014 sec
     gradient                   ...        0 min,  0.007 sec
 * total energy  :   -70.0548505 Eh     change       -0.2308462E-03 Eh
   gradient norm :     0.0039987 Eh/α   predicted    -0.1775968E-03 ( -23.07%)
   displ. norm   :     0.1794063 α      lambda       -0.1802347E-03
   maximum displ.:     0.0954252 α      in ANC's #3, #4, #9, ...

........................................................................
.............................. CYCLE    6 ..............................
........................................................................

 iter      E             dE          RMSdq      gap      omega  full diag
   1    -71.0444891 -0.710445E+02  0.581E-02    2.18       0.0  T
   2    -71.0444905 -0.141328E-05  0.335E-02    2.19       1.0  T
   3    -71.0444865  0.401927E-05  0.106E-02    2.19       1.5  T
   4    -71.0444912 -0.470037E-05  0.233E-03    2.19       6.8  T
   5    -71.0444912 -0.571352E-07  0.113E-03    2.19      14.0  T
   6    -71.0444912 -0.976527E-08  0.669E-04    2.19      23.6  T
   7    -71.0444912 -0.600828E-08  0.432E-04    2.19      36.6  T
     SCC iter.                  ...        0 min,  0.020 sec
     gradient                   ...        0 min,  0.007 sec
 * total energy  :   -70.0549837 Eh     change       -0.1332081E-03 Eh
   gradient norm :     0.0045958 Eh/α   predicted    -0.9302080E-04 ( -30.17%)
   displ. norm   :     0.2081563 α      lambda       -0.1600596E-03
   maximum displ.:     0.1174022 α      in ANC's #3, #4, #6, ...

........................................................................
.............................. CYCLE    7 ..............................
........................................................................

 iter      E             dE          RMSdq      gap      omega  full diag
   1    -71.0443123 -0.710443E+02  0.686E-02    2.19       0.0  T
   2    -71.0443138 -0.157095E-05  0.397E-02    2.19       1.0  T
   3    -71.0443095  0.434576E-05  0.111E-02    2.19       1.4  T
   4    -71.0443146 -0.507499E-05  0.236E-03    2.19       6.7  T
   5    -71.0443146 -0.619260E-07  0.113E-03    2.19      14.0  T
   6    -71.0443146 -0.108517E-07  0.607E-04    2.19      26.1  T
   7    -71.0443146 -0.507058E-08  0.390E-04    2.19      40.5  T
     SCC iter.                  ...        0 min,  0.017 sec
     gradient                   ...        0 min,  0.007 sec
 * total energy  :   -70.0551093 Eh     change       -0.1255237E-03 Eh
   gradient norm :     0.0042092 Eh/α   predicted    -0.8349864E-04 ( -33.48%)
   displ. norm   :     0.2466190 α      lambda       -0.1650558E-03
   maximum displ.:     0.1424485 α      in ANC's #3, #4, #6, ...

........................................................................
.............................. CYCLE    8 ..............................
........................................................................

 iter      E             dE          RMSdq      gap      omega  full diag
   1    -71.0450293 -0.710450E+02  0.842E-02    2.19       0.0  T
   2    -71.0450311 -0.181056E-05  0.487E-02    2.19       1.0  T
   3    -71.0450274  0.375233E-05  0.111E-02    2.19       1.4  T
   4    -71.0450318 -0.442153E-05  0.279E-03    2.19       5.7  T
   5    -71.0450319 -0.782798E-07  0.136E-03    2.19      11.6  T
   6    -71.0450319 -0.146923E-07  0.766E-04    2.19      20.7  T
   7    -71.0450319 -0.609326E-08  0.534E-04    2.19      29.6  T
     SCC iter.                  ...        0 min,  0.014 sec
     gradient                   ...        0 min,  0.007 sec
 * total energy  :   -70.0552418 Eh     change       -0.1325134E-03 Eh
   gradient norm :     0.0033108 Eh/α   predicted    -0.8754803E-04 ( -33.93%)
   displ. norm   :     0.2941976 α      lambda       -0.1746475E-03
   maximum displ.:     0.1729558 α      in ANC's #3, #4, #6, ...

........................................................................
.............................. CYCLE    9 ..............................
........................................................................

 iter      E             dE          RMSdq      gap      omega  full diag
   1    -71.0458031 -0.710458E+02  0.104E-01    2.19       0.0  T
   2    -71.0458052 -0.205245E-05  0.600E-02    2.19       1.0  T
   3    -71.0458019  0.328849E-05  0.113E-02    2.19       1.4  T
   4    -71.0458059 -0.402243E-05  0.370E-03    2.19       4.3  T
   5    -71.0458060 -0.108900E-06  0.174E-03    2.19       9.1  T
   6    -71.0458061 -0.275270E-07  0.106E-03    2.19      14.9  T
   7    -71.0458061 -0.798190E-08  0.778E-04    2.19      20.3  T
   8    -71.0458061 -0.277873E-08  0.378E-04    2.19      41.8  T
     SCC iter.                  ...        0 min,  0.016 sec
     gradient                   ...        0 min,  0.007 sec
 * total energy  :   -70.0553873 Eh     change       -0.1455147E-03 Eh
   gradient norm :     0.0037873 Eh/α   predicted    -0.9488203E-04 ( -34.80%)
   displ. norm   :     0.3851259 α      lambda       -0.2176292E-03
   maximum displ.:     0.2260380 α      in ANC's #3, #4, #6, ...

........................................................................
.............................. CYCLE   10 ..............................
........................................................................

 iter      E             dE          RMSdq      gap      omega  full diag
   1    -71.0460698 -0.710461E+02  0.138E-01    2.18       0.0  T
   2    -71.0460726 -0.271998E-05  0.799E-02    2.19       1.0  T
   3    -71.0460687  0.383238E-05  0.130E-02    2.19       1.2  T
   4    -71.0460736 -0.490976E-05  0.471E-03    2.19       3.4  T
   5    -71.0460738 -0.152476E-06  0.216E-03    2.19       7.3  T
   6    -71.0460738 -0.474731E-07  0.137E-03    2.19      11.6  T
   7    -71.0460738 -0.110205E-07  0.976E-04    2.19      16.2  T
   8    -71.0460738 -0.445296E-08  0.443E-04    2.19      35.7  T
     SCC iter.                  ...        0 min,  0.016 sec
     gradient                   ...        0 min,  0.007 sec
 * total energy  :   -70.0555765 Eh     change       -0.1891869E-03 Eh
   gradient norm :     0.0054266 Eh/α   predicted    -0.1249546E-03 ( -33.95%)
   displ. norm   :     0.5365735 α      lambda       -0.3158667E-03
   maximum displ.:     0.3133264 α      in ANC's #3, #4, #6, ...

........................................................................
.............................. CYCLE   11 ..............................
........................................................................

 iter      E             dE          RMSdq      gap      omega  full diag
   1    -71.0450740 -0.710451E+02  0.195E-01    2.18       0.0  T
   2    -71.0450794 -0.539178E-05  0.112E-01    2.18       1.0  T
   3    -71.0450732  0.624126E-05  0.175E-02    2.18       1.0  T
   4    -71.0450815 -0.830098E-05  0.695E-03    2.18       2.3  T
   5    -71.0450818 -0.358473E-06  0.305E-03    2.18       5.2  T
   6    -71.0450819 -0.953531E-07  0.196E-03    2.18       8.1  T
   7    -71.0450819 -0.223638E-07  0.138E-03    2.18      11.5  T
   8    -71.0450820 -0.940913E-08  0.609E-04    2.18      26.0  T
   9    -71.0450820 -0.439087E-08  0.248E-04    2.18      63.8  T
     SCC iter.                  ...        0 min,  0.019 sec
     gradient                   ...        0 min,  0.007 sec
 * total energy  :   -70.0558532 Eh     change       -0.2766977E-03 Eh
   gradient norm :     0.0074247 Eh/α   predicted    -0.2034076E-03 ( -26.49%)
   displ. norm   :     0.6509724 α      lambda       -0.4340990E-03
   maximum displ.:     0.3781530 α      in ANC's #3, #4, #6, ...

........................................................................
.............................. CYCLE   12 ..............................
........................................................................

 iter      E             dE          RMSdq      gap      omega  full diag
   1    -71.0430788 -0.710431E+02  0.237E-01    2.17       0.0  T
   2    -71.0430885 -0.974045E-05  0.137E-01    2.17       1.0  T
   3    -71.0430773  0.112180E-04  0.224E-02    2.18       1.0  T
   4    -71.0430918 -0.145263E-04  0.850E-03    2.18       1.9  T
   5    -71.0430925 -0.666803E-06  0.387E-03    2.18       4.1  T
   6    -71.0430926 -0.112677E-06  0.244E-03    2.18       6.5  T
   7    -71.0430927 -0.447506E-07  0.172E-03    2.18       9.2  T
   8    -71.0430927 -0.150164E-07  0.793E-04    2.18      19.9  T
   9    -71.0430927 -0.582115E-08  0.307E-04    2.18      51.6  T
     SCC iter.                  ...        0 min,  0.018 sec
     gradient                   ...        0 min,  0.007 sec
 * total energy  :   -70.0562168 Eh     change       -0.3636644E-03 Eh
   gradient norm :     0.0090813 Eh/α   predicted    -0.3090531E-03 ( -15.02%)
   displ. norm   :     0.5622463 α      lambda       -0.5106084E-03
   maximum displ.:     0.3221728 α      in ANC's #3, #4, #6, ...

........................................................................
.............................. CYCLE   13 ..............................
........................................................................

 iter      E             dE          RMSdq      gap      omega  full diag
   1    -71.0449862 -0.710450E+02  0.207E-01    2.15       0.0  T
   2    -71.0450006 -0.144347E-04  0.120E-01    2.16       1.0  T
   3    -71.0449865  0.141039E-04  0.241E-02    2.17       1.0  T
   4    -71.0450041 -0.176252E-04  0.802E-03    2.16       2.0  T
   5    -71.0450049 -0.819114E-06  0.404E-03    2.16       3.9  T
   6    -71.0450050 -0.916692E-07  0.243E-03    2.16       6.5  T
   7    -71.0450051 -0.564770E-07  0.172E-03    2.16       9.2  T
   8    -71.0450051 -0.148897E-07  0.958E-04    2.16      16.5  T
   9    -71.0450051 -0.590359E-08  0.343E-04    2.16      46.1  T
     SCC iter.                  ...        0 min,  0.019 sec
     gradient                   ...        0 min,  0.007 sec
 * total energy  :   -70.0565956 Eh     change       -0.3787925E-03 Eh
   gradient norm :     0.0103152 Eh/α   predicted    -0.3360082E-03 ( -11.29%)
   displ. norm   :     0.6072692 α      lambda       -0.4403844E-03
   maximum displ.:     0.3719944 α      in ANC's #3, #4, #6, ...

........................................................................
.............................. CYCLE   14 ..............................
........................................................................

 iter      E             dE          RMSdq      gap      omega  full diag
   1    -71.0401852 -0.710402E+02  0.219E-01    2.13       0.0  T
   2    -71.0401956 -0.103680E-04  0.127E-01    2.15       1.0  T
   3    -71.0401898  0.577269E-05  0.171E-02    2.15       1.0  T
   4    -71.0401979 -0.809566E-05  0.738E-03    2.15       2.1  T
   5    -71.0401986 -0.719939E-06  0.362E-03    2.15       4.4  T
   6    -71.0401987 -0.708294E-07  0.229E-03    2.15       6.9  T
   7    -71.0401987 -0.373942E-07  0.166E-03    2.15       9.5  T
   8    -71.0401987 -0.144783E-07  0.891E-04    2.15      17.7  T
   9    -71.0401987 -0.830948E-08  0.377E-04    2.15      42.0  T
     SCC iter.                  ...        0 min,  0.018 sec
     gradient                   ...        0 min,  0.007 sec
 * total energy  :   -70.0569186 Eh     change       -0.3229598E-03 Eh
   gradient norm :     0.0143448 Eh/α   predicted    -0.3013928E-03 (  -6.68%)
   displ. norm   :     0.4051543 α      lambda       -0.7708814E-03
   maximum displ.:     0.2430807 α      in ANC's #3, #4, #9, ...

........................................................................
.............................. CYCLE   15 ..............................
........................................................................

 iter      E             dE          RMSdq      gap      omega  full diag
   1    -71.0537595 -0.710538E+02  0.148E-01    2.16       0.0  T
   2    -71.0537825 -0.230186E-04  0.871E-02    2.15       1.0  T
   3    -71.0537621  0.203329E-04  0.324E-02    2.16       1.0  T
   4    -71.0537902 -0.280461E-04  0.923E-03    2.16       1.7  T
   5    -71.0537910 -0.766793E-06  0.698E-03    2.16       2.3  T
   6    -71.0537911 -0.163070E-06  0.503E-03    2.16       3.1  T
   7    -71.0537914 -0.232012E-06  0.267E-03    2.16       5.9  T
   8    -71.0537914 -0.483381E-07  0.123E-03    2.16      12.8  T
   9    -71.0537914 -0.207591E-07  0.497E-04    2.16      31.8  T
  10    -71.0537914 -0.220675E-08  0.274E-04    2.16      57.8  T
     SCC iter.                  ...        0 min,  0.020 sec
     gradient                   ...        0 min,  0.007 sec
 * total energy  :   -70.0571435 Eh     change       -0.2249229E-03 Eh
   gradient norm :     0.0160847 Eh/α   predicted    -0.4487093E-03 (  99.49%)
   displ. norm   :     0.4906828 α      lambda       -0.5972162E-03
   maximum displ.:     0.3211193 α      in ANC's #3, #4, #6, ...

........................................................................
.............................. CYCLE   16 ..............................
........................................................................

 iter      E             dE          RMSdq      gap      omega  full diag
   1    -71.0437176 -0.710437E+02  0.177E-01    2.13       0.0  T
   2    -71.0437277 -0.101022E-04  0.102E-01    2.14       1.0  T
   3    -71.0437142  0.135629E-04  0.237E-02    2.14       1.0  T
   4    -71.0437309 -0.166695E-04  0.732E-03    2.14       2.2  T
   5    -71.0437314 -0.531408E-06  0.402E-03    2.14       3.9  T
   6    -71.0437315 -0.100188E-06  0.250E-03    2.14       6.3  T
   7    -71.0437315 -0.595984E-07  0.177E-03    2.14       8.9  T
   8    -71.0437316 -0.131918E-07  0.781E-04    2.14      20.2  T
   9    -71.0437316 -0.757397E-08  0.374E-04    2.14      42.3  T
     SCC iter.                  ...        0 min,  0.018 sec
     gradient                   ...        0 min,  0.007 sec
 * total energy  :   -70.0575602 Eh     change       -0.4166899E-03 Eh
   gradient norm :     0.0129732 Eh/α   predicted    -0.3705090E-03 ( -11.08%)
   displ. norm   :     0.3519905 α      lambda       -0.4417065E-03
   maximum displ.:     0.2613657 α      in ANC's #3, #4, #6, ...

........................................................................
.............................. CYCLE   17 ..............................
........................................................................

 iter      E             dE          RMSdq      gap      omega  full diag
   1    -71.0413190 -0.710413E+02  0.118E-01    2.14       0.0  T
   2    -71.0413281 -0.902198E-05  0.690E-02    2.13       1.0  T
   3    -71.0413103  0.177290E-04  0.246E-02    2.14       1.0  T
   4    -71.0413318 -0.214649E-04  0.570E-03    2.13       2.8  T
   5    -71.0413321 -0.305330E-06  0.367E-03    2.13       4.3  T
   6    -71.0413322 -0.744217E-07  0.254E-03    2.13       6.2  T
   7    -71.0413322 -0.575594E-07  0.174E-03    2.13       9.1  T
   8    -71.0413322 -0.131965E-07  0.938E-04    2.13      16.9  T
   9    -71.0413323 -0.935331E-08  0.320E-04    2.13      49.4  T
     SCC iter.                  ...        0 min,  0.018 sec
     gradient                   ...        0 min,  0.007 sec
 * total energy  :   -70.0578503 Eh     change       -0.2901380E-03 Eh
   gradient norm :     0.0116845 Eh/α   predicted    -0.2482176E-03 ( -14.45%)
   displ. norm   :     0.4365108 α      lambda       -0.4525803E-03
   maximum displ.:     0.3298440 α      in ANC's #3, #4, #9, ...

........................................................................
.............................. CYCLE   18 ..............................
........................................................................

 iter      E             dE          RMSdq      gap      omega  full diag
   1    -71.0423326 -0.710423E+02  0.144E-01    2.12       0.0  T
   2    -71.0423417 -0.911454E-05  0.844E-02    2.12       1.0  T
   3    -71.0423231  0.185502E-04  0.242E-02    2.12       1.0  T
   4    -71.0423451 -0.219605E-04  0.492E-03    2.12       3.2  T
   5    -71.0423453 -0.260827E-06  0.275E-03    2.12       5.7  T
   6    -71.0423454 -0.706527E-07  0.159E-03    2.12       9.9  T
   7    -71.0423454 -0.264172E-07  0.101E-03    2.12      15.7  T
   8    -71.0423454 -0.392829E-08  0.648E-04    2.12      24.4  T
   9    -71.0423455 -0.197839E-08  0.281E-04    2.12      56.3  T
     SCC iter.                  ...        0 min,  0.018 sec
     gradient                   ...        0 min,  0.007 sec
 * total energy  :   -70.0581833 Eh     change       -0.3329202E-03 Eh
   gradient norm :     0.0113697 Eh/α   predicted    -0.2694130E-03 ( -19.08%)
   displ. norm   :     0.4853112 α      lambda       -0.5913342E-03
   maximum displ.:     0.3892648 α      in ANC's #3, #4, #8, ...

........................................................................
.............................. CYCLE   19 ..............................
........................................................................

 iter      E             dE          RMSdq      gap      omega  full diag
   1    -71.0503484 -0.710503E+02  0.140E-01    2.14       0.0  T
   2    -71.0503593 -0.109513E-04  0.808E-02    2.11       1.0  T
   3    -71.0503364  0.229116E-04  0.258E-02    2.12       1.0  T
   4    -71.0503639 -0.275181E-04  0.537E-03    2.11       2.9  T
   5    -71.0503642 -0.299926E-06  0.310E-03    2.11       5.1  T
   6    -71.0503643 -0.100363E-06  0.173E-03    2.11       9.2  T
   7    -71.0503644 -0.283501E-07  0.110E-03    2.11      14.4  T
   8    -71.0503644 -0.368213E-08  0.715E-04    2.11      22.1  T
   9    -71.0503644 -0.372162E-08  0.286E-04    2.11      55.3  T
     SCC iter.                  ...        0 min,  0.018 sec
     gradient                   ...        0 min,  0.007 sec
 * total energy  :   -70.0586153 Eh     change       -0.4320802E-03 Eh
   gradient norm :     0.0104741 Eh/α   predicted    -0.3653129E-03 ( -15.45%)
   displ. norm   :     0.7844457 α      lambda       -0.7239549E-03
   maximum displ.:     0.5882693 α      in ANC's #3, #4, #9, ...

........................................................................
.............................. CYCLE   20 ..............................
........................................................................

 iter      E             dE          RMSdq      gap      omega  full diag
   1    -71.0461047 -0.710461E+02  0.251E-01    2.05       0.0  T
   2    -71.0461408 -0.361345E-04  0.147E-01    2.08       1.0  T
   3    -71.0461067  0.341277E-04  0.334E-02    2.08       1.0  T
   4    -71.0461474 -0.406900E-04  0.103E-02    2.08       1.5  T
   5    -71.0461496 -0.228307E-05  0.501E-03    2.08       3.2  T
   6    -71.0461497 -0.444911E-07  0.337E-03    2.08       4.7  T
   7    -71.0461498 -0.142448E-06  0.226E-03    2.08       7.0  T
   8    -71.0461498 -0.250047E-07  0.137E-03    2.08      11.6  T
   9    -71.0461499 -0.125398E-07  0.556E-04    2.08      28.4  T
  10    -71.0461499 -0.249568E-08  0.364E-04    2.08      43.4  T
     SCC iter.                  ...        0 min,  0.021 sec
     gradient                   ...        0 min,  0.007 sec
 * total energy  :   -70.0590886 Eh     change       -0.4732968E-03 Eh
   gradient norm :     0.0205429 Eh/α   predicted    -0.5847310E-03 (  23.54%)
   displ. norm   :     0.4592768 α      lambda       -0.8411274E-03
   maximum displ.:     0.3669609 α      in ANC's #3, #4, #5, ...
 * RMSD in coord.:     1.0844939 α      energy gain  -0.1765988E-01 Eh

generating ANC from exact Hessian ...
Using Lindh-Hessian (1995)
 Shifting diagonal of input Hessian by    9.7706980876470194E-003
 Lowest  eigenvalues of input Hessian
    0.000000    0.000000    0.000000    0.000000    0.000000    0.000000
    0.010000    0.010117    0.010476    0.010656    0.011127    0.011304
    0.012723    0.013694    0.016062    0.017374    0.018788    0.019474
 Highest eigenvalues
    2.033598    2.057789    2.183233    2.205631    2.230924    2.259913


........................................................................
.............................. CYCLE   21 ..............................
........................................................................

 iter      E             dE          RMSdq      gap      omega  full diag
   1    -71.0507277 -0.710507E+02  0.145E-01    2.14       0.0  T
   2    -71.0507599 -0.321423E-04  0.850E-02    2.12       1.0  T
   3    -71.0507449  0.149975E-04  0.274E-02    2.13       1.0  T
   4    -71.0507638 -0.189329E-04  0.768E-03    2.12       2.1  T
   5    -71.0507653 -0.143502E-05  0.421E-03    2.13       3.8  T
   6    -71.0507655 -0.215389E-06  0.244E-03    2.13       6.5  T
   7    -71.0507655 -0.427146E-07  0.162E-03    2.12       9.8  T
   8    -71.0507655 -0.982830E-08  0.106E-03    2.12      14.9  T
   9    -71.0507655 -0.818346E-08  0.448E-04    2.13      35.3  T
  10    -71.0507655 -0.198065E-08  0.251E-04    2.12      63.0  T
     SCC iter.                  ...        0 min,  0.020 sec
     gradient                   ...        0 min,  0.007 sec
 * total energy  :   -70.0594075 Eh     change       -0.3188481E-03 Eh
   gradient norm :     0.0188014 Eh/α   predicted     0.0000000E+00 (-100.00%)
   displ. norm   :     0.1088146 α      lambda       -0.6072496E-03
   maximum displ.:     0.0571416 α      in ANC's #4, #3, #8, ...

........................................................................
.............................. CYCLE   22 ..............................
........................................................................

 iter      E             dE          RMSdq      gap      omega  full diag
   1    -71.0523346 -0.710523E+02  0.750E-02    2.12       0.0  T
   2    -71.0523398 -0.520152E-05  0.402E-02    2.12       1.0  T
   3    -71.0523374  0.243277E-05  0.123E-02    2.12       1.3  T
   4    -71.0523409 -0.349013E-05  0.483E-03    2.12       3.3  T
   5    -71.0523411 -0.221815E-06  0.232E-03    2.12       6.8  T
   6    -71.0523412 -0.415790E-07  0.115E-03    2.12      13.7  T
   7    -71.0523412 -0.161064E-07  0.817E-04    2.12      19.4  T
   8    -71.0523412 -0.213934E-08  0.456E-04    2.12      34.7  T
     SCC iter.                  ...        0 min,  0.016 sec
     gradient                   ...        0 min,  0.007 sec
 * total energy  :   -70.0597823 Eh     change       -0.3748517E-03 Eh
   gradient norm :     0.0055923 Eh/α   predicted    -0.3072279E-03 ( -18.04%)
   displ. norm   :     0.1409781 α      lambda       -0.2163104E-03
   maximum displ.:     0.0883872 α      in ANC's #3, #4, #6, ...

........................................................................
.............................. CYCLE   23 ..............................
........................................................................

 iter      E             dE          RMSdq      gap      omega  full diag
   1    -71.0533222 -0.710533E+02  0.517E-02    2.11       0.0  T
   2    -71.0533245 -0.233427E-05  0.298E-02    2.11       1.0  T
   3    -71.0533228  0.169800E-05  0.923E-03    2.11       1.7  T
   4    -71.0533250 -0.220920E-05  0.250E-03    2.11       6.3  T
   5    -71.0533251 -0.925595E-07  0.141E-03    2.11      11.2  T
   6    -71.0533251 -0.878453E-08  0.804E-04    2.11      19.7  T
   7    -71.0533251 -0.494373E-08  0.609E-04    2.11      26.0  T
     SCC iter.                  ...        0 min,  0.019 sec
     gradient                   ...        0 min,  0.007 sec
 * total energy  :   -70.0599388 Eh     change       -0.1564942E-03 Eh
   gradient norm :     0.0041234 Eh/α   predicted    -0.1103059E-03 ( -29.51%)
   displ. norm   :     0.1983584 α      lambda       -0.1862451E-03
   maximum displ.:     0.1278883 α      in ANC's #3, #4, #6, ...

........................................................................
.............................. CYCLE   24 ..............................
........................................................................

 iter      E             dE          RMSdq      gap      omega  full diag
   1    -71.0534946 -0.710535E+02  0.693E-02    2.11       0.0  T
   2    -71.0534966 -0.197232E-05  0.393E-02    2.10       1.0  T
   3    -71.0534944  0.217124E-05  0.938E-03    2.11       1.7  T
   4    -71.0534971 -0.269785E-05  0.330E-03    2.10       4.8  T
   5    -71.0534973 -0.130495E-06  0.178E-03    2.10       8.9  T
   6    -71.0534973 -0.209403E-07  0.105E-03    2.10      15.0  T
   7    -71.0534973 -0.789456E-08  0.788E-04    2.10      20.1  T
   8    -71.0534973 -0.371152E-08  0.265E-04    2.10      59.6  T
     SCC iter.                  ...        0 min,  0.016 sec
     gradient                   ...        0 min,  0.007 sec
 * total energy  :   -70.0601057 Eh     change       -0.1668399E-03 Eh
   gradient norm :     0.0068594 Eh/α   predicted    -0.9679028E-04 ( -41.99%)
   displ. norm   :     0.3213644 α      lambda       -0.2961733E-03
   maximum displ.:     0.2052619 α      in ANC's #3, #4, #6, ...

........................................................................
.............................. CYCLE   25 ..............................
........................................................................

 iter      E             dE          RMSdq      gap      omega  full diag
   1    -71.0528267 -0.710528E+02  0.111E-01    2.10       0.0  T
   2    -71.0528302 -0.357009E-05  0.634E-02    2.10       1.0  T
   3    -71.0528246  0.563747E-05  0.139E-02    2.10       1.1  T
   4    -71.0528315 -0.686298E-05  0.468E-03    2.10       3.4  T
   5    -71.0528317 -0.214702E-06  0.242E-03    2.10       6.5  T
   6    -71.0528317 -0.437830E-07  0.145E-03    2.10      10.9  T
   7    -71.0528317 -0.173682E-07  0.107E-03    2.10      14.8  T
   8    -71.0528317 -0.655744E-08  0.433E-04    2.10      36.5  T
   9    -71.0528317 -0.158046E-08  0.181E-04    2.10      87.1  T
     SCC iter.                  ...        0 min,  0.018 sec
     gradient                   ...        0 min,  0.007 sec
 * total energy  :   -70.0603793 Eh     change       -0.2736488E-03 Eh
   gradient norm :     0.0074675 Eh/α   predicted    -0.1633816E-03 ( -40.30%)
   displ. norm   :     0.4717210 α      lambda       -0.4219000E-03
   maximum displ.:     0.3031289 α      in ANC's #3, #4, #6, ...

........................................................................
.............................. CYCLE   26 ..............................
........................................................................

 iter      E             dE          RMSdq      gap      omega  full diag
   1    -71.0512111 -0.710512E+02  0.162E-01    2.09       0.0  T
   2    -71.0512178 -0.661527E-05  0.923E-02    2.09       1.0  T
   3    -71.0512060  0.117892E-04  0.197E-02    2.10       1.0  T
   4    -71.0512204 -0.143905E-04  0.660E-03    2.10       2.4  T
   5    -71.0512207 -0.346736E-06  0.311E-03    2.10       5.1  T
   6    -71.0512208 -0.751633E-07  0.191E-03    2.10       8.3  T
   7    -71.0512208 -0.339764E-07  0.140E-03    2.10      11.3  T
   8    -71.0512208 -0.104591E-07  0.586E-04    2.10      27.0  T
   9    -71.0512208 -0.277225E-08  0.242E-04    2.10      65.5  T
     SCC iter.                  ...        0 min,  0.018 sec
     gradient                   ...        0 min,  0.007 sec
 * total energy  :   -70.0607561 Eh     change       -0.3767536E-03 Eh
   gradient norm :     0.0074107 Eh/α   predicted    -0.2578973E-03 ( -31.55%)
   displ. norm   :     0.5420167 α      lambda       -0.4562854E-03
   maximum displ.:     0.3541609 α      in ANC's #3, #4, #6, ...

........................................................................
.............................. CYCLE   27 ..............................
........................................................................

 iter      E             dE          RMSdq      gap      omega  full diag
   1    -71.0494327 -0.710494E+02  0.184E-01    2.09       0.0  T
   2    -71.0494405 -0.785565E-05  0.105E-01    2.09       1.0  T
   3    -71.0494247  0.158416E-04  0.225E-02    2.10       1.0  T
   4    -71.0494440 -0.193614E-04  0.738E-03    2.10       2.1  T
   5    -71.0494444 -0.343908E-06  0.322E-03    2.10       4.9  T
   6    -71.0494445 -0.876131E-07  0.204E-03    2.10       7.7  T
   7    -71.0494445 -0.397114E-07  0.148E-03    2.10      10.7  T
   8    -71.0494445 -0.110937E-07  0.615E-04    2.10      25.7  T
   9    -71.0494445 -0.344399E-08  0.262E-04    2.10      60.4  T
     SCC iter.                  ...        0 min,  0.019 sec
     gradient                   ...        0 min,  0.007 sec
 * total energy  :   -70.0611377 Eh     change       -0.3816418E-03 Eh
   gradient norm :     0.0086505 Eh/α   predicted    -0.2951743E-03 ( -22.66%)
   displ. norm   :     0.5196514 α      lambda       -0.4393150E-03
   maximum displ.:     0.3507884 α      in ANC's #3, #4, #6, ...

........................................................................
.............................. CYCLE   28 ..............................
........................................................................

 iter      E             dE          RMSdq      gap      omega  full diag
   1    -71.0494613 -0.710495E+02  0.171E-01    2.10       0.0  T
   2    -71.0494673 -0.607620E-05  0.972E-02    2.10       1.0  T
   3    -71.0494529  0.144007E-04  0.214E-02    2.11       1.0  T
   4    -71.0494706 -0.176909E-04  0.698E-03    2.10       2.3  T
   5    -71.0494708 -0.193932E-06  0.291E-03    2.10       5.4  T
   6    -71.0494709 -0.960791E-07  0.192E-03    2.10       8.2  T
   7    -71.0494710 -0.263684E-07  0.139E-03    2.10      11.4  T
   8    -71.0494710 -0.103040E-07  0.572E-04    2.10      27.6  T
   9    -71.0494710 -0.422078E-08  0.250E-04    2.10      63.2  T
     SCC iter.                  ...        0 min,  0.018 sec
     gradient                   ...        0 min,  0.007 sec
 * total energy  :   -70.0614914 Eh     change       -0.3537001E-03 Eh
   gradient norm :     0.0091419 Eh/α   predicted    -0.2789763E-03 ( -21.13%)
   displ. norm   :     0.4655610 α      lambda       -0.4522431E-03
   maximum displ.:     0.3302265 α      in ANC's #3, #4, #6, ...

........................................................................
.............................. CYCLE   29 ..............................
........................................................................

 iter      E             dE          RMSdq      gap      omega  full diag
   1    -71.0525902 -0.710526E+02  0.147E-01    2.12       0.0  T
   2    -71.0525953 -0.504318E-05  0.833E-02    2.12       1.0  T
   3    -71.0525833  0.119929E-04  0.200E-02    2.12       1.0  T
   4    -71.0525982 -0.149045E-04  0.649E-03    2.12       2.4  T
   5    -71.0525983 -0.144477E-06  0.302E-03    2.12       5.2  T
   6    -71.0525984 -0.660582E-07  0.222E-03    2.12       7.1  T
   7    -71.0525984 -0.223366E-07  0.160E-03    2.12       9.9  T
   8    -71.0525984 -0.200537E-07  0.612E-04    2.12      25.8  T
   9    -71.0525985 -0.626059E-08  0.298E-04    2.12      53.0  T
     SCC iter.                  ...        0 min,  0.018 sec
     gradient                   ...        0 min,  0.007 sec
 * total energy  :   -70.0618430 Eh     change       -0.3516217E-03 Eh
   gradient norm :     0.0078882 Eh/α   predicted    -0.2751344E-03 ( -21.75%)
   displ. norm   :     0.4702902 α      lambda       -0.3598968E-03
   maximum displ.:     0.3353984 α      in ANC's #3, #4, #5, ...

........................................................................
.............................. CYCLE   30 ..............................
........................................................................

 iter      E             dE          RMSdq      gap      omega  full diag
   1    -71.0537048 -0.710537E+02  0.148E-01    2.12       0.0  T
   2    -71.0537107 -0.590433E-05  0.845E-02    2.13       1.0  T
   3    -71.0536974  0.132895E-04  0.211E-02    2.13       1.0  T
   4    -71.0537136 -0.162230E-04  0.632E-03    2.13       2.5  T
   5    -71.0537138 -0.190113E-06  0.297E-03    2.13       5.3  T
   6    -71.0537138 -0.493836E-07  0.221E-03    2.13       7.2  T
   7    -71.0537139 -0.390846E-07  0.161E-03    2.13       9.8  T
   8    -71.0537139 -0.154921E-07  0.692E-04    2.13      22.9  T
   9    -71.0537139 -0.588309E-08  0.290E-04    2.13      54.5  T
     SCC iter.                  ...        0 min,  0.018 sec
     gradient                   ...        0 min,  0.007 sec
 * total energy  :   -70.0621178 Eh     change       -0.2747385E-03 Eh
   gradient norm :     0.0063031 Eh/α   predicted    -0.2197503E-03 ( -20.01%)
   displ. norm   :     0.4251035 α      lambda       -0.3344799E-03
   maximum displ.:     0.2991338 α      in ANC's #3, #4, #5, ...

........................................................................
.............................. CYCLE   31 ..............................
........................................................................

 iter      E             dE          RMSdq      gap      omega  full diag
   1    -71.0579603 -0.710580E+02  0.132E-01    2.16       0.0  T
   2    -71.0579653 -0.500912E-05  0.756E-02    2.15       1.0  T
   3    -71.0579548  0.105039E-04  0.185E-02    2.16       1.0  T
   4    -71.0579676 -0.128212E-04  0.535E-03    2.15       3.0  T
   5    -71.0579677 -0.102768E-06  0.304E-03    2.15       5.2  T
   6    -71.0579678 -0.769618E-07  0.198E-03    2.15       8.0  T
   7    -71.0579678 -0.206830E-07  0.154E-03    2.15      10.3  T
   8    -71.0579678 -0.120679E-07  0.685E-04    2.15      23.1  T
   9    -71.0579678 -0.811147E-08  0.270E-04    2.15      58.6  T
     SCC iter.                  ...        0 min,  0.018 sec
     gradient                   ...        0 min,  0.007 sec
 * total energy  :   -70.0623317 Eh     change       -0.2139468E-03 Eh
   gradient norm :     0.0117366 Eh/α   predicted    -0.1974638E-03 (  -7.70%)
   displ. norm   :     0.6021137 α      lambda       -0.3676044E-03
   maximum displ.:     0.4119202 α      in ANC's #3, #4, #5, ...

........................................................................
.............................. CYCLE   32 ..............................
........................................................................

 iter      E             dE          RMSdq      gap      omega  full diag
   1    -71.0523203 -0.710523E+02  0.202E-01    2.13       0.0  T
   2    -71.0523396 -0.192971E-04  0.116E-01    2.15       1.0  T
   3    -71.0523108  0.287915E-04  0.311E-02    2.14       1.0  T
   4    -71.0523450 -0.341726E-04  0.841E-03    2.15       1.9  T
   5    -71.0523459 -0.863220E-06  0.383E-03    2.15       4.1  T
   6    -71.0523459 -0.921914E-07  0.230E-03    2.15       6.9  T
   7    -71.0523460 -0.849322E-07  0.149E-03    2.15      10.6  T
   8    -71.0523460 -0.722780E-08  0.963E-04    2.15      16.4  T
   9    -71.0523460 -0.519294E-08  0.339E-04    2.15      46.7  T
     SCC iter.                  ...        0 min,  0.018 sec
     gradient                   ...        0 min,  0.007 sec
 * total energy  :   -70.0625758 Eh     change       -0.2440910E-03 Eh
   gradient norm :     0.0081567 Eh/α   predicted    -0.2504430E-03 (   2.60%)
   displ. norm   :     0.3211489 α      lambda       -0.3433387E-03
   maximum displ.:     0.1967638 α      in ANC's #5, #3, #4, ...

........................................................................
.............................. CYCLE   33 ..............................
........................................................................

 iter      E             dE          RMSdq      gap      omega  full diag
   1    -71.0549347 -0.710549E+02  0.106E-01    2.13       0.0  T
   2    -71.0549423 -0.763109E-05  0.619E-02    2.14       1.0  T
   3    -71.0549328  0.945832E-05  0.190E-02    2.14       1.0  T
   4    -71.0549440 -0.111561E-04  0.383E-03    2.14       4.1  T
   5    -71.0549443 -0.298771E-06  0.174E-03    2.14       9.1  T
   6    -71.0549443 -0.210610E-07  0.110E-03    2.14      14.4  T
   7    -71.0549443 -0.173206E-07  0.695E-04    2.14      22.8  T
   8    -71.0549443 -0.214426E-08  0.491E-04    2.14      32.2  T
     SCC iter.                  ...        0 min,  0.016 sec
     gradient                   ...        0 min,  0.007 sec
 * total energy  :   -70.0628312 Eh     change       -0.2553551E-03 Eh
   gradient norm :     0.0075194 Eh/α   predicted    -0.1893756E-03 ( -25.84%)
   displ. norm   :     0.5014347 α      lambda       -0.4511322E-03
   maximum displ.:     0.2863178 α      in ANC's #3, #5, #4, ...

........................................................................
.............................. CYCLE   34 ..............................
........................................................................

 iter      E             dE          RMSdq      gap      omega  full diag
   1    -71.0540110 -0.710540E+02  0.174E-01    2.15       0.0  T
   2    -71.0540164 -0.530623E-05  0.101E-01    2.15       1.0  T
   3    -71.0540036  0.127985E-04  0.206E-02    2.15       1.0  T
   4    -71.0540189 -0.153274E-04  0.545E-03    2.15       2.9  T
   5    -71.0540190 -0.143175E-06  0.281E-03    2.15       5.6  T
   6    -71.0540191 -0.683648E-07  0.186E-03    2.15       8.5  T
   7    -71.0540191 -0.228967E-07  0.136E-03    2.15      11.7  T
   8    -71.0540191 -0.743637E-08  0.743E-04    2.15      21.3  T
   9    -71.0540191 -0.617578E-08  0.255E-04    2.15      62.0  T
     SCC iter.                  ...        0 min,  0.018 sec
     gradient                   ...        0 min,  0.007 sec
 * total energy  :   -70.0631575 Eh     change       -0.3263320E-03 Eh
   gradient norm :     0.0062144 Eh/α   predicted    -0.2823033E-03 ( -13.49%)
   displ. norm   :     0.4844481 α      lambda       -0.3309808E-03
   maximum displ.:     0.2763408 α      in ANC's #5, #3, #4, ...

........................................................................
.............................. CYCLE   35 ..............................
........................................................................

 iter      E             dE          RMSdq      gap      omega  full diag
   1    -71.0537146 -0.710537E+02  0.165E-01    2.14       0.0  T
   2    -71.0537212 -0.665660E-05  0.958E-02    2.15       1.0  T
   3    -71.0537052  0.160093E-04  0.225E-02    2.14       1.0  T
   4    -71.0537238 -0.185443E-04  0.488E-03    2.15       3.2  T
   5    -71.0537240 -0.286085E-06  0.235E-03    2.15       6.7  T
   6    -71.0537241 -0.461257E-07  0.139E-03    2.15      11.4  T
   7    -71.0537241 -0.276499E-07  0.888E-04    2.15      17.8  T
   8    -71.0537241 -0.290051E-08  0.586E-04    2.15      27.0  T
     SCC iter.                  ...        0 min,  0.016 sec
     gradient                   ...        0 min,  0.007 sec
 * total energy  :   -70.0633931 Eh     change       -0.2355742E-03 Eh
   gradient norm :     0.0061163 Eh/α   predicted    -0.2043300E-03 ( -13.26%)
   displ. norm   :     0.4834792 α      lambda       -0.3151534E-03
   maximum displ.:     0.2672334 α      in ANC's #3, #5, #4, ...

........................................................................
.............................. CYCLE   36 ..............................
........................................................................

 iter      E             dE          RMSdq      gap      omega  full diag
   1    -71.0542876 -0.710543E+02  0.163E-01    2.14       0.0  T
   2    -71.0542955 -0.792969E-05  0.949E-02    2.15       1.0  T
   3    -71.0542819  0.136604E-04  0.216E-02    2.14       1.0  T
   4    -71.0542980 -0.161100E-04  0.527E-03    2.15       3.0  T
   5    -71.0542983 -0.320005E-06  0.260E-03    2.15       6.1  T
   6    -71.0542983 -0.484897E-07  0.161E-03    2.15       9.8  T
   7    -71.0542984 -0.372906E-07  0.106E-03    2.15      14.9  T
   8    -71.0542984 -0.444531E-08  0.659E-04    2.15      24.0  T
   9    -71.0542984 -0.156697E-08  0.265E-04    2.15      59.6  T
     SCC iter.                  ...        0 min,  0.019 sec
     gradient                   ...        0 min,  0.007 sec
 * total energy  :   -70.0635811 Eh     change       -0.1879764E-03 Eh
   gradient norm :     0.0078746 Eh/α   predicted    -0.1944123E-03 (   3.42%)
   displ. norm   :     0.4627566 α      lambda       -0.2536164E-03
   maximum displ.:     0.2940807 α      in ANC's #3, #4, #5, ...

........................................................................
.............................. CYCLE   37 ..............................
........................................................................

 iter      E             dE          RMSdq      gap      omega  full diag
   1    -71.0528777 -0.710529E+02  0.151E-01    2.14       0.0  T
   2    -71.0528845 -0.672601E-05  0.873E-02    2.15       1.0  T
   3    -71.0528697  0.147302E-04  0.219E-02    2.15       1.0  T
   4    -71.0528870 -0.172769E-04  0.531E-03    2.15       3.0  T
   5    -71.0528873 -0.270897E-06  0.242E-03    2.15       6.5  T
   6    -71.0528873 -0.487342E-07  0.140E-03    2.15      11.3  T
   7    -71.0528874 -0.350790E-07  0.828E-04    2.15      19.1  T
   8    -71.0528874 -0.150199E-08  0.547E-04    2.15      28.9  T
     SCC iter.                  ...        0 min,  0.016 sec
     gradient                   ...        0 min,  0.007 sec
 * total energy  :   -70.0637620 Eh     change       -0.1809734E-03 Eh
   gradient norm :     0.0058033 Eh/α   predicted    -0.1539637E-03 ( -14.92%)
   displ. norm   :     0.3119933 α      lambda       -0.3109259E-03
   maximum displ.:     0.1728274 α      in ANC's #3, #5, #4, ...

........................................................................
.............................. CYCLE   38 ..............................
........................................................................

 iter      E             dE          RMSdq      gap      omega  full diag
   1    -71.0639093 -0.710639E+02  0.106E-01    2.16       0.0  T
   2    -71.0639160 -0.661284E-05  0.616E-02    2.16       1.0  T
   3    -71.0639033  0.126242E-04  0.212E-02    2.16       1.0  T
   4    -71.0639187 -0.153516E-04  0.457E-03    2.16       3.5  T
   5    -71.0639189 -0.242354E-06  0.259E-03    2.16       6.1  T
   6    -71.0639190 -0.306240E-07  0.193E-03    2.16       8.2  T
   7    -71.0639190 -0.410350E-07  0.125E-03    2.16      12.7  T
   8    -71.0639190 -0.727262E-08  0.725E-04    2.16      21.8  T
   9    -71.0639190 -0.463235E-08  0.291E-04    2.16      54.3  T
     SCC iter.                  ...        0 min,  0.018 sec
     gradient                   ...        0 min,  0.007 sec
 * total energy  :   -70.0637576 Eh     change        0.4387589E-05 Eh
   gradient norm :     0.0112901 Eh/α   predicted    -0.1705994E-03 (*******%)
   displ. norm   :     0.4305146 α      lambda       -0.4420813E-03
   maximum displ.:     0.2944609 α      in ANC's #3, #4, #5, ...

........................................................................
.............................. CYCLE   39 ..............................
........................................................................

 iter      E             dE          RMSdq      gap      omega  full diag
   1    -71.0536193 -0.710536E+02  0.149E-01    2.15       0.0  T
   2    -71.0536253 -0.594911E-05  0.856E-02    2.16       1.0  T
   3    -71.0536092  0.161238E-04  0.234E-02    2.16       1.0  T
   4    -71.0536285 -0.193356E-04  0.574E-03    2.16       2.8  T
   5    -71.0536286 -0.543472E-07  0.281E-03    2.16       5.6  T
   6    -71.0536287 -0.121796E-06  0.157E-03    2.16      10.0  T
   7    -71.0536287 -0.204778E-07  0.115E-03    2.16      13.7  T
   8    -71.0536287 -0.493708E-08  0.673E-04    2.16      23.5  T
   9    -71.0536287 -0.428582E-08  0.246E-04    2.16      64.3  T
     SCC iter.                  ...        0 min,  0.029 sec
     gradient                   ...        0 min,  0.017 sec
 * total energy  :   -70.0639944 Eh     change       -0.2367800E-03 Eh
   gradient norm :     0.0077890 Eh/α   predicted    -0.2620126E-03 (  10.66%)
   displ. norm   :     0.1676281 α      lambda       -0.1688932E-03
   maximum displ.:     0.0988932 α      in ANC's #3, #4, #5, ...

........................................................................
.............................. CYCLE   40 ..............................
........................................................................

 iter      E             dE          RMSdq      gap      omega  full diag
   1    -71.0544625 -0.710545E+02  0.629E-02    2.17       0.0  T
   2    -71.0544640 -0.149650E-05  0.371E-02    2.16       1.0  T
   3    -71.0544595  0.453866E-05  0.113E-02    2.17       1.4  T
   4    -71.0544649 -0.542258E-05  0.291E-03    2.16       5.4  T
   5    -71.0544650 -0.407023E-07  0.205E-03    2.17       7.7  T
   6    -71.0544650 -0.464975E-07  0.132E-03    2.17      12.0  T
   7    -71.0544650 -0.716733E-08  0.952E-04    2.17      16.6  T
   8    -71.0544650 -0.618401E-08  0.446E-04    2.17      35.5  T
     SCC iter.                  ...        0 min,  0.025 sec
     gradient                   ...        0 min,  0.007 sec
 * total energy  :   -70.0640355 Eh     change       -0.4108138E-04 Eh
   gradient norm :     0.0092521 Eh/α   predicted    -0.8682055E-04 ( 111.34%)
   displ. norm   :     0.3121793 α      lambda       -0.1838643E-03
   maximum displ.:     0.1921971 α      in ANC's #3, #4, #5, ...

........................................................................
.............................. CYCLE   41 ..............................
........................................................................

 iter      E             dE          RMSdq      gap      omega  full diag
   1    -71.0540653 -0.710541E+02  0.106E-01    2.16       0.0  T
   2    -71.0540682 -0.283759E-05  0.609E-02    2.17       1.0  T
   3    -71.0540604  0.781828E-05  0.155E-02    2.17       1.0  T
   4    -71.0540697 -0.931536E-05  0.409E-03    2.17       3.9  T
   5    -71.0540697 -0.565468E-07  0.206E-03    2.17       7.7  T
   6    -71.0540698 -0.327493E-07  0.142E-03    2.17      11.1  T
   7    -71.0540698 -0.195808E-07  0.992E-04    2.17      15.9  T
   8    -71.0540698 -0.331930E-08  0.509E-04    2.17      31.0  T
     SCC iter.                  ...        0 min,  0.016 sec
     gradient                   ...        0 min,  0.007 sec
 * total energy  :   -70.0641578 Eh     change       -0.1223263E-03 Eh
   gradient norm :     0.0081043 Eh/α   predicted    -0.1008943E-03 ( -17.52%)
   displ. norm   :     0.2867742 α      lambda       -0.2191335E-03
   maximum displ.:     0.1674985 α      in ANC's #3, #4, #5, ...

........................................................................
.............................. CYCLE   42 ..............................
........................................................................

 iter      E             dE          RMSdq      gap      omega  full diag
   1    -71.0571957 -0.710572E+02  0.996E-02    2.17       0.0  T
   2    -71.0571987 -0.294258E-05  0.575E-02    2.16       1.0  T
   3    -71.0571856  0.130717E-04  0.186E-02    2.17       1.0  T
   4    -71.0572010 -0.153991E-04  0.368E-03    2.17       4.3  T
   5    -71.0572011 -0.483981E-07  0.197E-03    2.16       8.0  T
   6    -71.0572011 -0.464139E-07  0.122E-03    2.17      13.0  T
   7    -71.0572011 -0.111440E-07  0.926E-04    2.16      17.1  T
   8    -71.0572011 -0.421558E-08  0.501E-04    2.17      31.6  T
     SCC iter.                  ...        0 min,  0.016 sec
     gradient                   ...        0 min,  0.007 sec
 * total energy  :   -70.0642639 Eh     change       -0.1060376E-03 Eh
   gradient norm :     0.0066173 Eh/α   predicted    -0.1185785E-03 (  11.83%)
   displ. norm   :     0.4604329 α      lambda       -0.1570270E-03
   maximum displ.:     0.2773025 α      in ANC's #3, #4, #5, ...
 * RMSD in coord.:     1.2255927 α      energy gain  -0.5175225E-02 Eh

generating ANC from exact Hessian ...
Using Lindh-Hessian (1995)
 Shifting diagonal of input Hessian by    9.6879179019444643E-003
 Lowest  eigenvalues of input Hessian
    0.000000    0.000000    0.000000    0.000000    0.000000    0.000000
    0.010000    0.010084    0.010548    0.010672    0.010872    0.011672
    0.012838    0.013837    0.015629    0.016068    0.018370    0.019142
 Highest eigenvalues
    2.018828    2.053603    2.174278    2.191298    2.233485    2.258860


........................................................................
.............................. CYCLE   43 ..............................
........................................................................

 iter      E             dE          RMSdq      gap      omega  full diag
   1    -71.0545579 -0.710546E+02  0.154E-01    2.16       0.0  T
   2    -71.0545634 -0.554390E-05  0.890E-02    2.17       1.0  T
   3    -71.0545438  0.196245E-04  0.235E-02    2.17       1.0  T
   4    -71.0545669 -0.231158E-04  0.480E-03    2.17       3.3  T
   5    -71.0545670 -0.778669E-07  0.228E-03    2.17       6.9  T
   6    -71.0545670 -0.386971E-07  0.146E-03    2.17      10.8  T
   7    -71.0545671 -0.243067E-07  0.101E-03    2.17      15.6  T
   8    -71.0545671 -0.270934E-08  0.556E-04    2.17      28.4  T
   9    -71.0545671 -0.351062E-08  0.206E-04    2.17      76.7  T
     SCC iter.                  ...        0 min,  0.018 sec
     gradient                   ...        0 min,  0.007 sec
 * total energy  :   -70.0643853 Eh     change       -0.1213836E-03 Eh
   gradient norm :     0.0064352 Eh/α   predicted     0.0000000E+00 (-100.00%)
   displ. norm   :     0.0620424 α      lambda       -0.1403723E-03
   maximum displ.:     0.0321995 α      in ANC's #3, #2, #4, ...

........................................................................
.............................. CYCLE   44 ..............................
........................................................................

 iter      E             dE          RMSdq      gap      omega  full diag
   1    -71.0583221 -0.710583E+02  0.375E-02    2.18       0.0  T
   2    -71.0583228 -0.734410E-06  0.208E-02    2.17       1.0  T
   3    -71.0583214  0.141832E-05  0.696E-03    2.17       2.3  T
   4    -71.0583231 -0.173501E-05  0.247E-03    2.17       6.4  T
   5    -71.0583232 -0.531005E-07  0.128E-03    2.17      12.3  T
   6    -71.0583232 -0.203335E-07  0.654E-04    2.17      24.2  T
   7    -71.0583232 -0.374641E-08  0.488E-04    2.17      32.4  T
     SCC iter.                  ...        0 min,  0.015 sec
     gradient                   ...        0 min,  0.007 sec
 * total energy  :   -70.0644765 Eh     change       -0.9121207E-04 Eh
   gradient norm :     0.0019774 Eh/α   predicted    -0.7051523E-04 ( -22.69%)
   displ. norm   :     0.1308924 α      lambda       -0.6541967E-04
   maximum displ.:     0.0795768 α      in ANC's #3, #2, #4, ...

........................................................................
.............................. CYCLE   45 ..............................
........................................................................

 iter      E             dE          RMSdq      gap      omega  full diag
   1    -71.0614249 -0.710614E+02  0.490E-02    2.18       0.0  T
   2    -71.0614258 -0.910785E-06  0.285E-02    2.17       1.0  T
   3    -71.0614234  0.238657E-05  0.820E-03    2.17       1.9  T
   4    -71.0614263 -0.282040E-05  0.214E-03    2.17       7.4  T
   5    -71.0614263 -0.461841E-07  0.130E-03    2.17      12.1  T
   6    -71.0614263 -0.121010E-07  0.821E-04    2.17      19.2  T
   7    -71.0614263 -0.581306E-08  0.603E-04    2.17      26.2  T
     SCC iter.                  ...        0 min,  0.014 sec
     gradient                   ...        0 min,  0.007 sec
 * total energy  :   -70.0645368 Eh     change       -0.6036642E-04 Eh
   gradient norm :     0.0032470 Eh/α   predicted    -0.3298113E-04 ( -45.37%)
   displ. norm   :     0.1092744 α      lambda       -0.5829643E-04
   maximum displ.:     0.0659525 α      in ANC's #3, #2, #4, ...

........................................................................
.............................. CYCLE   46 ..............................
........................................................................

 iter      E             dE          RMSdq      gap      omega  full diag
   1    -71.0611683 -0.710612E+02  0.381E-02    2.17       0.0  T
   2    -71.0611685 -0.253833E-06  0.221E-02    2.17       1.0  T
   3    -71.0611677  0.783560E-06  0.461E-03    2.17       3.4  T
   4    -71.0611687 -0.930079E-06  0.125E-03    2.17      12.7  T
   5    -71.0611687 -0.117937E-07  0.701E-04    2.17      22.6  T
   6    -71.0611687 -0.199408E-08  0.493E-04    2.17      32.1  T
     SCC iter.                  ...        0 min,  0.012 sec
     gradient                   ...        0 min,  0.007 sec
 * total energy  :   -70.0645914 Eh     change       -0.5454962E-04 Eh
   gradient norm :     0.0032790 Eh/α   predicted    -0.2949658E-04 ( -45.93%)
   displ. norm   :     0.2554279 α      lambda       -0.1368567E-03
   maximum displ.:     0.1512914 α      in ANC's #3, #2, #4, ...

........................................................................
.............................. CYCLE   47 ..............................
........................................................................

 iter      E             dE          RMSdq      gap      omega  full diag
   1    -71.0590813 -0.710591E+02  0.913E-02    2.16       0.0  T
   2    -71.0590828 -0.149122E-05  0.523E-02    2.17       1.0  T
   3    -71.0590799  0.289373E-05  0.976E-03    2.17       1.6  T
   4    -71.0590834 -0.352421E-05  0.360E-03    2.17       4.4  T
   5    -71.0590836 -0.122496E-06  0.161E-03    2.17       9.8  T
   6    -71.0590836 -0.179368E-07  0.110E-03    2.17      14.3  T
   7    -71.0590836 -0.399852E-08  0.810E-04    2.17      19.5  T
   8    -71.0590836 -0.523838E-08  0.254E-04    2.17      62.3  T
     SCC iter.                  ...        0 min,  0.017 sec
     gradient                   ...        0 min,  0.007 sec
 * total energy  :   -70.0647099 Eh     change       -0.1185418E-03 Eh
   gradient norm :     0.0020990 Eh/α   predicted    -0.7289595E-04 ( -38.51%)
   displ. norm   :     0.3501381 α      lambda       -0.1484628E-03
   maximum displ.:     0.2083143 α      in ANC's #3, #2, #4, ...

........................................................................
.............................. CYCLE   48 ..............................
........................................................................

 iter      E             dE          RMSdq      gap      omega  full diag
   1    -71.0560507 -0.710561E+02  0.124E-01    2.15       0.0  T
   2    -71.0560535 -0.276458E-05  0.715E-02    2.16       1.0  T
   3    -71.0560492  0.432223E-05  0.120E-02    2.15       1.3  T
   4    -71.0560545 -0.528935E-05  0.464E-03    2.16       3.4  T
   5    -71.0560547 -0.249315E-06  0.219E-03    2.16       7.2  T
   6    -71.0560547 -0.299203E-07  0.148E-03    2.16      10.7  T
   7    -71.0560548 -0.101794E-07  0.112E-03    2.16      14.2  T
   8    -71.0560548 -0.694138E-08  0.399E-04    2.16      39.6  T
   9    -71.0560548 -0.290389E-08  0.223E-04    2.16      71.0  T
     SCC iter.                  ...        0 min,  0.037 sec
     gradient                   ...        0 min,  0.007 sec
 * total energy  :   -70.0648233 Eh     change       -0.1133566E-03 Eh
   gradient norm :     0.0038127 Eh/α   predicted    -0.8333526E-04 ( -26.48%)
   displ. norm   :     0.2757832 α      lambda       -0.1016913E-03
   maximum displ.:     0.1639920 α      in ANC's #3, #2, #4, ...

........................................................................
.............................. CYCLE   49 ..............................
........................................................................

 iter      E             dE          RMSdq      gap      omega  full diag
   1    -71.0545153 -0.710545E+02  0.969E-02    2.15       0.0  T
   2    -71.0545168 -0.146504E-05  0.560E-02    2.15       1.0  T
   3    -71.0545150  0.182066E-05  0.819E-03    2.15       1.9  T
   4    -71.0545173 -0.228293E-05  0.346E-03    2.15       4.6  T
   5    -71.0545174 -0.152031E-06  0.166E-03    2.15       9.5  T
   6    -71.0545174 -0.149545E-07  0.113E-03    2.15      14.0  T
   7    -71.0545174 -0.620879E-08  0.845E-04    2.15      18.7  T
   8    -71.0545174 -0.431218E-08  0.304E-04    2.15      52.0  T
     SCC iter.                  ...        0 min,  0.016 sec
     gradient                   ...        0 min,  0.007 sec
 * total energy  :   -70.0649068 Eh     change       -0.8348354E-04 Eh
   gradient norm :     0.0054371 Eh/α   predicted    -0.5473490E-04 ( -34.44%)
   displ. norm   :     0.4155408 α      lambda       -0.1919777E-03
   maximum displ.:     0.2443745 α      in ANC's #3, #2, #4, ...

........................................................................
.............................. CYCLE   50 ..............................
........................................................................

 iter      E             dE          RMSdq      gap      omega  full diag
   1    -71.0533955 -0.710534E+02  0.147E-01    2.13       0.0  T
   2    -71.0533985 -0.297909E-05  0.849E-02    2.13       1.0  T
   3    -71.0533958  0.270518E-05  0.111E-02    2.13       1.4  T
   4    -71.0533993 -0.355613E-05  0.513E-03    2.13       3.1  T
   5    -71.0533997 -0.340801E-06  0.250E-03    2.13       6.3  T
   6    -71.0533997 -0.326033E-07  0.170E-03    2.13       9.3  T
   7    -71.0533997 -0.154261E-07  0.126E-03    2.13      12.6  T
   8    -71.0533997 -0.102002E-07  0.425E-04    2.13      37.2  T
   9    -71.0533997 -0.307509E-08  0.238E-04    2.13      66.5  T
     SCC iter.                  ...        0 min,  0.018 sec
     gradient                   ...        0 min,  0.007 sec
 * total energy  :   -70.0650608 Eh     change       -0.1540271E-03 Eh
   gradient norm :     0.0070247 Eh/α   predicted    -0.1125681E-03 ( -26.92%)
   displ. norm   :     0.4315794 α      lambda       -0.2940453E-03
   maximum displ.:     0.2492384 α      in ANC's #2, #3, #4, ...

........................................................................
.............................. CYCLE   51 ..............................
........................................................................

 iter      E             dE          RMSdq      gap      omega  full diag
   1    -71.0549861 -0.710550E+02  0.157E-01    2.12       0.0  T
   2    -71.0549889 -0.279846E-05  0.909E-02    2.12       1.0  T
   3    -71.0549871  0.187402E-05  0.116E-02    2.11       1.4  T
   4    -71.0549899 -0.286286E-05  0.519E-03    2.11       3.0  T
   5    -71.0549901 -0.209555E-06  0.252E-03    2.11       6.3  T
   6    -71.0549902 -0.477199E-07  0.178E-03    2.11       8.9  T
   7    -71.0549902 -0.165710E-07  0.128E-03    2.11      12.4  T
   8    -71.0549902 -0.106913E-07  0.384E-04    2.11      41.2  T
   9    -71.0549902 -0.194184E-08  0.231E-04    2.11      68.5  T
     SCC iter.                  ...        0 min,  0.018 sec
     gradient                   ...        0 min,  0.007 sec
 * total energy  :   -70.0652965 Eh     change       -0.2357407E-03 Eh
   gradient norm :     0.0065589 Eh/α   predicted    -0.1744096E-03 ( -26.02%)
   displ. norm   :     0.4768835 α      lambda       -0.3066935E-03
   maximum displ.:     0.2855850 α      in ANC's #2, #3, #4, ...

........................................................................
.............................. CYCLE   52 ..............................
........................................................................

 iter      E             dE          RMSdq      gap      omega  full diag
   1    -71.0570087 -0.710570E+02  0.175E-01    2.10       0.0  T
   2    -71.0570118 -0.314990E-05  0.102E-01    2.10       1.0  T
   3    -71.0570086  0.322822E-05  0.137E-02    2.10       1.2  T
   4    -71.0570132 -0.462280E-05  0.531E-03    2.10       3.0  T
   5    -71.0570133 -0.116730E-06  0.278E-03    2.10       5.7  T
   6    -71.0570134 -0.700342E-07  0.198E-03    2.10       8.0  T
   7    -71.0570134 -0.219317E-07  0.141E-03    2.10      11.2  T
   8    -71.0570134 -0.125836E-07  0.427E-04    2.10      37.0  T
   9    -71.0570134 -0.197964E-08  0.268E-04    2.10      59.1  T
     SCC iter.                  ...        0 min,  0.020 sec
[...]
H26-C3-C2=120.32               H26-C3-C4=120.57               C5-C4-C3=120.71                H27-C4-C3=120.48               
H27-C4-C5=118.79               C6-C5-C4=119.15                C8-C5-C4=117.06                C8-C5-C6=123.78                
C7-C6-C5=120.34                H28-C6-C5=120.92               H28-C6-C7=118.67               C6-C7-C2=119.48                
H29-C7-C2=119.96               H29-C7-C6=120.55               O9-C8-C5=124.82                C10-C8-C5=115.48               
C10-C8-O9=119.41               N11-C10-C8=107.76              H30-C10-C8=111.14              H30-C10-N11=110.39             
H31-C10-C8=107.88              H31-C10-N11=109.79             H31-C10-H30=109.82             

 selected dihedral angles (degree)
 ---------------------------------
C4-C3-C2-Br1=177.73           C4-C3-C2-C7=358.16            H26-C3-C2-Br1=357.95          H26-C3-C2-C7=178.38           
C5-C4-C3-C2=358.67            C5-C4-C3-H26=178.44           H27-C4-C3-C2=180.20           H27-C4-C3-H26=359.97          
C6-C5-C4-C3=  3.37            C6-C5-C4-H27=181.87           C8-C5-C4-C3=184.59            C8-C5-C4-H27=  3.08           
C7-C6-C5-C4=357.72            C7-C6-C5-C8=176.41            H28-C6-C5-C4=174.81           H28-C6-C5-C8=353.51           
C6-C7-C2-Br1=183.34           C6-C7-C2-C3=  2.91            H29-C7-C2-Br1=  2.85          H29-C7-C2-C3=182.42           
C2-C7-C6-C5=359.20            C2-C7-C6-H28=182.03           H29-C7-C6-C5=179.69           H29-C7-C6-H28=  2.53          
O9-C8-C5-C4=331.10            O9-C8-C5-C6=152.37            C10-C8-C5-C4=144.84           C10-C8-C5-C6=326.12           
N11-C10-C8-C5=295.23          N11-C10-C8-O9=109.34          H30-C10-C8-C5= 56.30          H30-C10-C8-O9=230.41          
H31-C10-C8-C5=176.75          H31-C10-C8-O9=350.85          
           -------------------------------------------------
          |                Final Singlepoint                |
           -------------------------------------------------

          ...................................................
          :                      SETUP                      :
          :.................................................:
          :  # basis functions                 127          :
          :  # atomic orbitals                 125          :
          :  # shells                           67          :
          :  # electrons                       126          :
          :  max. iterations                   250          :
          :  Hamiltonian                  GFN2-xTB          :
          :  restarted?                      false          :
          :  GBSA solvation                  false          :
          :  PC potential                    false          :
          :  electronic temp.          300.0000000     K    :
          :  accuracy                    1.0000000          :
          :  -> integral cutoff          0.2500000E+02      :
          :  -> integral neglect         0.1000000E-07      :
          :  -> SCF convergence          0.1000000E-05 Eh   :
          :  -> wf. convergence          0.1000000E-03 e    :
          :  Broyden damping             0.4000000          :
          :  net charge                          1          :
          :  unpaired electrons                  0          :
          ...................................................

 iter      E             dE          RMSdq      gap      omega  full diag
   1    -71.0630763 -0.710631E+02  0.238E-04    2.15       0.0  T
   2    -71.0630763 -0.132388E-09  0.193E-04    2.15      82.0  T
   3    -71.0630763  0.741522E-10  0.146E-04    2.15     108.4  T

   *** convergence criteria satisfied after 3 iterations ***

         #    Occupation            Energy/Eh            Energy/eV
      -------------------------------------------------------------
         1        2.0000           -0.9331262             -25.3917
       ...           ...                  ...                  ...
        57        2.0000           -0.5435866             -14.7917
        58        2.0000           -0.5387726             -14.6607
        59        2.0000           -0.5293476             -14.4043
        60        2.0000           -0.5092537             -13.8575
        61        2.0000           -0.5080454             -13.8246
        62        2.0000           -0.5053391             -13.7510
        63        2.0000           -0.5040814             -13.7168 (HOMO)
        64                         -0.4250580             -11.5664 (LUMO)
        65                         -0.4139837             -11.2651
        66                         -0.4007348             -10.9045
        67                         -0.3682909             -10.0217
        68                         -0.3593290              -9.7778
       ...                                ...                  ...
       125                          0.5500126              14.9666
      -------------------------------------------------------------
                  HL-Gap            0.0790233 Eh            2.1503 eV
             Fermi-level           -0.4645697 Eh          -12.6416 eV

 SCC (total)                   0 d,  0 h,  0 min,  0.023 sec
 SCC setup                      ...        0 min,  0.000 sec (  0.417%)
 Dispersion                     ...        0 min,  0.000 sec (  0.966%)
 classical contributions        ...        0 min,  0.000 sec (  0.152%)
 integral evaluation            ...        0 min,  0.002 sec ( 10.085%)
 iterations                     ...        0 min,  0.012 sec ( 55.001%)
 molecular gradient             ...        0 min,  0.007 sec ( 32.603%)
 printout                       ...        0 min,  0.000 sec (  0.695%)

         :::::::::::::::::::::::::::::::::::::::::::::::::::::
         ::                     SUMMARY                     ::
         :::::::::::::::::::::::::::::::::::::::::::::::::::::
         :: total energy             -70.069284494264 Eh    ::
         :: gradient norm              0.000528545863 Eh/a0 ::
         :: HOMO-LUMO gap              2.150334572467 eV    ::
         ::.................................................::
         :: SCC energy               -71.062232369644 Eh    ::
         :: -> isotropic ES            0.128464462418 Eh    ::
         :: -> anisotropic ES         -0.011104177856 Eh    ::
         :: -> anisotropic XC          0.031500660873 Eh    ::
         :: -> dispersion             -0.050424990536 Eh    ::
         :: repulsion energy           0.992947875379 Eh    ::
         :: add. restraining           0.000000000000 Eh    ::
         :: total charge               1.000000000000 e     ::
         :::::::::::::::::::::::::::::::::::::::::::::::::::::

           -------------------------------------------------
          |                Property Printout                |
           -------------------------------------------------

    * Orbital Energies and Occupations

         #    Occupation            Energy/Eh            Energy/eV
      -------------------------------------------------------------
         1        2.0000           -0.9331262             -25.3917
       ...           ...                  ...                  ...
        51        2.0000           -0.5701228             -15.5138
        52        2.0000           -0.5615370             -15.2802
        53        2.0000           -0.5588557             -15.2072
        54        2.0000           -0.5556177             -15.1191
        55        2.0000           -0.5542943             -15.0831
        56        2.0000           -0.5465331             -14.8719
        57        2.0000           -0.5435866             -14.7917
        58        2.0000           -0.5387726             -14.6607
        59        2.0000           -0.5293476             -14.4043
        60        2.0000           -0.5092537             -13.8575
        61        2.0000           -0.5080454             -13.8246
        62        2.0000           -0.5053391             -13.7510
        63        2.0000           -0.5040814             -13.7168 (HOMO)
        64                         -0.4250580             -11.5664 (LUMO)
        65                         -0.4139837             -11.2651
        66                         -0.4007348             -10.9045
        67                         -0.3682909             -10.0217
        68                         -0.3593290              -9.7778
        69                         -0.3558516              -9.6832
        70                         -0.3348492              -9.1117
        71                         -0.3336110              -9.0780
        72                         -0.3023628              -8.2277
        73                         -0.2994043              -8.1472
        74                         -0.2279683              -6.2033
       ...                                ...                  ...
       125                          0.5500126              14.9666
      -------------------------------------------------------------
                  HL-Gap            0.0790233 Eh            2.1503 eV
             Fermi-level           -0.4645697 Eh          -12.6416 eV

     #   Z          covCN         q      C6AA      α(0)
     1  35 Br       1.074    -0.116   188.241    22.122
     2   6 C        2.918     0.102    25.742     8.320
     3   6 C        2.990    -0.024    28.590     8.771
     4   6 C        2.930    -0.011    28.284     8.722
     5   6 C        2.970    -0.017    28.438     8.747
     6   6 C        2.922    -0.025    28.631     8.775
     7   6 C        2.994    -0.024    28.592     8.771
     8   6 C        2.820     0.230    23.184     7.889
     9   8 O        0.857    -0.303    19.841     5.972
    10   6 C        3.741    -0.054    21.621     6.634
    11   7 N        2.869     0.069    20.031     6.647
    12   6 C        3.069    -0.006    28.090     8.690
    13   6 C        3.064    -0.007    28.119     8.696
    14   7 N        2.871     0.072    19.985     6.640
    15   6 C        3.092     0.056    26.642     8.460
    16   6 C        3.744    -0.051    21.565     6.625
    17   6 C        2.823     0.228    23.221     7.896
    18   8 O        0.857    -0.373    21.155     6.167
    19   6 C        2.969    -0.019    28.490     8.755
    20   6 C        2.920    -0.026    28.641     8.776
    21   6 C        2.992    -0.027    28.673     8.784
    22   6 C        2.915     0.104    25.707     8.314
    23   6 C        2.988    -0.026    28.634     8.778
    24   6 C        2.929    -0.009    28.243     8.715
    25  35 Br       1.072    -0.083   187.317    22.067
    26   1 H        0.926     0.079     1.992     2.207
    27   1 H        0.926     0.078     2.002     2.213
    28   1 H        0.926     0.047     2.352     2.398
    29   1 H        0.926     0.072     2.063     2.246
    30   1 H        0.925     0.096     1.824     2.112
    31   1 H        0.924     0.112     1.678     2.026
    32   1 H        0.926     0.115     1.656     2.012
    33   1 H        0.926     0.106     1.730     2.057
    34   1 H        0.926     0.116     1.646     2.007
    35   1 H        0.924     0.103     1.762     2.076
    36   1 H        0.925     0.104     1.747     2.067
    37   1 H        0.926     0.055     2.260     2.351
    38   1 H        0.926     0.082     1.957     2.187
    39   1 H        0.926     0.089     1.891     2.150
    40   1 H        0.926     0.088     1.900     2.155

 Mol. C6AA /au·bohr⁶  :      26908.598917
 Mol. C8AA /au·bohr⁸  :     809093.333776
 Mol. α(0) /au        :        260.998137


Wiberg/Mayer (AO) data.
largest (>0.10) Wiberg bond orders for each atom

 ---------------------------------------------------------------------------
     #   Z sym  total        # sym  WBO       # sym  WBO       # sym  WBO
 ---------------------------------------------------------------------------
     1  35 Br   1.170 --     2 C    1.018
     2   6 C    3.948 --     3 C    1.395     7 C    1.387     1 Br   1.018
     3   6 C    3.987 --     4 C    1.462     2 C    1.395    26 H    0.964
     4   6 C    3.985 --     3 C    1.462     5 C    1.358    27 H    0.963
     5   6 C    3.987 --     6 C    1.364     4 C    1.358     8 C    1.049
     6   6 C    3.990 --     7 C    1.468     5 C    1.364    28 H    0.963
     7   6 C    3.989 --     6 C    1.468     2 C    1.387    29 H    0.965
     8   6 C    3.926 --     9 O    1.870     5 C    1.049    10 C    0.904
     9   8 O    2.126 --     8 C    1.870
    10   6 C    3.935 --    11 N    0.983    31 H    0.960    30 H    0.955
                             8 C    0.904
    11   7 N    3.711 --    15 C    1.352    12 C    1.213    10 C    0.983
    12   6 C    3.946 --    13 C    1.602    11 N    1.213    32 H    0.960
    13   6 C    3.946 --    12 C    1.602    14 N    1.213    33 H    0.961
    14   7 N    3.707 --    15 C    1.339    13 C    1.213    16 C    0.996
    15   6 C    3.945 --    11 N    1.352    14 N    1.339    34 H    0.952
    16   6 C    3.947 --    14 N    0.996    36 H    0.955    35 H    0.943
                            17 C    0.923
    17   6 C    3.918 --    18 O    1.783    19 C    1.093    16 C    0.923
    18   8 O    2.075 --    17 C    1.783
    19   6 C    3.983 --    20 C    1.340    24 C    1.336    17 C    1.093
    20   6 C    3.990 --    21 C    1.488    19 C    1.340    37 H    0.964
    21   6 C    3.987 --    20 C    1.488    22 C    1.370    38 H    0.964
    22   6 C    3.950 --    23 C    1.380    21 C    1.370    25 Br   1.047
    23   6 C    3.985 --    24 C    1.478    22 C    1.380    39 H    0.962
    24   6 C    3.982 --    23 C    1.478    19 C    1.336    40 H    0.958
    25  35 Br   1.208 --    22 C    1.047
    26   1 H    0.993 --     3 C    0.964
    27   1 H    0.994 --     4 C    0.963
    28   1 H    0.998 --     6 C    0.963
    29   1 H    0.994 --     7 C    0.965
    30   1 H    0.990 --    10 C    0.955
    31   1 H    0.987 --    10 C    0.960
    32   1 H    0.987 --    12 C    0.960
    33   1 H    0.988 --    13 C    0.961
    34   1 H    0.987 --    15 C    0.952
    35   1 H    0.989 --    16 C    0.943
    36   1 H    0.988 --    16 C    0.955
    37   1 H    0.997 --    20 C    0.964
    38   1 H    0.993 --    21 C    0.964
    39   1 H    0.991 --    23 C    0.962
    40   1 H    0.992 --    24 C    0.958
 ---------------------------------------------------------------------------

Topologies differ in total number of bonds
Writing topology from bond orders to xtbtopo.mol

molecular dipole:
                 x           y           z       tot (Debye)
 q only:        8.190      -6.316       3.855
   full:        8.713      -6.259       3.726      28.866
molecular quadrupole (traceless):
                xx          xy          yy          xz          yz          zz
 q only:       43.826     -68.996      -6.142      43.038     -43.120     -37.684
  q+dip:       45.777     -80.928     -10.259      44.936     -40.977     -35.518
   full:       44.884     -80.981     -11.173      44.059     -41.286     -33.711

           -------------------------------------------------
          |                Geometry Summary                 |
           -------------------------------------------------

      molecular mass/u    :      463.1423652
   center of mass at/Å    :        1.4709179      -3.3589259       1.4103524
  moments of inertia/u·Å² :        0.2221636E+04   0.6358445E+04   0.8277448E+04
rotational constants/cm⁻¹ :        0.7587935E-02   0.2651219E-02   0.2036574E-02

 * 38 selected distances

     #   Z          #   Z                                           value/Å
     1  35 Br       2   6 C                                       1.8946479 (max)
     2   6 C        3   6 C                                       1.3874696
     3   6 C        4   6 C                                       1.3784126
     4   6 C        5   6 C                                       1.3985883
     5   6 C        6   6 C                                       1.3965949
     2   6 C        7   6 C                                       1.3881513
     6   6 C        7   6 C                                       1.3790251
     8   6 C        9   8 O                                       1.2003458
    10   6 C       11   7 N                                       1.4370837
    11   7 N       12   6 C                                       1.3646620
    12   6 C       13   6 C                                       1.3601232
    13   6 C       14   7 N                                       1.3635650
    11   7 N       15   6 C                                       1.3305962
    14   7 N       15   6 C                                       1.3337489
    14   7 N       16   6 C                                       1.4330921
    17   6 C       18   8 O                                       1.2126851
    19   6 C       20   6 C                                       1.4016565
    20   6 C       21   6 C                                       1.3775087
    21   6 C       22   6 C                                       1.3930056
    22   6 C       23   6 C                                       1.3910489
    19   6 C       24   6 C                                       1.4037047
    23   6 C       24   6 C                                       1.3760527
    22   6 C       25  35 Br                                      1.8896265
     3   6 C       26   1 H                                       1.0788226
     4   6 C       27   1 H                                       1.0794543
     6   6 C       28   1 H                                       1.0797178
     7   6 C       29   1 H                                       1.0789264
    10   6 C       30   1 H                                       1.0893821
    10   6 C       31   1 H                                       1.0921353
    12   6 C       32   1 H                                       1.0712211
    13   6 C       33   1 H                                       1.0708058 (min)
    15   6 C       34   1 H                                       1.0714153
    16   6 C       35   1 H                                       1.0938467
    16   6 C       36   1 H                                       1.0900609
    20   6 C       37   1 H                                       1.0785374
    21   6 C       38   1 H                                       1.0788454
    23   6 C       39   1 H                                       1.0784361
    24   6 C       40   1 H                                       1.0786463

 * 5 distinct bonds (by element types)

   Z      Z             #   av. dist./Å        max./Å        min./Å
   1 H    6 C          15     1.0806836     1.0938467     1.0708058
   6 C    6 C          13     1.3870263     1.4037047     1.3601232
   6 C    7 N           6     1.3771247     1.4370837     1.3305962
   6 C    8 O           2     1.2065154     1.2126851     1.2003458
   6 C   35 Br          2     1.8921372     1.8946479     1.8896265


optimized geometry written to: xtbopt.xyz


           -------------------------------------------------
          | TOTAL ENERGY              -70.069284494264 Eh   |
          | GRADIENT NORM               0.000528545863 Eh/α |
          | HOMO-LUMO GAP               2.150334572467 eV   |
           -------------------------------------------------

------------------------------------------------------------------------
 * finished run on 2024/12/20 at 02:11:05.779     
------------------------------------------------------------------------
 total:
 * wall-time:     0 d,  0 h,  0 min,  2.993 sec
 *  cpu-time:     0 d,  0 h,  0 min, 23.457 sec
 * ratio c/w:     7.837 speedup
 SCF:
 * wall-time:     0 d,  0 h,  0 min,  0.069 sec
 *  cpu-time:     0 d,  0 h,  0 min,  0.515 sec
 * ratio c/w:     7.427 speedup
 ANC optimizer:
 * wall-time:     0 d,  0 h,  0 min,  2.906 sec
 *  cpu-time:     0 d,  0 h,  0 min, 22.809 sec
 * ratio c/w:     7.850 speedup

