14
 energy: -21.215655470058 gnorm: 0.108188195309 xtb: 6.7.1 (edcfbbe)
C            0.93026000000000       -0.00578000000000       -0.09156000000000
N            0.54323000000000        1.39807000000000       -0.15425000000000
C            1.36432000000000        2.50916000000000        0.01272000000000
C            0.52786000000000        3.57966000000000       -0.11318000000000
N           -0.70984000000000        3.00976000000000       -0.34598000000000
N           -0.73424000000000        1.69144000000000       -0.36543000000000
N           -1.91053000000000        3.75058000000000       -0.49911000000000
H            0.53099000000000       -0.53258000000000       -0.96290000000000
H            0.52910000000000       -0.44492000000000        0.82597000000000
H            2.02028000000000       -0.09188000000000       -0.08978000000000
H            2.41224000000000        2.37448000000000        0.20351000000000
H            0.63222000000000        4.64573000000000       -0.05861000000000
H           -2.62769000000000        3.19436000000000       -0.96074000000000
H           -1.77425000000000        4.65475000000000       -0.94366000000000
14
 energy: -21.225468702133 gnorm: 0.044062316187 xtb: 6.7.1 (edcfbbe)
C            0.93244271443878        0.00240938292825       -0.08833500961978
N            0.55092477340627        1.39421071061788       -0.15450624766884
C            1.34116092108361        2.49041708659304        0.01341705391785
C            0.50951642550923        3.57044154544239       -0.12134964170123
N           -0.71698676829429        3.03136030280195       -0.36947347309145
N           -0.69935254420260        1.72764376801046       -0.38709622693687
N           -1.89218791704335        3.73792896281958       -0.49622846504153
H            0.52813528614912       -0.52230355041953       -0.95371124926862
H            0.52401112369059       -0.44522227974328        0.81851729202457
H            2.01756846541062       -0.08513234144601       -0.08161800538092
H            2.38804545000074        2.37401853513154        0.20749831076068
H            0.63792316541893        4.63173193098905       -0.06209329216371
H           -2.61827126699525        3.17957730775387       -0.93595505467868
H           -1.76897982857238        4.64574863852080       -0.93206599115146
14
 energy: -21.227608601858 gnorm: 0.011890443877 xtb: 6.7.1 (edcfbbe)
C            0.92647173020153        0.01321634421753       -0.09093903398844
N            0.55220699571071        1.39522236258582       -0.15513795993208
C            1.32743415407126        2.47657201607070        0.02043862511971
C            0.50275771627712        3.56408283488401       -0.12688452731873
N           -0.71881679390515        3.04262557087275       -0.38386541253266
N           -0.68205914772230        1.74752807248767       -0.40108183927158
N           -1.87071069107958        3.71849611924818       -0.50609154890349
H            0.51858791981062       -0.51347019505339       -0.95245272647174
H            0.51652250973431       -0.44139333124217        0.81147126884215
H            2.00948048587697       -0.07204801675068       -0.08187572527917
H            2.37586104362948        2.38981672646387        0.22339364403206
H            0.66644770138997        4.62091554726056       -0.06564579996584
H           -2.61918542441562        3.15679233181922       -0.90387645811776
H           -1.77104819957933        4.63447361713591       -0.93045250621242
14
 energy: -21.227896370251 gnorm: 0.008529779688 xtb: 6.7.1 (edcfbbe)
C            0.92361474321244        0.01309859179314       -0.09058136425466
N            0.55440230925104        1.39520128266733       -0.16061705273715
C            1.33024249864487        2.47554188752615        0.02107999643149
C            0.50677436934233        3.56504808480313       -0.12886486944351
N           -0.71480921931247        3.04419257674796       -0.39353359411809
N           -0.67849530217353        1.74784439066386       -0.41831016127575
N           -1.86875183609072        3.71377444034691       -0.51302563286172
H            0.51659183401363       -0.51637998226305       -0.95123713114499
H            0.50988562939440       -0.43920429077280        0.81195930825755
H            2.00660982361442       -0.07586968265127       -0.07742733180621
H            2.37802340563645        2.40292621684882        0.23419211707282
H            0.68409834291135        4.61918838630668       -0.06246689227257
H           -2.62724352482398        3.15034725152016       -0.88847341719240
H           -1.78699307362024        4.63712084646297       -0.92569397465483
14
 energy: -21.228065885084 gnorm: 0.003807665780 xtb: 6.7.1 (edcfbbe)
C            0.92025711273713        0.01190283440377       -0.09258496154142
N            0.55673038504884        1.39527855244014       -0.16531970781447
C            1.33241050691910        2.47499075326820        0.02409935885818
C            0.50971062562148        3.56720979240092       -0.12603902883508
N           -0.71100639663572        3.04705389998008       -0.39879010358934
N           -0.67672508479136        1.74828445177538       -0.42722609500747
N           -1.86653284905347        3.71023890658210       -0.52688900784388
H            0.50782575941753       -0.52012889904813       -0.94978557496144
H            0.50804606972431       -0.43564808528809        0.81367647436375
H            2.00321367433944       -0.08345347231241       -0.08233272066540
H            2.37943880024086        2.42230251215721        0.24542051144738
H            0.70633229512134        4.61708878598805       -0.05654124599493
H           -2.63154820169773        3.13973786847538       -0.87187988905191
H           -1.80420269699175        4.63797209917737       -0.92880800936398
14
 energy: -21.228081021816 gnorm: 0.001642705790 xtb: 6.7.1 (edcfbbe)
C            0.91985581310662        0.01140889711222       -0.09282484754425
N            0.55717927355716        1.39543897912348       -0.16509612949170
C            1.33235109363190        2.47488439436034        0.02461583592552
C            0.50925523650808        3.56748198406380       -0.12496333034603
N           -0.71064864263224        3.04774265541640       -0.39848709528033
N           -0.67658348506949        1.74861932151363       -0.42769182863506
N           -1.86628752986570        3.71043336506759       -0.53092020470341
H            0.50353763537648       -0.51972320969554       -0.94857795319724
H            0.51079857159171       -0.43494585207620        0.81544704731124
H            2.00277789791642       -0.08496194718135       -0.08716494149358
H            2.37878401836885        2.42514426938168        0.24729244200379
H            0.70866851565585        4.61631752804411       -0.05439985495149
H           -2.63028588823417        3.13706884564724       -0.86946591471470
H           -1.80545250991147        4.63792076922258       -0.93076322488275
14
 energy: -21.228088494890 gnorm: 0.001298974793 xtb: 6.7.1 (edcfbbe)
C            0.91976565111873        0.01096804708383       -0.09347908032898
N            0.55774519913029        1.39589408311167       -0.16445882744764
C            1.33191555048459        2.47487785871478        0.02680614916168
C            0.50849890312443        3.56769597498758       -0.12447579976884
N           -0.70997056995514        3.04842384421042       -0.39944230064062
N           -0.67617870756701        1.74923539597999       -0.42826574247018
N           -1.86558832393507        3.71103028446695       -0.53606131443360
H            0.49590727475353       -0.51909251780716       -0.94592205558353
H            0.51741823967460       -0.43342338187237        0.81852543223862
H            2.00261977896769       -0.08620221011773       -0.09664048835304
H            2.37733265998685        2.42558024576824        0.25235191539436
H            0.70874335269637        4.61593013198861       -0.05249057066983
H           -2.62941239125385        3.13363445372489       -0.86551827122216
H           -1.80484661722604        4.63827778976031       -0.93392904587624
14
 energy: -21.228092075012 gnorm: 0.000888778482 xtb: 6.7.1 (edcfbbe)
C            0.91990398824286        0.01116289255647       -0.09337320025552
N            0.55770768520884        1.39604753294576       -0.16469244782788
C            1.33172046134046        2.47513148933533        0.02733621074672
C            0.50819593560993        3.56768938344059       -0.12360921082975
N           -0.70991412441151        3.04816022970730       -0.40045826107016
N           -0.67585925038306        1.74911586728163       -0.43018776955147
N           -1.86538094661728        3.71074765507247       -0.53687589533941
H            0.49229567771817       -0.51985191778239       -0.94329172328176
H            0.52141304717030       -0.43216065148743        0.82079906380466
H            2.00270305605211       -0.08606221891910       -0.10083241946023
H            2.37714629180490        2.42390666876580        0.25309561796265
H            0.70679682151190        4.61640220677319       -0.05092228507206
H           -2.62915394303242        3.13373041616014       -0.86650194023159
H           -1.80362470021523        4.63881044615023       -0.93348573959419
