35
 energy: -50.285961078627 gnorm: 0.074826410387 xtb: 6.7.1 (edcfbbe)
O            1.82725000000000        1.69654000000000        0.10756000000000
C            2.68665000000000        0.84532000000000       -0.12571000000000
C            3.06110000000000        0.54064000000000       -1.53821000000000
C            3.91284000000000       -0.51810000000000       -1.88083000000000
C            4.23492000000000       -0.74980000000000       -3.22142000000000
C            3.71069000000000        0.06728000000000       -4.22150000000000
C            2.85948000000000        1.11777000000000       -3.88804000000000
C            2.53383000000000        1.35395000000000       -2.55167000000000
C            3.39308000000000        0.08979000000000        0.99575000000000
N            3.06786000000000        0.66072000000000        2.32430000000000
C            2.30218000000000        0.00054000000000        3.26990000000000
C            1.98595000000000        0.91034000000000        4.22804000000000
N            2.57774000000000        2.10496000000000        3.86038000000000
C            3.24530000000000        1.95605000000000        2.69097000000000
C            4.04716000000000        3.01475000000000        1.95167000000000
C            5.21020000000000        2.75897000000000        1.32730000000000
C            3.44254000000000        4.38762000000000        1.87961000000000
C            2.52766000000000        3.31397000000000        4.67593000000000
H            4.33929000000000       -1.19002000000000       -1.14290000000000
H            4.89413000000000       -1.57256000000000       -3.49277000000000
H            3.96210000000000       -0.11742000000000       -5.26426000000000
H            2.44677000000000        1.75217000000000       -4.66996000000000
H            1.86422000000000        2.17888000000000       -2.31212000000000
H            3.05224000000000       -0.95145000000000        0.97580000000000
H            4.47657000000000        0.10557000000000        0.87022000000000
H            2.04942000000000       -1.03566000000000        3.12334000000000
H            1.40750000000000        0.86214000000000        5.13489000000000
H            5.74082000000000        3.53962000000000        0.78553000000000
H            5.70892000000000        1.79882000000000        1.38343000000000
H            2.35675000000000        4.32456000000000        1.75369000000000
H            3.66526000000000        4.96302000000000        2.78191000000000
H            3.82861000000000        4.95419000000000        1.02470000000000
H            3.53381000000000        3.72737000000000        4.78062000000000
H            1.85616000000000        4.03693000000000        4.20706000000000
H            2.14869000000000        3.07817000000000        5.67487000000000
35
 energy: -50.294301247162 gnorm: 0.034319159714 xtb: 6.7.1 (edcfbbe)
O            1.86425840710627        1.70771365858571        0.13656538997082
C            2.69610320619786        0.86390987508846       -0.13254835631980
C            3.06558769296291        0.54157568703429       -1.53035069365231
C            3.91384225464484       -0.51483286103754       -1.87853773450737
C            4.22771627823802       -0.74604628113733       -3.20924780020476
C            3.70579805485612        0.06764904017687       -4.20526663053001
C            2.85857087879680        1.11363137881160       -3.87071039004331
C            2.53714939601169        1.34823177530012       -2.54403175744806
C            3.40332099160159        0.10031251327396        0.98926373625007
N            3.07096791688450        0.67412784695789        2.29267381081729
C            2.29944063285065        0.02950046165677        3.22854867638487
C            2.00950963480549        0.92896275341324        4.19962257088762
N            2.59688985780412        2.11534660280547        3.84276802126063
C            3.24613913415604        1.95913293686566        2.67175723404336
C            4.02007964122777        2.99848505847522        1.94376004612830
C            5.18537862562719        2.73789150503169        1.35228190463757
C            3.41924184048706        4.37227837287104        1.88031086641725
C            2.53825507070597        3.30969909918374        4.66155358292112
H            4.33314305072713       -1.17953491902761       -1.13709726665995
H            4.88304616455082       -1.56404378702091       -3.47588638140652
H            3.95731183212468       -0.11544807589806       -5.24162697389837
H            2.44852055527709        1.74620703584851       -4.64600753310344
H            1.87516586406792        2.16550418935450       -2.29188487366876
H            3.05385348947842       -0.93619496699339        0.98007511444890
H            4.48376652827785        0.10909374757576        0.84736313100183
H            2.04329997431152       -1.00467211309834        3.10607974167916
H            1.44171106103014        0.85820798279228        5.10754365643439
H            5.71414183608540        3.51301661600801        0.81958850446951
H            5.68726870255289        1.78606601301357        1.40847905791398
H            2.33875697668541        4.32186137936768        1.75349053978335
H            3.64880891010073        4.95121800638515        2.77459027543758
H            3.83023761715525        4.91764509743719        1.03163816301509
H            3.53501838666805        3.73378599124386        4.77229052495302
H            1.86765635126053        4.04108460201598        4.21044214195728
H            2.15773318468123        3.05427377763895        5.65058970062970
35
 energy: -50.296619964900 gnorm: 0.010023640413 xtb: 6.7.1 (edcfbbe)
O            1.90221338796585        1.74370535237031        0.16037289081005
C            2.70327175715597        0.88933261032760       -0.13765770565102
C            3.06890613615662        0.54836549987183       -1.51906575465474
C            3.91302284809733       -0.51093995420972       -1.86741749825256
C            4.22198390518668       -0.74378990653454       -3.19288318673376
C            3.70123988357858        0.06798307502815       -4.18970171002598
C            2.85588946864789        1.11414708814377       -3.85679945862891
C            2.53938569555266        1.35117749042290       -2.53504440016066
C            3.41358095133461        0.10898577185007        0.98649746115823
N            3.07354482883618        0.68262538217761        2.26662364316395
C            2.30193645898257        0.04628889290086        3.19555198912185
C            2.02571856977344        0.93994280020728        4.17525313954243
N            2.61153994750812        2.12054736463300        3.82856887020834
C            3.24710166133448        1.96072250004980        2.65577195733870
C            4.00188769010087        2.98760893654096        1.94076795564092
C            5.17550161606199        2.72107413249756        1.37524681253796
C            3.39678546078565        4.35937013491810        1.86552660546132
C            2.54957361029577        3.30248232402142        4.65007591894659
H            4.32665925114884       -1.16717559806402       -1.11785361208137
H            4.87325397483463       -1.56228839530349       -3.45465855990587
H            3.95187026304975       -0.11771412129459       -5.22213849599851
H            2.44481971519050        1.74358972443240       -4.62941331284168
H            1.88092348060106        2.16227810004868       -2.26794933288518
H            3.05776832741408       -0.92400169240580        0.97846268306022
H            4.49185451494839        0.11032065861789        0.82915992186741
H            2.03106749143427       -0.98422853285491        3.09153015304778
H            1.46027122309049        0.84331489803037        5.07994359303023
H            5.70593296664562        3.49140669018180        0.84589317681610
H            5.67781744492471        1.77324220709508        1.43993576972755
H            2.31950278031596        4.30768793978946        1.74181016578855
H            3.62786949493952        4.94334229478076        2.75408304232920
H            3.81784919805992        4.88845557813622        1.01584098383590
H            3.54015197782174        3.73770591689054        4.76634589401625
H            1.87790706546256        4.04141008006615        4.21335411093107
H            2.16908695276259        3.02866475663651        5.63204628943968
35
 energy: -50.297091425440 gnorm: 0.005112087948 xtb: 6.7.1 (edcfbbe)
O            1.93243372192508        1.77852259441952        0.17131504460734
C            2.71458362626405        0.90961281359781       -0.13728105026302
C            3.06925840056483        0.55776731028561       -1.51336444340198
C            3.91022636810431       -0.50579774319635       -1.85769926537229
C            4.21654587911372       -0.74338040615150       -3.18254209695595
C            3.69590307641284        0.06677612343524       -4.18170515629210
C            2.85190690395660        1.11605069932650       -3.85270098727056
C            2.53811817148125        1.35817681466408       -2.53153935426947
C            3.41907420086670        0.11173621147495        0.98661409748676
N            3.07593692694687        0.68048163025686        2.26226990383743
C            2.30155397204725        0.04518868645345        3.18730016262146
C            2.02678639120634        0.93766705681129        4.16935832053521
N            2.61390622270045        2.11755489408500        3.82578442851599
C            3.24817342692017        1.95803240753348        2.65258760731646
C            3.99994468202935        2.98529787466863        1.93671003632256
C            5.18196446914824        2.71804241592968        1.38636790110060
C            3.38443017661321        4.35188695215336        1.84424514766145
C            2.55484139606783        3.29693222951367        4.64796323445218
H            4.32205201856361       -1.15798495405171       -1.10330643147423
H            4.86632445171451       -1.56431219744226       -3.44151927985574
H            3.94649233125446       -0.12291551620297       -5.21330859529848
H            2.44071625754387        1.74366910283832       -4.62685781845075
H            1.88290391585961        2.17035459824166       -2.25852263860839
H            3.05907350271223       -0.91939454269134        0.96890367151765
H            4.49669739112346        0.11080406719187        0.82512187846602
H            2.01888661251381       -0.98220927458020        3.08618530995666
H            1.46028492481408        0.82892300624321        5.07139320386432
H            5.71777785078078        3.48644331145027        0.85927092331427
H            5.68671981379998        1.77256250028202        1.47102238195023
H            2.30761399790719        4.28874137382830        1.72063137895728
H            3.60950051149731        4.94560593971159        2.72814237634779
H            3.80217103265048        4.87330753003415        0.98886184434523
H            3.54516204376415        3.73433986184356        4.76305655617369
H            1.88231884056011        4.03830054290715        4.21575020472180
H            2.17740649057111        3.01885608513515        5.62957150344068
35
 energy: -50.297587436333 gnorm: 0.008249902225 xtb: 6.7.1 (edcfbbe)
O            1.98896506684147        1.84028682285189        0.18453177838919
C            2.73556825007738        0.94198051766332       -0.13534295110607
C            3.07121939354917        0.57670032267885       -1.50640738930676
C            3.90506324899893       -0.49544851069941       -1.84423430638598
C            4.20525345452856       -0.74290852898118       -3.16885741283789
C            3.68435943092606        0.06435709980490       -4.17134300956173
C            2.84446552202712        1.12015868686766       -3.84893120389230
C            2.53769505900346        1.37364480661973       -2.52796444197470
C            3.42693678591870        0.11679525020167        0.98769957767806
N            3.08006401711680        0.67432632927044        2.26222022822446
C            2.30262296477345        0.03815960554516        3.18283812170584
C            2.02357674376061        0.93084730599576        4.16503745336886
N            2.61388967227980        2.11045970866814        3.82516802024306
C            3.25109660193574        1.95183131281790        2.65329515861271
C            4.00476345946947        2.98205983715115        1.93627990560700
C            5.20171702910874        2.71744420308362        1.41410276808392
C            3.36507480592647        4.33562860238069        1.80625159472158
C            2.56041792817521        3.28965428410417        4.64626819316047
H            4.31522456972186       -1.14253361164402       -1.08425314896878
H            4.85127881741348       -1.56895972968185       -3.42429794589490
H            3.93318547198422       -0.13334888122313       -5.20234768931709
H            2.43261341589276        1.74389741229519       -4.62671905829932
H            1.88783527535401        2.18921229420012       -2.24888448554997
H            3.06109158559381       -0.91158790210973        0.95031086024914
H            4.50435880934166        0.11552732762644        0.82547152958198
H            2.00502738828229       -0.98523883950660        3.08354981074645
H            1.45411482405259        0.80631427101445        5.06262816724068
H            5.73834020557682        3.47794822250562        0.87522859419588
H            5.70581637358144        1.77320815759857        1.52651791379095
H            2.28906025937644        4.24737723005082        1.68013053040461
H            3.57520796716213        4.95246874319616        2.67920424003320
H            3.77423823191661        4.84418434978001        0.93880251002659
H            3.55188211940844        3.72832883542972        4.75432430585173
H            1.88572373402445        4.03161318349803        4.21751955449480
H            2.18994151689949        3.01125128094583        5.63028222668460
35
 energy: -50.297843690830 gnorm: 0.008394044589 xtb: 6.7.1 (edcfbbe)
O            2.02705230187352        1.87656265895518        0.18938800137809
C            2.75367977292991        0.96386688646982       -0.13290376356098
C            3.07422794286031        0.59033338043111       -1.50400659439481
C            3.90221855002617       -0.48749463891252       -1.83937160684465
C            4.19592124883645       -0.74254731742765       -3.16424150909860
C            3.67343436799870        0.06223674953899       -4.16794544534039
C            2.83817280367041        1.12283677246530       -3.84825466412994
C            2.53816754794779        1.38464170934519       -2.52708807440605
C            3.43217682307260        0.12159516488188        0.98848084806592
N            3.08166694091368        0.66972892582607        2.26553660640709
C            2.30254967318487        0.03238455305024        3.18424367079937
C            2.01991729565136        0.92591920743436        4.16581772683377
N            2.61271329497854        2.10530800681946        3.82753670981859
C            3.25276322966869        1.94693633224620        2.65703415374459
C            4.00826365421455        2.97739528080586        1.93648537844682
C            5.21315268993479        2.71611804221925        1.43250111117420
C            3.35166295871193        4.32011148343478        1.77943470386216
C            2.56300221687095        3.28713784220920        4.64580863710774
H            4.31394718504990       -1.13158586729614       -1.07797412304277
H            4.83795131045737       -1.57241705560197       -3.41858294907368
H            3.91786921069843       -0.14179029701748       -5.19915709178937
H            2.42524694258335        1.74364786867845       -4.62824471489279
H            1.89361418699793        2.20459757257054       -2.24709639378439
H            3.06400954084484       -0.90516796187977        0.93673877315779
H            4.51041261418320        0.12261393414943        0.83171425978295
H            2.00074620720543       -0.98973609777309        3.08473720035681
H            1.44872161305119        0.79557877790978        5.06127826277397
H            5.75735113510888        3.47477715367848        0.89805682515660
H            5.72527675856423        1.77869541540724        1.57691878177180
H            2.27705577242382        4.21286294616644        1.65090012205777
H            3.54989483306095        4.95634080325227        2.64196487444369
H            3.75460679815016        4.81863569933597        0.90270717340706
H            3.55562149860179        3.72615451604456        4.74450404687178
H            1.88526688285482        4.02663402090992        4.21748686275490
H            2.19935419681799        3.01272753167279        5.63367220018534
35
 energy: -50.298092357625 gnorm: 0.006373067639 xtb: 6.7.1 (edcfbbe)
O            2.05998461780252        1.90363309496243        0.19185904037887
C            2.76918374980440        0.97877587034763       -0.12984862002518
C            3.07952289254403        0.60222201860531       -1.50350065905060
C            3.90116322267862       -0.48014957655664       -1.83955716683335
C            4.18572834518383       -0.74262878162646       -3.16515882513919
C            3.65977969337304        0.05956439162903       -4.16863981601445
C            2.83143196518555        1.12521399507702       -3.84837218861202
C            2.54127259115237        1.39513013499607       -2.52642191348208
C            3.43766885854489        0.12707469292794        0.98872335788475
N            3.08232533240850        0.66669995241622        2.26966852400252
C            2.30200415147260        0.02775206159406        3.18718755533238
C            2.01656027189887        0.92167377692298        4.16838230908718
N            2.61028281647490        2.10123493647911        3.83109543279476
C            3.25359518159278        1.94316842797275        2.66271283773728
C            4.01395783151321        2.97322948648164        1.94377661693624
C            5.23031535646116        2.71832618088297        1.46542959779634
C            3.33948082689545        4.30286376124292        1.75538132340520
C            2.56325292390005        3.28723572250981        4.64516205289889
H            4.31703246729337       -1.12203800257692       -1.07906686969083
H            4.82295462491445       -1.57590148683355       -3.42003916903315
H            3.89680420756642       -0.15017067184367       -5.20064862020131
H            2.41635553190271        1.74352375968700       -4.62927784078108
H            1.90197879967346        2.21979224114507       -2.24811171579722
H            3.06946529430887       -0.89851488022198        0.92643142225535
H            4.51746303019822        0.13175035423025        0.84056780853088
H            2.00270221860496       -0.99482431628112        3.08632438880225
H            1.44445468618259        0.79059971708032        5.06309602066439
H            5.77303908696885        3.47067617884462        0.92093117392786
H            5.74275911183409        1.78476481251202        1.62563691044923
H            2.26758359854271        4.17685575537589        1.62085589973729
H            3.52204763541103        4.95949722046974        2.60617573740564
H            3.74028645515170        4.79019447428922        0.87089622500955
H            3.55641415594708        3.72770046570175        4.73162793896092
H            1.88056386841075        4.02198089883862        4.21666652654943
H            2.20827459820133        3.01873333271809        5.63813470411372
35
 energy: -50.298327978721 gnorm: 0.004206115999 xtb: 6.7.1 (edcfbbe)
O            2.08952446697273        1.92397275029352        0.19310402836513
C            2.78390149398605        0.98858857996619       -0.12650483780886
C            3.08694580729259        0.61169777294609       -1.50474936727318
C            3.90162207219900       -0.47407157931756       -1.84492785567478
C            4.17356159873216       -0.74362085818881       -3.17185324327212
C            3.64141224667440        0.05578858300416       -4.17361709703150
C            2.82306485796017        1.12734031052943       -3.84886191717208
C            2.54636099541449        1.40457590042093       -2.52545953001756
C            3.44317861811977        0.13217513044422        0.98804076150958
N            3.08194499984878        0.66467147460367        2.27327266995476
C            2.30084857698229        0.02443346489656        3.19037420714938
C            2.01493225089717        0.91796118307057        4.17187699443339
N            2.60924119519149        2.09757104546394        3.83554181878899
C            3.25364467843289        1.93981284516493        2.66858705344633
C            4.01639608740624        2.96846292918340        1.95033707964847
C            5.24495270341727        2.72153957277641        1.50301459895631
C            3.32622616045299        4.28366883736718        1.72960322020980
C            2.56330256954927        3.28900477435415        4.64350898339594
H            4.32515728770224       -1.11375519491508       -1.08714448372214
H            4.80477582491378       -1.58023141036067       -3.42906178176080
H            3.86601079926248       -0.15989650483164       -5.20719821029345
H            2.40469713559136        1.74434449084196       -4.62876370547748
H            1.91407837613795        2.23536432092028       -2.25024990767808
H            3.07761575961707       -0.89308765049379        0.91896877493716
H            4.52512323038717        0.14124075718185        0.85109583962973
H            2.00877285516708       -0.99999424921289        3.08669109507526
H            1.44204018837749        0.79159494663987        5.06693027612126
H            5.79486855977700        3.47228293119803        0.96439260545900
H            5.76812980431559        1.79874483512330        1.69534267099912
H            2.25838736419805        4.13908438997703        1.58721705265747
H            3.49028978796361        4.96090623642240        2.56706691414806
H            3.72884947926307        4.75802516903517        0.83894719405685
H            3.55543503059779        3.73415571033062        4.71395552298417
H            1.87195365941411        4.01600937059297        4.21569923138614
H            2.22044347778352        3.02727913457169        5.64290334387034
35
 energy: -50.298465669651 gnorm: 0.005716777557 xtb: 6.7.1 (edcfbbe)
O            2.10605235739835        1.93254996617150        0.19321316031106
C            2.79653194515335        0.99510452866851       -0.12503016755959
C            3.09364448053845        0.61615200870142       -1.50612897865339
C            3.90331108899985       -0.47134233157060       -1.85108210403714
C            4.16306367418447       -0.74544501634054       -3.17947101910211
C            3.62398113701802        0.05189897423976       -4.17911189387521
C            2.81447712026982        1.12827722678654       -3.84886971530114
C            2.54947979351600        1.40918393163884       -2.52398901875868
C            3.44880519357341        0.13605548922262        0.98730937091704
N            3.08223286924160        0.66486718397384        2.27396834228591
C            2.30002666761323        0.02368934896740        3.19001801259226
C            2.01525778778882        0.91541131989145        4.17289099141806
N            2.60968614986132        2.09534433079895        3.83824994208570
C            3.25409593233145        1.93850408644739        2.67235030650104
C            4.01953216638065        2.96763534132867        1.95993396513774
C            5.26169993691162        2.72871948361670        1.54638713357582
C            3.31633686598459        4.27044319605041        1.70803988297258
C            2.56292982118210        3.28984079796664        4.64155419200389
H            4.33385974716707       -1.10921651863058       -1.09551438964456
H            4.78940636343110       -1.58447661280083       -3.43953893350649
H            3.83606340157771       -0.16831989427949       -5.21421408560981
H            2.39315861530154        1.74609265900963       -4.62625606605071
H            1.92415580734881        2.24514960858487       -2.24922562993700
H            3.08735383336711       -0.89032461138341        0.91547105741469
H            4.53207628953781        0.14859151503811        0.85782225695434
H            2.01329430676764       -1.00212638810105        3.08321513445980
H            1.44159777616975        0.79369470910950        5.06848530258966
H            5.81418991040909        3.47695767130432        1.00735827094795
H            5.78626162704619        1.81185320913879        1.75439417721693
H            2.25242685842329        4.11048512917211        1.55508293487986
H            3.46116940107042        4.96398562410951        2.53533808215557
H            3.72501947113311        4.73333091871499        0.81435698653039
H            3.55242204662258        3.74216869849133        4.69892325744939
H            1.86233882661272        4.00981981313313        4.21654574618609
H            2.23175073006586        3.03108460282966        5.64560349545080
35
 energy: -50.298568149825 gnorm: 0.004843491030 xtb: 6.7.1 (edcfbbe)
O            2.11055509606775        1.93182841965896        0.19181587900657
C            2.80146270419224        0.99329095078580       -0.12584332658270
C            3.10010320921979        0.61727842693845       -1.50764774653405
C            3.90597079672768       -0.47120263916940       -1.85737167969277
C            4.15409933008635       -0.74813854147254       -3.18731970079713
C            3.60833501181596        0.04806812446847       -4.18443827487695
C            2.80645028117048        1.12843681747118       -3.84885207550823
C            2.55285744225853        1.41173003876985       -2.52229355208229
C            3.45425092549052        0.13830731424454        0.98659111266289
N            3.08314078671025        0.66648120450455        2.27254804118921
C            2.30023666326966        0.02427482191384        3.18760161658685
C            2.01638666149421        0.91370045030451        4.17202452678882
N            2.61102785543007        2.09418879246668        3.83927907208149
C            3.25435778881753        1.93891922131633        2.67342184717103
C            4.02188619740780        2.96983530375682        1.96723149431166
C            5.27376845859756        2.73785085656599        1.58280394370446
C            3.31103952155516        4.26297749986580        1.69071693590303
C            2.56228453417798        3.28971514035362        4.63987107070101
H            4.34167701346361       -1.10834285020006       -1.10382578710785
H            4.77665546598777       -1.58886588958079       -3.45067798426073
H            3.80943600334331       -0.17516502052387       -5.22080559544931
H            2.38144007308448        1.74749154905660       -4.62316100145045
H            1.93136602451448        2.24960682572386       -2.24570458070105
H            3.09808129025275       -0.89010270445221        0.91630433144062
H            4.53814791136097        0.15423650499932        0.85985149387593
H            2.01628989689836       -1.00210516133858        3.07752087892429
H            1.44203255404544        0.79568385516915        5.06800011289350
H            5.83271951646816        3.48715889071832        1.05180883369947
H            5.80198447831965        1.82743404316010        1.81067332655607
H            2.25077251135280        4.09134662816716        1.52699322340542
H            3.43841313560582        4.96738240428883        2.51092393999843
H            3.72754417919879        4.71738615447064        0.79678330530330
H            3.54821955489313        3.75059872572877        4.68628104033092
H            1.85204346696940        4.00324395431021        4.21948816670677
H            2.24265365975028        3.03110988755912        5.64748711180263
35
 energy: -50.298672452076 gnorm: 0.005316564235 xtb: 6.7.1 (edcfbbe)
O            2.10071491161040        1.91740945756670        0.18904146343199
C            2.80622037047991        0.99015066565270       -0.12825801914697
C            3.10493967764175        0.61527682601620       -1.50988548714756
C            3.90844320256272       -0.47329335562882       -1.86453453804605
C            4.14473534113918       -0.75158926571064       -3.19616992730839
C            3.59147288358429        0.04388371291940       -4.19010730587051
C            2.79574624029726        1.12706292354518       -3.84932892744001
C            2.55229277120344        1.41043594196541       -2.52120122933829
C            3.46326326135417        0.14147401104993        0.98607148533516
N            3.08579676160504        0.66968584408395        2.26961524245930
C            2.30149382183039        0.02571712392863        3.18250453081901
C            2.01697947802270        0.91219121734239        4.16868021711174
N            2.61206551065552        2.09371992334709        3.83882902107872
C            3.25492084805123        1.94097565891715        2.67300824324190
C            4.02611877696910        2.97518442640371        1.97524773048726
C            5.28956365099184        2.75182601448643        1.62616318185856
C            3.30909212007173        4.25851938432149        1.67263971003972
C            2.56047772834398        3.28862516815280        4.63856622931840
H            4.34960682150557       -1.10939154917457       -1.11288209166180
H            4.76348259875862       -1.59394199638346       -3.46375463015158
H            3.78069182756384       -0.18256197072554       -5.22777647951110
H            2.36630511527747        1.74780546542664       -4.61988851248190
H            1.93534037517169        2.24996887874157       -2.23975336617417
H            3.11555356417578       -0.89063093357014        0.91832922910479