      -----------------------------------------------------------      
     |                   =====================                   |     
     |                           x T B                           |     
     |                   =====================                   |     
     |                         S. Grimme                         |     
     |          Mulliken Center for Theoretical Chemistry        |     
     |                    University of Bonn                     |     
      -----------------------------------------------------------      

   * xtb version 6.7.1 (edcfbbe) compiled by 'conda@3ef47c1a292c' on 2024-11-25

   xtb is free software: you can redistribute it and/or modify it under
   the terms of the GNU Lesser General Public License as published by
   the Free Software Foundation, either version 3 of the License, or
   (at your option) any later version.
   
   xtb is distributed in the hope that it will be useful,
   but WITHOUT ANY WARRANTY; without even the implied warranty of
   MERCHANTABILITY or FITNESS FOR A PARTICULAR PURPOSE.  See the
   GNU Lesser General Public License for more details.
   
   Cite this work as:
   * C. Bannwarth, E. Caldeweyher, S. Ehlert, A. Hansen, P. Pracht,
     J. Seibert, S. Spicher, S. Grimme, WIREs Comput. Mol. Sci., 2020, 11,
     e01493. DOI: 10.1002/wcms.1493
   
   for GFN2-xTB:
   * C. Bannwarth, S. Ehlert and S. Grimme., J. Chem. Theory Comput., 2019,
     15, 1652-1671. DOI: 10.1021/acs.jctc.8b01176
   for GFN1-xTB:
   * S. Grimme, C. Bannwarth, P. Shushkov, J. Chem. Theory Comput., 2017,
     13, 1989-2009. DOI: 10.1021/acs.jctc.7b00118
   for GFN0-xTB:
   * P. Pracht, E. Caldeweyher, S. Ehlert, S. Grimme, ChemRxiv, 2019, preprint.
     DOI: 10.26434/chemrxiv.8326202.v1
   for GFN-FF:
   * S. Spicher and S. Grimme, Angew. Chem. Int. Ed., 2020, 59, 15665-15673.
     DOI: 10.1002/anie.202004239
   
   for ALPB and GBSA implicit solvation:
   * S. Ehlert, M. Stahn, S. Spicher, S. Grimme, J. Chem. Theory Comput.,
     2021, 17, 4250-4261. DOI: 10.1021/acs.jctc.1c00471
   
   for ddCOSMO and CPCM-X implicit solvation:
   * M. Stahn, S. Ehlert, S. Grimme, J. Phys. Chem. A,
     2023, XX, XXXX-XXXX. DOI: 10.1021/acs.jpca.3c04382
   
   for DFT-D4:
   * E. Caldeweyher, C. Bannwarth and S. Grimme, J. Chem. Phys., 2017,
     147, 034112. DOI: 10.1063/1.4993215
   * E. Caldeweyher, S. Ehlert, A. Hansen, H. Neugebauer, S. Spicher,
     C. Bannwarth and S. Grimme, J. Chem. Phys., 2019, 150, 154122.
     DOI: 10.1063/1.5090222
   * E. Caldeweyher, J.-M. Mewes, S. Ehlert and S. Grimme, Phys. Chem. Chem. Phys.
     2020, 22, 8499-8512. DOI: 10.1039/D0CP00502A
   
   for sTDA-xTB:
   * S. Grimme and C. Bannwarth, J. Chem. Phys., 2016, 145, 054103.
     DOI: 10.1063/1.4959605
   
   in the mass-spec context:
   * V. Asgeirsson, C. Bauer and S. Grimme, Chem. Sci., 2017, 8, 4879.
     DOI: 10.1039/c7sc00601b
   * J. Koopman and S. Grimme, ACS Omega 2019, 4, 12, 15120-15133.
     DOI: 10.1021/acsomega.9b02011
   
   for metadynamics refer to:
   * S. Grimme, J. Chem. Theory Comput., 2019, 155, 2847-2862
     DOI: 10.1021/acs.jctc.9b00143
   
   for SPH calculations refer to:
   * S. Spicher and S. Grimme, J. Chem. Theory Comput., 2021, 17, 1701-1714
     DOI: 10.1021/acs.jctc.0c01306
   
   for ONIOM refer to:
   * C. Plett, A. Katbashev, S. Ehlert, S. Grimme, M. Bursch,
     Phys. Chem. Chem. Phys., 2023, 25, 17860-17868. DOI: 10.1039/D3CP02178E
   
   for DIPRO refer to:
   * J. Kohn, N. Gildemeister, S. Grimme, D. Fazzi, A. Hansen,
     J. Chem. Phys., 2023, just accepted.
   
   for PTB refer to:
   * S. Grimme, M. Mueller, A. Hansen, J. Chem. Phys., 2023, 158, 124111.
     DOI: 10.1063/5.0137838
   
   with help from (in alphabetical order)
   P. Atkinson, C. Bannwarth, F. Bohle, G. Brandenburg, E. Caldeweyher
   M. Checinski, S. Dohm, S. Ehlert, S. Ehrlich, I. Gerasimov, C. Hölzer
   A. Katbashev, J. Kohn, J. Koopman, C. Lavigne, S. Lehtola, F. März, M. Müller,
   F. Musil, H. Neugebauer, J. Pisarek, C. Plett, P. Pracht, F. Pultar,
   J. Seibert, P. Shushkov, S. Spicher, M. Stahn, M. Steiner, T. Strunk,
   J. Stückrath, T. Rose, and J. Unsleber
   
 * started run on 2024/12/20 at 02:11:44.011     
   ID    Z sym.   atoms
    1    6 C      1-10, 12-22, 25, 26
    2    7 N      11
    3    8 O      23, 24
    4    1 H      27-74

           -------------------------------------------------
          |                Calculation Setup                |
           -------------------------------------------------

          program call               : xtb C0241.xyz --opt --namespace C0241 --charge +1
          calculation namespace      : C0241
          coordinate file            : C0241.xyz
          omp threads                :                     8


           -------------------------------------------------
          |                 G F N 2 - x T B                 |
           -------------------------------------------------

        Reference                      10.1021/acs.jctc.8b01176
      * Hamiltonian:
        H0-scaling (s, p, d)           1.850000    2.230000    2.230000
        zeta-weighting                 0.500000
      * Dispersion:
        s8                             2.700000
        a1                             0.520000
        a2                             5.000000
        s9                             5.000000
      * Repulsion:
        kExp                           1.500000    1.000000
        rExp                           1.000000
      * Coulomb:
        alpha                          2.000000
        third order                    shell-resolved
        anisotropic                    true
        a3                             3.000000
        a5                             4.000000
        cn-shift                       1.200000
        cn-exp                         4.000000
        max-rad                        5.000000


          ...................................................
          :                      SETUP                      :
          :.................................................:
          :  # basis functions                 152          :
          :  # atomic orbitals                 152          :
          :  # shells                          100          :
          :  # electrons                       156          :
          :  max. iterations                   250          :
          :  Hamiltonian                  GFN2-xTB          :
          :  restarted?                      false          :
          :  GBSA solvation                  false          :
          :  PC potential                    false          :
          :  electronic temp.          300.0000000     K    :
          :  accuracy                    1.0000000          :
          :  -> integral cutoff          0.2500000E+02      :
          :  -> integral neglect         0.1000000E-07      :
          :  -> SCF convergence          0.1000000E-05 Eh   :
          :  -> wf. convergence          0.1000000E-03 e    :
          :  Broyden damping             0.4000000          :
          :  net charge                          1          :
          :  unpaired electrons                  0          :
          ...................................................

 iter      E             dE          RMSdq      gap      omega  full diag
   1    -85.2733544 -0.852734E+02  0.284E+00    5.84       0.0  T
   2    -85.5087432 -0.235389E+00  0.175E+00    4.61       1.0  T
   3    -85.5159420 -0.719874E-02  0.978E-01    5.06       1.0  T
   4    -85.5165471 -0.605136E-03  0.209E-01    4.67       1.0  T
   5    -85.5186606 -0.211349E-02  0.753E-02    4.87       1.0  T
   6    -85.5186800 -0.193978E-04  0.319E-02    4.85       1.0  T
   7    -85.5186830 -0.297586E-05  0.402E-03    4.86       2.9  T
   8    -85.5186831 -0.113508E-06  0.177E-03    4.86       6.6  T
   9    -85.5186831 -0.277638E-07  0.571E-04    4.86      20.4  T
  10    -85.5186831 -0.244434E-08  0.249E-04    4.86      46.6  T

   *** convergence criteria satisfied after 10 iterations ***

         #    Occupation            Energy/Eh            Energy/eV
      -------------------------------------------------------------
         1        2.0000           -0.8435405             -22.9539
       ...           ...                  ...                  ...
        72        2.0000           -0.4984666             -13.5640
        73        2.0000           -0.4961548             -13.5011
        74        2.0000           -0.4930372             -13.4162
        75        2.0000           -0.4876045             -13.2684
        76        2.0000           -0.4846803             -13.1888
        77        2.0000           -0.4808269             -13.0840
        78        2.0000           -0.4714566             -12.8290 (HOMO)
        79                         -0.2930246              -7.9736 (LUMO)
        80                         -0.2769817              -7.5371
        81                         -0.1978400              -5.3835
        82                         -0.1928993              -5.2491
        83                         -0.1893896              -5.1536
       ...                                ...                  ...
       152                          0.5371693              14.6171
      -------------------------------------------------------------
                  HL-Gap            0.1784320 Eh            4.8554 eV
             Fermi-level           -0.3822406 Eh          -10.4013 eV

 SCC (total)                   0 d,  0 h,  0 min,  0.066 sec
 SCC setup                      ...        0 min,  0.000 sec (  0.380%)
 Dispersion                     ...        0 min,  0.001 sec (  2.005%)
 classical contributions        ...        0 min,  0.000 sec (  0.209%)
 integral evaluation            ...        0 min,  0.004 sec (  6.281%)
 iterations                     ...        0 min,  0.042 sec ( 62.787%)
 molecular gradient             ...        0 min,  0.018 sec ( 27.845%)
 printout                       ...        0 min,  0.000 sec (  0.464%)

         :::::::::::::::::::::::::::::::::::::::::::::::::::::
         ::                     SUMMARY                     ::
         :::::::::::::::::::::::::::::::::::::::::::::::::::::
         :: total energy             -84.420457542470 Eh    ::
         :: gradient norm              0.071195348669 Eh/a0 ::
         :: HOMO-LUMO gap              4.855381411943 eV    ::
         ::.................................................::
         :: SCC energy               -85.518622578853 Eh    ::
         :: -> isotropic ES            0.130564130757 Eh    ::
         :: -> anisotropic ES          0.007006796030 Eh    ::
         :: -> anisotropic XC          0.043783550717 Eh    ::
         :: -> dispersion             -0.062402927340 Eh    ::
         :: repulsion energy           1.098165036383 Eh    ::
         :: add. restraining           0.000000000000 Eh    ::
         :: total charge               1.000000000000 e     ::
         :::::::::::::::::::::::::::::::::::::::::::::::::::::

      ----------------------------------------------------------- 
     |                   =====================                   |
     |                        A N C O P T                        |
     |                   =====================                   |
     |               Approximate Normal Coordinate               |
     |                Rational Function Optimizer                |
      ----------------------------------------------------------- 
      ----------------------------------------------------------- 
     |                   =====================                   |
     |                        A N C O P T                        |
     |                   =====================                   |
     |               Approximate Normal Coordinate               |
     |                Rational Function Optimizer                |
      ----------------------------------------------------------- 

          ...................................................
          :                      SETUP                      :
          :.................................................:
          :   optimization level            normal          :
          :   max. optcycles                   222          :
          :   ANC micro-cycles                  20          :
          :   degrees of freedom               216          :
          :.................................................:
          :   RF solver                   davidson          :
          :   write xtbopt.log                true          :
          :   linear?                        false          :
          :   energy convergence         0.5000000E-05 Eh   :
          :   grad. convergence          0.1000000E-02 Eh/α :
          :   maxmium RF displ.          1.0000000          :
          :   Hlow (freq-cutoff)         0.1000000E-01      :
          :   Hmax (freq-cutoff)         5.0000000          :
          :   S6 in model hess.         20.0000000          :
          ...................................................

generating ANC from exact Hessian ...
Using Lindh-Hessian (1995)
 Shifting diagonal of input Hessian by    9.9760614459710895E-003
 Lowest  eigenvalues of input Hessian
    0.000000    0.000000    0.000000    0.000000    0.000000    0.000000
    0.010000    0.010056    0.010124    0.010126    0.010334    0.010375
    0.010521    0.010569    0.010676    0.010831    0.010952    0.010970
 Highest eigenvalues
    1.278329    1.281903    1.290249    1.295462    1.715002    2.282105


........................................................................
.............................. CYCLE    1 ..............................
........................................................................

 iter      E             dE          RMSdq      gap      omega  full diag
   1    -85.5186831 -0.855187E+02  0.583E-05    4.86       0.0  T
   2    -85.5186831 -0.162430E-10  0.366E-05    4.86     317.5  T
   3    -85.5186831 -0.615330E-11  0.111E-05    4.86    1049.4  T
     SCC iter.                  ...        0 min,  0.013 sec
     gradient                   ...        0 min,  0.019 sec
 * total energy  :   -84.4204575 Eh     change       -0.4488214E-09 Eh
   gradient norm :     0.0711979 Eh/α   predicted     0.0000000E+00 (-100.00%)
   displ. norm   :     0.2910719 α      lambda       -0.1220356E-01
   maximum displ.:     0.1172080 α      in ANC's #53, #97, #50, ...

........................................................................
.............................. CYCLE    2 ..............................
........................................................................

 iter      E             dE          RMSdq      gap      omega  full diag
   1    -85.5582976 -0.855583E+02  0.143E-01    4.99       0.0  T
   2    -85.5585317 -0.234095E-03  0.825E-02    4.97       1.0  T
   3    -85.5585364 -0.466484E-05  0.355E-02    4.98       1.0  T
   4    -85.5585382 -0.177374E-05  0.399E-03    4.97       2.9  T
   5    -85.5585386 -0.447449E-06  0.222E-03    4.98       5.2  T
   6    -85.5585386 -0.303728E-07  0.572E-04    4.97      20.3  T
   7    -85.5585386 -0.294598E-08  0.159E-04    4.97      73.0  T
     SCC iter.                  ...        0 min,  0.025 sec
     gradient                   ...        0 min,  0.018 sec
 * total energy  :   -84.4288518 Eh     change       -0.8394293E-02 Eh
   gradient norm :     0.0315087 Eh/α   predicted    -0.6619237E-02 ( -21.15%)
   displ. norm   :     0.2373167 α      lambda       -0.4059333E-02
   maximum displ.:     0.0898262 α      in ANC's #53, #50, #113, ...

........................................................................
.............................. CYCLE    3 ..............................
........................................................................

 iter      E             dE          RMSdq      gap      omega  full diag
   1    -85.5788231 -0.855788E+02  0.928E-02    5.02       0.0  T
   2    -85.5789631 -0.140044E-03  0.561E-02    5.02       1.0  T
   3    -85.5789649 -0.177270E-05  0.270E-02    5.02       1.0  T
   4    -85.5789653 -0.419445E-06  0.240E-03    5.02       4.8  T
   5    -85.5789654 -0.117016E-06  0.136E-03    5.02       8.6  T
   6    -85.5789654 -0.786297E-08  0.345E-04    5.02      33.7  T
   7    -85.5789654 -0.230465E-08  0.108E-04    5.02     107.4  T
     SCC iter.                  ...        0 min,  0.025 sec
     gradient                   ...        0 min,  0.019 sec
 * total energy  :   -84.4309723 Eh     change       -0.2120431E-02 Eh
   gradient norm :     0.0076494 Eh/α   predicted    -0.2144951E-02 (   1.16%)
   displ. norm   :     0.1079572 α      lambda       -0.3197649E-03
   maximum displ.:     0.0299164 α      in ANC's #4, #21, #27, ...

........................................................................
.............................. CYCLE    4 ..............................
........................................................................

 iter      E             dE          RMSdq      gap      omega  full diag
   1    -85.5775482 -0.855775E+02  0.208E-02    5.01       0.0  T
   2    -85.5775495 -0.129706E-05  0.123E-02    5.01       1.0  T
   3    -85.5775495 -0.806455E-07  0.236E-03    5.01       4.9  T
   4    -85.5775496 -0.442847E-07  0.600E-04    5.01      19.4  T
   5    -85.5775496 -0.152244E-08  0.311E-04    5.01      37.4  T
     SCC iter.                  ...        0 min,  0.018 sec
     gradient                   ...        0 min,  0.019 sec
 * total energy  :   -84.4311942 Eh     change       -0.2219168E-03 Eh
   gradient norm :     0.0045943 Eh/α   predicted    -0.1618218E-03 ( -27.08%)
   displ. norm   :     0.1844786 α      lambda       -0.2854835E-03
   maximum displ.:     0.0600883 α      in ANC's #4, #9, #27, ...

........................................................................
.............................. CYCLE    5 ..............................
........................................................................

 iter      E             dE          RMSdq      gap      omega  full diag
   1    -85.5752071 -0.855752E+02  0.312E-02    5.00       0.0  T
   2    -85.5752081 -0.999219E-06  0.184E-02    5.00       1.0  T
   3    -85.5752082 -0.152964E-06  0.207E-03    5.00       5.6  T
   4    -85.5752083 -0.115513E-06  0.946E-04    5.00      12.3  T
   5    -85.5752083 -0.428410E-08  0.452E-04    5.00      25.7  T
     SCC iter.                  ...        0 min,  0.019 sec
     gradient                   ...        0 min,  0.019 sec
 * total energy  :   -84.4313846 Eh     change       -0.1904316E-03 Eh
   gradient norm :     0.0052870 Eh/α   predicted    -0.1476287E-03 ( -22.48%)
   displ. norm   :     0.1845706 α      lambda       -0.1593202E-03
   maximum displ.:     0.0683609 α      in ANC's #4, #9, #10, ...

........................................................................
.............................. CYCLE    6 ..............................
........................................................................

 iter      E             dE          RMSdq      gap      omega  full diag
   1    -85.5749831 -0.855750E+02  0.279E-02    5.01       0.0  T
   2    -85.5749839 -0.762914E-06  0.164E-02    5.00       1.0  T
   3    -85.5749839 -0.724243E-07  0.203E-03    5.01       5.7  T
   4    -85.5749841 -0.142136E-06  0.851E-04    5.00      13.7  T
   5    -85.5749841 -0.597825E-08  0.460E-04    5.01      25.3  T
     SCC iter.                  ...        0 min,  0.018 sec
     gradient                   ...        0 min,  0.019 sec
 * total energy  :   -84.4315079 Eh     change       -0.1232784E-03 Eh
   gradient norm :     0.0048964 Eh/α   predicted    -0.8238140E-04 ( -33.17%)
   displ. norm   :     0.2900159 α      lambda       -0.2110990E-03
   maximum displ.:     0.1134227 α      in ANC's #4, #9, #10, ...

........................................................................
.............................. CYCLE    7 ..............................
........................................................................

 iter      E             dE          RMSdq      gap      omega  full diag
   1    -85.5758332 -0.855758E+02  0.441E-02    5.01       0.0  T
   2    -85.5758345 -0.120921E-05  0.260E-02    5.01       1.0  T
   3    -85.5758348 -0.332369E-06  0.220E-03    5.01       5.3  T
   4    -85.5758349 -0.104273E-06  0.121E-03    5.01       9.6  T
   5    -85.5758349 -0.972149E-08  0.607E-04    5.01      19.1  T
   6    -85.5758349 -0.290041E-08  0.841E-05    5.01     138.2  T
     SCC iter.                  ...        0 min,  0.022 sec
     gradient                   ...        0 min,  0.019 sec
 * total energy  :   -84.4316722 Eh     change       -0.1642704E-03 Eh
   gradient norm :     0.0046905 Eh/α   predicted    -0.1144283E-03 ( -30.34%)
   displ. norm   :     0.3698911 α      lambda       -0.2420203E-03
   maximum displ.:     0.1525160 α      in ANC's #4, #9, #10, ...

........................................................................
.............................. CYCLE    8 ..............................
........................................................................

 iter      E             dE          RMSdq      gap      omega  full diag
   1    -85.5772409 -0.855772E+02  0.545E-02    5.01       0.0  T
   2    -85.5772423 -0.143843E-05  0.321E-02    5.01       1.0  T
   3    -85.5772429 -0.598478E-06  0.213E-03    5.01       5.5  T
   4    -85.5772430 -0.209921E-07  0.130E-03    5.01       8.9  T
   5    -85.5772430 -0.443708E-08  0.314E-04    5.01      37.0  T
   6    -85.5772430 -0.205959E-08  0.845E-05    5.01     137.6  T
     SCC iter.                  ...        0 min,  0.022 sec
     gradient                   ...        0 min,  0.018 sec
 * total energy  :   -84.4318635 Eh     change       -0.1913068E-03 Eh
   gradient norm :     0.0051416 Eh/α   predicted    -0.1375911E-03 ( -28.08%)
   displ. norm   :     0.4280263 α      lambda       -0.2776335E-03
   maximum displ.:     0.1868715 α      in ANC's #4, #9, #7, ...

........................................................................
.............................. CYCLE    9 ..............................
........................................................................

 iter      E             dE          RMSdq      gap      omega  full diag
   1    -85.5789440 -0.855789E+02  0.592E-02    5.02       0.0  T
   2    -85.5789452 -0.122296E-05  0.349E-02    5.02       1.0  T
   3    -85.5789459 -0.634426E-06  0.215E-03    5.02       5.4  T
   4    -85.5789459 -0.173997E-07  0.125E-03    5.02       9.3  T
   5    -85.5789459 -0.525915E-08  0.267E-04    5.02      43.6  T
   6    -85.5789459 -0.118088E-08  0.846E-05    5.02     137.4  T
     SCC iter.                  ...        0 min,  0.023 sec
     gradient                   ...        0 min,  0.018 sec
 * total energy  :   -84.4320843 Eh     change       -0.2207880E-03 Eh
   gradient norm :     0.0051768 Eh/α   predicted    -0.1642531E-03 ( -25.61%)
   displ. norm   :     0.4642492 α      lambda       -0.2801440E-03
   maximum displ.:     0.2137830 α      in ANC's #4, #11, #9, ...

........................................................................
.............................. CYCLE   10 ..............................
........................................................................

 iter      E             dE          RMSdq      gap      omega  full diag
   1    -85.5797545 -0.855798E+02  0.614E-02    5.03       0.0  T
   2    -85.5797558 -0.131251E-05  0.361E-02    5.03       1.0  T
   3    -85.5797564 -0.590613E-06  0.227E-03    5.03       5.1  T
   4    -85.5797564 -0.509259E-07  0.137E-03    5.03       8.5  T
   5    -85.5797564 -0.587315E-08  0.384E-04    5.03      30.3  T
   6    -85.5797564 -0.320603E-08  0.113E-04    5.03     103.1  T
     SCC iter.                  ...        0 min,  0.022 sec
     gradient                   ...        0 min,  0.019 sec
 * total energy  :   -84.4323116 Eh     change       -0.2273263E-03 Eh
   gradient norm :     0.0051194 Eh/α   predicted    -0.1702692E-03 ( -25.10%)
   displ. norm   :     0.4951542 α      lambda       -0.2919548E-03
   maximum displ.:     0.2412047 α      in ANC's #4, #11, #7, ...

........................................................................
.............................. CYCLE   11 ..............................
........................................................................

 iter      E             dE          RMSdq      gap      omega  full diag
   1    -85.5804173 -0.855804E+02  0.594E-02    5.06       0.0  T
   2    -85.5804190 -0.171527E-05  0.349E-02    5.05       1.0  T
   3    -85.5804190 -0.922245E-08  0.368E-03    5.06       3.2  T
   4    -85.5804196 -0.611812E-06  0.139E-03    5.05       8.4  T
   5    -85.5804196 -0.814120E-08  0.596E-04    5.05      19.5  T
   6    -85.5804196 -0.239365E-08  0.118E-04    5.05      98.6  T
     SCC iter.                  ...        0 min,  0.022 sec
     gradient                   ...        0 min,  0.018 sec
 * total energy  :   -84.4325415 Eh     change       -0.2298880E-03 Eh
   gradient norm :     0.0056694 Eh/α   predicted    -0.1817817E-03 ( -20.93%)
   displ. norm   :     0.6830409 α      lambda       -0.3332293E-03
   maximum displ.:     0.3293392 α      in ANC's #4, #11, #7, ...

........................................................................
.............................. CYCLE   12 ..............................
........................................................................

 iter      E             dE          RMSdq      gap      omega  full diag
   1    -85.5746383 -0.855746E+02  0.954E-02    4.95       0.0  T
   2    -85.5746530 -0.146727E-04  0.563E-02    4.96       1.0  T
   3    -85.5746492  0.379326E-05  0.125E-02    4.95       1.0  T
   4    -85.5746563 -0.710464E-05  0.258E-03    4.96       4.5  T
   5    -85.5746564 -0.352208E-07  0.152E-03    4.96       7.6  T
   6    -85.5746564 -0.133619E-07  0.334E-04    4.96      34.8  T
   7    -85.5746564 -0.105675E-08  0.125E-04    4.96      92.9  T
     SCC iter.                  ...        0 min,  0.025 sec
     gradient                   ...        0 min,  0.019 sec
 * total energy  :   -84.4326027 Eh     change       -0.6120050E-04 Eh
   gradient norm :     0.0197208 Eh/α   predicted    -0.2443493E-03 ( 299.26%)
   displ. norm   :     0.1990058 α      lambda       -0.5254211E-03
   maximum displ.:     0.0911940 α      in ANC's #4, #11, #1, ...

........................................................................
.............................. CYCLE   13 ..............................
........................................................................

 iter      E             dE          RMSdq      gap      omega  full diag
   1    -85.5786417 -0.855786E+02  0.326E-02    5.07       0.0  T
   2    -85.5786543 -0.126572E-04  0.198E-02    5.05       1.0  T
   3    -85.5786558 -0.144063E-05  0.103E-02    5.06       1.1  T
   4    -85.5786569 -0.114465E-05  0.114E-03    5.05      10.2  T
   5    -85.5786569 -0.766290E-08  0.699E-04    5.05      16.6  T
   6    -85.5786569 -0.296212E-08  0.183E-04    5.05      63.6  T
     SCC iter.                  ...        0 min,  0.042 sec
     gradient                   ...        0 min,  0.021 sec
 * total energy  :   -84.4328969 Eh     change       -0.2942095E-03 Eh
   gradient norm :     0.0054351 Eh/α   predicted    -0.2731212E-03 (  -7.17%)
   displ. norm   :     0.4020990 α      lambda       -0.1789721E-03
   maximum displ.:     0.2108123 α      in ANC's #4, #11, #7, ...

........................................................................
.............................. CYCLE   14 ..............................
........................................................................

 iter      E             dE          RMSdq      gap      omega  full diag
   1    -85.5780861 -0.855781E+02  0.433E-02    5.06       0.0  T
   2    -85.5780878 -0.169741E-05  0.256E-02    5.06       1.0  T
   3    -85.5780879 -0.119207E-06  0.218E-03    5.06       5.3  T
   4    -85.5780881 -0.140337E-06  0.947E-04    5.06      12.3  T
   5    -85.5780881 -0.110510E-07  0.540E-04    5.06      21.5  T
     SCC iter.                  ...        0 min,  0.019 sec
     gradient                   ...        0 min,  0.019 sec
 * total energy  :   -84.4330500 Eh     change       -0.1530905E-03 Eh
   gradient norm :     0.0064638 Eh/α   predicted    -0.1039548E-03 ( -32.10%)
   displ. norm   :     0.5652307 α      lambda       -0.3026835E-03
   maximum displ.:     0.3031910 α      in ANC's #4, #11, #7, ...

........................................................................
.............................. CYCLE   15 ..............................
........................................................................

 iter      E             dE          RMSdq      gap      omega  full diag
   1    -85.5781507 -0.855782E+02  0.607E-02    5.06       0.0  T
   2    -85.5781537 -0.297512E-05  0.356E-02    5.05       1.0  T
   3    -85.5781541 -0.373627E-06  0.294E-03    5.06       4.0  T
   4    -85.5781542 -0.147573E-06  0.136E-03    5.05       8.6  T
   5    -85.5781542 -0.157497E-07  0.717E-04    5.05      16.2  T
   6    -85.5781542 -0.334350E-08  0.143E-04    5.05      81.5  T
     SCC iter.                  ...        0 min,  0.022 sec
     gradient                   ...        0 min,  0.019 sec
 * total energy  :   -84.4332807 Eh     change       -0.2307000E-03 Eh
   gradient norm :     0.0032904 Eh/α   predicted    -0.1996979E-03 ( -13.44%)
   displ. norm   :     0.4711118 α      lambda       -0.1921720E-03
   maximum displ.:     0.2630738 α      in ANC's #4, #11, #1, ...

........................................................................
.............................. CYCLE   16 ..............................
........................................................................

 iter      E             dE          RMSdq      gap      omega  full diag
   1    -85.5791395 -0.855791E+02  0.492E-02    5.05       0.0  T
   2    -85.5791423 -0.285231E-05  0.292E-02    5.06       1.0  T
   3    -85.5791423  0.634518E-07  0.359E-03    5.05       3.2  T
   4    -85.5791427 -0.469134E-06  0.120E-03    5.06       9.7  T
   5    -85.5791428 -0.238047E-07  0.681E-04    5.06      17.1  T
   6    -85.5791428 -0.189672E-08  0.114E-04    5.06     101.5  T
     SCC iter.                  ...        0 min,  0.022 sec
     gradient                   ...        0 min,  0.019 sec
 * total energy  :   -84.4334113 Eh     change       -0.1306236E-03 Eh
   gradient norm :     0.0040897 Eh/α   predicted    -0.1174123E-03 ( -10.11%)
   displ. norm   :     0.3265806 α      lambda       -0.1102715E-03
   maximum displ.:     0.1874128 α      in ANC's #4, #1, #11, ...

........................................................................
.............................. CYCLE   17 ..............................
........................................................................

 iter      E             dE          RMSdq      gap      omega  full diag
   1    -85.5793864 -0.855794E+02  0.330E-02    5.07       0.0  T
   2    -85.5793897 -0.325700E-05  0.191E-02    5.06       1.0  T
   3    -85.5793894  0.316908E-06  0.509E-03    5.07       2.3  T
   4    -85.5793900 -0.611687E-06  0.913E-04    5.06      12.7  T
   5    -85.5793900 -0.271751E-07  0.387E-04    5.06      30.1  T
     SCC iter.                  ...        0 min,  0.019 sec
     gradient                   ...        0 min,  0.019 sec
 * total energy  :   -84.4334899 Eh     change       -0.7862603E-04 Eh
   gradient norm :     0.0031083 Eh/α   predicted    -0.6101694E-04 ( -22.40%)
   displ. norm   :     0.3406661 α      lambda       -0.1065530E-03
   maximum displ.:     0.1999673 α      in ANC's #4, #1, #7, ...

........................................................................
.............................. CYCLE   18 ..............................
........................................................................

 iter      E             dE          RMSdq      gap      omega  full diag
   1    -85.5793682 -0.855794E+02  0.344E-02    5.06       0.0  T
   2    -85.5793693 -0.108568E-05  0.204E-02    5.06       1.0  T
   3    -85.5793692  0.990369E-07  0.254E-03    5.06       4.6  T
   4    -85.5793695 -0.282889E-06  0.747E-04    5.06      15.6  T
   5    -85.5793695 -0.779698E-08  0.413E-04    5.06      28.2  T
     SCC iter.                  ...        0 min,  0.021 sec
     gradient                   ...        0 min,  0.019 sec
 * total energy  :   -84.4335762 Eh     change       -0.8624853E-04 Eh
   gradient norm :     0.0028256 Eh/α   predicted    -0.5946028E-04 ( -31.06%)
   displ. norm   :     0.3383443 α      lambda       -0.1535336E-03
   maximum displ.:     0.1902795 α      in ANC's #4, #1, #13, ...

........................................................................
.............................. CYCLE   19 ..............................
........................................................................

 iter      E             dE          RMSdq      gap      omega  full diag
   1    -85.5821206 -0.855821E+02  0.328E-02    5.09       0.0  T
   2    -85.5821215 -0.872853E-06  0.193E-02    5.09       1.0  T
   3    -85.5821212  0.330376E-06  0.340E-03    5.09       3.4  T
   4    -85.5821217 -0.554554E-06  0.696E-04    5.09      16.7  T
   5    -85.5821217 -0.139022E-08  0.306E-04    5.09      38.0  T
     SCC iter.                  ...        0 min,  0.023 sec
     gradient                   ...        0 min,  0.019 sec
 * total energy  :   -84.4336734 Eh     change       -0.9725825E-04 Eh
   gradient norm :     0.0046139 Eh/α   predicted    -0.8555629E-04 ( -12.03%)
   displ. norm   :     0.4636636 α      lambda       -0.1500351E-03
   maximum displ.:     0.2716057 α      in ANC's #4, #1, #2, ...

........................................................................
.............................. CYCLE   20 ..............................
........................................................................

 iter      E             dE          RMSdq      gap      omega  full diag
   1    -85.5775456 -0.855775E+02  0.479E-02    5.05       0.0  T
   2    -85.5775485 -0.297712E-05  0.285E-02    5.06       1.0  T
   3    -85.5775477  0.854551E-06  0.562E-03    5.05       2.1  T
   4    -85.5775492 -0.149938E-05  0.115E-03    5.06      10.1  T
   5    -85.5775492 -0.604713E-08  0.603E-04    5.06      19.3  T
   6    -85.5775492 -0.210645E-08  0.151E-04    5.06      76.9  T
     SCC iter.                  ...        0 min,  0.026 sec
     gradient                   ...        0 min,  0.019 sec
 * total energy  :   -84.4337471 Eh     change       -0.7364807E-04 Eh
   gradient norm :     0.0061751 Eh/α   predicted    -0.9114585E-04 (  23.76%)
   displ. norm   :     0.1389943 α      lambda       -0.7106316E-04
   maximum displ.:     0.0699071 α      in ANC's #4, #1, #13, ...
 * RMSD in coord.:     0.6843131 α      energy gain  -0.1328954E-01 Eh

generating ANC from exact Hessian ...
Using Lindh-Hessian (1995)
 Shifting diagonal of input Hessian by    9.9804170832756296E-003
 Lowest  eigenvalues of input Hessian
    0.000000    0.000000    0.000000    0.000000    0.000000    0.000000
    0.010000    0.010072    0.010132    0.010155    0.010360    0.010416
    0.010546    0.010614    0.010713    0.010840    0.010977    0.011206
 Highest eigenvalues
    1.296212    1.416502    1.430424    1.439381    1.772118    2.367480


........................................................................
.............................. CYCLE   21 ..............................
........................................................................

 iter      E             dE          RMSdq      gap      omega  full diag
   1    -85.5790571 -0.855791E+02  0.137E-02    5.08       0.0  T
   2    -85.5790575 -0.348805E-06  0.811E-03    5.07       1.4  T
   3    -85.5790574  0.101963E-06  0.201E-03    5.07       5.8  T
   4    -85.5790576 -0.165136E-06  0.287E-04    5.07      40.5  T
   5    -85.5790576 -0.639531E-09  0.164E-04    5.07      70.8  T
     SCC iter.                  ...        0 min,  0.019 sec
     gradient                   ...        0 min,  0.019 sec
 * total energy  :   -84.4338062 Eh     change       -0.5915509E-04 Eh
   gradient norm :     0.0036321 Eh/α   predicted     0.0000000E+00 (-100.00%)
   displ. norm   :     0.0525237 α      lambda       -0.4912948E-04
   maximum displ.:     0.0263770 α      in ANC's #13, #19, #20, ...

........................................................................
.............................. CYCLE   22 ..............................
........................................................................

 iter      E             dE          RMSdq      gap      omega  full diag
   1    -85.5796043 -0.855796E+02  0.827E-03    5.08       0.0  T
   2    -85.5796046 -0.254275E-06  0.487E-03    5.08       2.4  T
   3    -85.5796046  0.124246E-07  0.127E-03    5.08       9.2  T
   4    -85.5796046 -0.274672E-07  0.243E-04    5.08      47.9  T
   5    -85.5796046 -0.221127E-08  0.939E-05    5.08     123.8  T
     SCC iter.                  ...        0 min,  0.019 sec
     gradient                   ...        0 min,  0.019 sec
 * total energy  :   -84.4338488 Eh     change       -0.4253433E-04 Eh
   gradient norm :     0.0020957 Eh/α   predicted    -0.2656639E-04 ( -37.54%)
   displ. norm   :     0.1600269 α      lambda       -0.1058983E-03
   maximum displ.:     0.0875138 α      in ANC's #13, #19, #20, ...

........................................................................
.............................. CYCLE   23 ..............................
........................................................................

 iter      E             dE          RMSdq      gap      omega  full diag
   1    -85.5803761 -0.855804E+02  0.210E-02    5.09       0.0  T
   2    -85.5803773 -0.125083E-05  0.123E-02    5.08       1.0  T
   3    -85.5803773  0.378345E-07  0.254E-03    5.08       4.6  T
   4    -85.5803774 -0.101230E-06  0.569E-04    5.08      20.4  T
   5    -85.5803774 -0.118675E-07  0.229E-04    5.08      50.7  T
     SCC iter.                  ...        0 min,  0.018 sec
     gradient                   ...        0 min,  0.018 sec
 * total energy  :   -84.4339168 Eh     change       -0.6805074E-04 Eh
   gradient norm :     0.0024081 Eh/α   predicted    -0.5430905E-04 ( -20.19%)
   displ. norm   :     0.1266615 α      lambda       -0.4757779E-04
   maximum displ.:     0.0716974 α      in ANC's #13, #1, #8, ...

........................................................................
.............................. CYCLE   24 ..............................
........................................................................

 iter      E             dE          RMSdq      gap      omega  full diag
   1    -85.5802714 -0.855803E+02  0.144E-02    5.08       0.0  T
   2    -85.5802715 -0.102813E-06  0.848E-03    5.08       1.4  T
   3    -85.5802715 -0.138051E-07  0.501E-04    5.08      23.2  T
   4    -85.5802715 -0.311057E-08  0.234E-04    5.08      49.7  T
     SCC iter.                  ...        0 min,  0.016 sec
     gradient                   ...        0 min,  0.019 sec
 * total energy  :   -84.4339571 Eh     change       -0.4028924E-04 Eh
   gradient norm :     0.0030644 Eh/α   predicted    -0.2418226E-04 ( -39.98%)
   displ. norm   :     0.2411008 α      lambda       -0.9097875E-04
   maximum displ.:     0.1303133 α      in ANC's #13, #1, #2, ...

........................................................................
.............................. CYCLE   25 ..............................
........................................................................

 iter      E             dE          RMSdq      gap      omega  full diag
   1    -85.5799317 -0.855799E+02  0.277E-02    5.08       0.0  T
   2    -85.5799320 -0.363122E-06  0.164E-02    5.08       1.0  T
   3    -85.5799320  0.282866E-07  0.170E-03    5.08       6.8  T
   4    -85.5799321 -0.135344E-06  0.582E-04    5.08      20.0  T
   5    -85.5799321 -0.127589E-08  0.272E-04    5.08      42.8  T
     SCC iter.                  ...        0 min,  0.019 sec
     gradient                   ...        0 min,  0.019 sec
 * total energy  :   -84.4340327 Eh     change       -0.7558495E-04 Eh
   gradient norm :     0.0028255 Eh/α   predicted    -0.4815107E-04 ( -36.30%)
   displ. norm   :     0.3698464 α      lambda       -0.1186582E-03
   maximum displ.:     0.1952194 α      in ANC's #13, #1, #2, ...

........................................................................
.............................. CYCLE   26 ..............................
........................................................................

 iter      E             dE          RMSdq      gap      omega  full diag
   1    -85.5793774 -0.855794E+02  0.427E-02    5.07       0.0  T
   2    -85.5793792 -0.174591E-05  0.253E-02    5.08       1.0  T
   3    -85.5793790  0.208941E-06  0.347E-03    5.07       3.3  T
   4    -85.5793795 -0.546513E-06  0.994E-04    5.07      11.7  T
   5    -85.5793795 -0.102706E-07  0.550E-04    5.07      21.1  T
     SCC iter.                  ...        0 min,  0.019 sec
     gradient                   ...        0 min,  0.019 sec
 * total energy  :   -84.4341188 Eh     change       -0.8611935E-04 Eh
   gradient norm :     0.0029259 Eh/α   predicted    -0.6747065E-04 ( -21.65%)
   displ. norm   :     0.2895190 α      lambda       -0.7466678E-04
   maximum displ.:     0.1484055 α      in ANC's #13, #1, #2, ...

........................................................................
.............................. CYCLE   27 ..............................
........................................................................

 iter      E             dE          RMSdq      gap      omega  full diag
   1    -85.5795289 -0.855795E+02  0.320E-02    5.08       0.0  T
   2    -85.5795296 -0.751599E-06  0.190E-02    5.08       1.0  T
   3    -85.5795297 -0.643875E-07  0.173E-03    5.08       6.7  T
   4    -85.5795298 -0.933127E-07  0.745E-04    5.08      15.6  T
   5    -85.5795298 -0.539480E-08  0.403E-04    5.08      28.8  T
     SCC iter.                  ...        0 min,  0.019 sec
     gradient                   ...        0 min,  0.019 sec
 * total energy  :   -84.4341754 Eh     change       -0.5654323E-04 Eh
   gradient norm :     0.0032996 Eh/α   predicted    -0.4046348E-04 ( -28.44%)
   displ. norm   :     0.2579946 α      lambda       -0.8144097E-04
   maximum displ.:     0.1201249 α      in ANC's #13, #1, #2, ...

........................................................................
.............................. CYCLE   28 ..............................
........................................................................

 iter      E             dE          RMSdq      gap      omega  full diag
   1    -85.5805839 -0.855806E+02  0.268E-02    5.09       0.0  T
   2    -85.5805843 -0.393386E-06  0.158E-02    5.09       1.0  T
   3    -85.5805843  0.410111E-07  0.196E-03    5.09       5.9  T
   4    -85.5805845 -0.183245E-06  0.672E-04    5.09      17.3  T
   5    -85.5805845 -0.125210E-08  0.223E-04    5.09      52.2  T
     SCC iter.                  ...        0 min,  0.023 sec
     gradient                   ...        0 min,  0.019 sec
 * total energy  :   -84.4342371 Eh     change       -0.6173732E-04 Eh
   gradient norm :     0.0027202 Eh/α   predicted    -0.4343344E-04 ( -29.65%)
   displ. norm   :     0.2755564 α      lambda       -0.7034922E-04
   maximum displ.:     0.1115988 α      in ANC's #1, #13, #6, ...

........................................................................
.............................. CYCLE   29 ..............................
........................................................................

 iter      E             dE          RMSdq      gap      omega  full diag
   1    -85.5811357 -0.855811E+02  0.284E-02    5.10       0.0  T
   2    -85.5811360 -0.332703E-06  0.167E-02    5.09       1.0  T
   3    -85.5811361 -0.585970E-07  0.142E-03    5.10       8.2  T
   4    -85.5811362 -0.708071E-07  0.673E-04    5.10      17.3  T
   5    -85.5811362 -0.176775E-08  0.237E-04    5.10      49.1  T
     SCC iter.                  ...        0 min,  0.019 sec
     gradient                   ...        0 min,  0.019 sec
 * total energy  :   -84.4342916 Eh     change       -0.5446697E-04 Eh
   gradient norm :     0.0026742 Eh/α   predicted    -0.3785451E-04 ( -30.50%)
   displ. norm   :     0.2993014 α      lambda       -0.6783827E-04
   maximum displ.:     0.1268182 α      in ANC's #1, #3, #6, ...

........................................................................
.............................. CYCLE   30 ..............................
........................................................................

 iter      E             dE          RMSdq      gap      omega  full diag
   1    -85.5813084 -0.855813E+02  0.307E-02    5.10       0.0  T
   2    -85.5813088 -0.349760E-06  0.181E-02    5.10       1.0  T
   3    -85.5813089 -0.111077E-06  0.114E-03    5.10      10.2  T
   4    -85.5813089 -0.178904E-07  0.635E-04    5.10      18.3  T
   5    -85.5813089 -0.120157E-08  0.210E-04    5.10      55.2  T
     SCC iter.                  ...        0 min,  0.048 sec
     gradient                   ...        0 min,  0.023 sec
 * total energy  :   -84.4343460 Eh     change       -0.5441759E-04 Eh
   gradient norm :     0.0025208 Eh/α   predicted    -0.3696835E-04 ( -32.07%)
   displ. norm   :     0.3190190 α      lambda       -0.7261612E-04
   maximum displ.:     0.1412519 α      in ANC's #1, #3, #6, ...

........................................................................
.............................. CYCLE   31 ..............................
........................................................................

 iter      E             dE          RMSdq      gap      omega  full diag
   1    -85.5813150 -0.855813E+02  0.321E-02    5.10       0.0  T
   2    -85.5813154 -0.376027E-06  0.189E-02    5.10       1.0  T
   3    -85.5813155 -0.114660E-06  0.113E-03    5.10      10.3  T
   4    -85.5813155 -0.153275E-07  0.625E-04    5.10      18.6  T
   5    -85.5813155 -0.116542E-08  0.233E-04    5.10      49.9  T
     SCC iter.                  ...        0 min,  0.033 sec
     gradient                   ...        0 min,  0.018 sec
 * total energy  :   -84.4344041 Eh     change       -0.5807584E-04 Eh
   gradient norm :     0.0020392 Eh/α   predicted    -0.4000547E-04 ( -31.12%)
   displ. norm   :     0.3391489 α      lambda       -0.6854068E-04
   maximum displ.:     0.1551386 α      in ANC's #1, #3, #6, ...

........................................................................
.............................. CYCLE   32 ..............................
........................................................................

 iter      E             dE          RMSdq      gap      omega  full diag
   1    -85.5807972 -0.855808E+02  0.338E-02    5.10       0.0  T
   2    -85.5807976 -0.419300E-06  0.200E-02    5.10       1.0  T
   3    -85.5807976 -0.139876E-07  0.188E-03    5.10       6.2  T
   4    -85.5807978 -0.154088E-06  0.736E-04    5.10      15.8  T
   5    -85.5807978 -0.119582E-08  0.243E-04    5.10      47.9  T
     SCC iter.                  ...        0 min,  0.019 sec
     gradient                   ...        0 min,  0.019 sec
 * total energy  :   -84.4344563 Eh     change       -0.5227965E-04 Eh
   gradient norm :     0.0020081 Eh/α   predicted    -0.3821323E-04 ( -26.91%)
   displ. norm   :     0.2756306 α      lambda       -0.5406217E-04
   maximum displ.:     0.1352028 α      in ANC's #1, #3, #6, ...

........................................................................
.............................. CYCLE   33 ..............................
........................................................................

 iter      E             dE          RMSdq      gap      omega  full diag
   1    -85.5809528 -0.855810E+02  0.253E-02    5.11       0.0  T
   2    -85.5809535 -0.693549E-06  0.149E-02    5.11       1.0  T
   3    -85.5809534  0.760528E-07  0.221E-03    5.11       5.3  T
   4    -85.5809536 -0.180404E-06  0.567E-04    5.11      20.5  T
   5    -85.5809536 -0.541139E-08  0.293E-04    5.11      39.7  T
     SCC iter.                  ...        0 min,  0.019 sec
     gradient                   ...        0 min,  0.019 sec
 * total energy  :   -84.4344934 Eh     change       -0.3703295E-04 Eh
   gradient norm :     0.0017393 Eh/α   predicted    -0.2908846E-04 ( -21.45%)
   displ. norm   :     0.4267174 α      lambda       -0.4601367E-04
   maximum displ.:     0.2093697 α      in ANC's #1, #3, #4, ...

........................................................................
.............................. CYCLE   34 ..............................
........................................................................

 iter      E             dE          RMSdq      gap      omega  full diag
   1    -85.5789076 -0.855789E+02  0.449E-02    5.07       0.0  T
   2    -85.5789141 -0.647296E-05  0.269E-02    5.08       1.0  T
   3    -85.5789132  0.926904E-06  0.809E-03    5.07       1.4  T
   4    -85.5789151 -0.194464E-05  0.125E-03    5.08       9.3  T
   5    -85.5789151 -0.278613E-07  0.681E-04    5.08      17.1  T
   6    -85.5789151 -0.151262E-08  0.122E-04    5.08      95.2  T
     SCC iter.                  ...        0 min,  0.022 sec
     gradient                   ...        0 min,  0.018 sec
 * total energy  :   -84.4345090 Eh     change       -0.1560468E-04 Eh
   gradient norm :     0.0052039 Eh/α   predicted    -0.2487106E-04 (  59.38%)
   displ. norm   :     0.0665056 α      lambda       -0.5865406E-04
   maximum displ.:     0.0385740 α      in ANC's #13, #1, #8, ...

........................................................................
.............................. CYCLE   35 ..............................
........................................................................

 iter      E             dE          RMSdq      gap      omega  full diag
   1    -85.5798967 -0.855799E+02  0.998E-03    5.10       0.0  T
   2    -85.5798991 -0.242948E-05  0.617E-03    5.10       1.9  T
   3    -85.5798994 -0.281511E-06  0.340E-03    5.10       3.4  T
   4    -85.5798994 -0.235747E-07  0.616E-04    5.10      18.9  T
   5    -85.5798994 -0.918000E-08  0.163E-04    5.10      71.1  T
     SCC iter.                  ...        0 min,  0.018 sec
     gradient                   ...        0 min,  0.019 sec
 * total energy  :   -84.4345514 Eh     change       -0.4246436E-04 Eh
   gradient norm :     0.0020349 Eh/α   predicted    -0.2946092E-04 ( -30.62%)
   displ. norm   :     0.1047489 α      lambda       -0.4466631E-04
   maximum displ.:     0.0562608 α      in ANC's #1, #3, #13, ...

........................................................................
.............................. CYCLE   36 ..............................
........................................................................

 iter      E             dE          RMSdq      gap      omega  full diag
   1    -85.5807142 -0.855807E+02  0.101E-02    5.11       0.0  T
   2    -85.5807152 -0.102919E-05  0.611E-03    5.11       1.9  T
   3    -85.5807153 -0.579474E-07  0.292E-03    5.11       4.0  T
   4    -85.5807154 -0.841631E-07  0.346E-04    5.11      33.6  T
   5    -85.5807154 -0.324452E-08  0.140E-04    5.11      83.1  T
     SCC iter.                  ...        0 min,  0.019 sec
     gradient                   ...        0 min,  0.018 sec
 * total energy  :   -84.4345842 Eh     change       -0.3278528E-04 Eh
   gradient norm :     0.0016653 Eh/α   predicted    -0.2258149E-04 ( -31.12%)
   displ. norm   :     0.2443951 α      lambda       -0.4088400E-04
   maximum displ.:     0.1401932 α      in ANC's #1, #3, #4, ...

........................................................................
.............................. CYCLE   37 ..............................
........................................................................

 iter      E             dE          RMSdq      gap      omega  full diag
   1    -85.5811426 -0.855811E+02  0.218E-02    5.12       0.0  T
   2    -85.5811430 -0.327188E-06  0.129E-02    5.12       1.0  T
   3    -85.5811429  0.535895E-07  0.177E-03    5.12       6.6  T
   4    -85.5811430 -0.149678E-06  0.522E-04    5.12      22.3  T
   5    -85.5811430 -0.116685E-08  0.229E-04    5.12      50.8  T
     SCC iter.                  ...        0 min,  0.020 sec
     gradient                   ...        0 min,  0.020 sec
 * total energy  :   -84.4346259 Eh     change       -0.4167991E-04 Eh
   gradient norm :     0.0025300 Eh/α   predicted    -0.2098586E-04 ( -49.65%)
   displ. norm   :     0.2126824 α      lambda       -0.3769950E-04
   maximum displ.:     0.1249714 α      in ANC's #1, #3, #4, ...

........................................................................
.............................. CYCLE   38 ..............................
........................................................................

 iter      E             dE          RMSdq      gap      omega  full diag
   1    -85.5807986 -0.855808E+02  0.204E-02    5.11       0.0  T
   2    -85.5807992 -0.590705E-06  0.121E-02    5.11       1.0  T
   3    -85.5807991  0.115180E-06  0.242E-03    5.11       4.8  T
   4    -85.5807993 -0.243624E-06  0.539E-04    5.11      21.6  T
   5    -85.5807993 -0.238272E-08  0.294E-04    5.11      39.6  T
     SCC iter.                  ...        0 min,  0.019 sec
     gradient                   ...        0 min,  0.021 sec
 * total energy  :   -84.4346586 Eh     change       -0.3268519E-04 Eh
   gradient norm :     0.0016744 Eh/α   predicted    -0.1970598E-04 ( -39.71%)
   displ. norm   :     0.5553665 α      lambda       -0.6124531E-04
   maximum displ.:     0.3323963 α      in ANC's #1, #3, #4, ...

........................................................................
.............................. CYCLE   39 ..............................
........................................................................

 iter      E             dE          RMSdq      gap      omega  full diag
   1    -85.5792132 -0.855792E+02  0.522E-02    5.08       0.0  T
   2    -85.5792197 -0.650410E-05  0.310E-02    5.09       1.0  T
   3    -85.5792186  0.105163E-05  0.802E-03    5.08       1.4  T
   4    -85.5792208 -0.212969E-05  0.146E-03    5.09       7.9  T
   5    -85.5792208 -0.338880E-07  0.783E-04    5.09      14.8  T
   6    -85.5792208 -0.159339E-08  0.106E-04    5.09     109.4  T
     SCC iter.                  ...        0 min,  0.022 sec
     gradient                   ...        0 min,  0.018 sec
 * total energy  :   -84.4347054 Eh     change       -0.4677970E-04 Eh
   gradient norm :     0.0048634 Eh/α   predicted    -0.3482246E-04 ( -25.56%)
   displ. norm   :     0.0757481 α      lambda       -0.3288871E-04
   maximum displ.:     0.0414147 α      in ANC's #1, #3, #9, ...

........................................................................
.............................. CYCLE   40 ..............................
........................................................................

 iter      E             dE          RMSdq      gap      omega  full diag
   1    -85.5797934 -0.855798E+02  0.669E-03    5.10       0.0  T
   2    -85.5797941 -0.655047E-06  0.402E-03    5.09       2.9  T
   3    -85.5797941 -0.292602E-07  0.199E-03    5.09       5.9  T
   4    -85.5797941 -0.186976E-07  0.394E-04    5.09      29.5  T
   5    -85.5797941 -0.523329E-08  0.914E-05    5.09     127.2  T
     SCC iter.                  ...        0 min,  0.019 sec
     gradient                   ...        0 min,  0.019 sec
 * total energy  :   -84.4347336 Eh     change       -0.2821721E-04 Eh
   gradient norm :     0.0034613 Eh/α   predicted    -0.1653962E-04 ( -41.38%)
   displ. norm   :     0.1824104 α      lambda       -0.6899879E-04
   maximum displ.:     0.1013876 α      in ANC's #1, #3, #9, ...

........................................................................
.............................. CYCLE   41 ..............................
........................................................................

 iter      E             dE          RMSdq      gap      omega  full diag
   1    -85.5810069 -0.855810E+02  0.143E-02    5.12       0.0  T
   2    -85.5810091 -0.220958E-05  0.858E-03    5.11       1.4  T
   3    -85.5810093 -0.143430E-06  0.417E-03    5.11       2.8  T
   4    -85.5810094 -0.172154E-06  0.516E-04    5.11      22.5  T
   5    -85.5810094 -0.573938E-08  0.234E-04    5.11      49.7  T
     SCC iter.                  ...        0 min,  0.018 sec
     gradient                   ...        0 min,  0.019 sec
 * total energy  :   -84.4347768 Eh     change       -0.4326339E-04 Eh
   gradient norm :     0.0022336 Eh/α   predicted    -0.3565187E-04 ( -17.59%)
   displ. norm   :     0.2208574 α      lambda       -0.3757127E-04
   maximum displ.:     0.1351251 α      in ANC's #1, #3, #4, ...

........................................................................
.............................. CYCLE   42 ..............................
........................................................................

 iter      E             dE          RMSdq      gap      omega  full diag
   1    -85.5810604 -0.855811E+02  0.187E-02    5.10       0.0  T
   2    -85.5810613 -0.849795E-06  0.110E-02    5.10       1.1  T
   3    -85.5810613 -0.387522E-07  0.170E-03    5.10       6.8  T
   4    -85.5810613 -0.295533E-07  0.518E-04    5.10      22.5  T
   5    -85.5810613 -0.456512E-08  0.280E-04    5.10      41.6  T
     SCC iter.                  ...        0 min,  0.019 sec
     gradient                   ...        0 min,  0.018 sec
 * total energy  :   -84.4348004 Eh     change       -0.2358011E-04 Eh
   gradient norm :     0.0018769 Eh/α   predicted    -0.1970394E-04 ( -16.44%)
   displ. norm   :     0.3774110 α      lambda       -0.3011550E-04
   maximum displ.:     0.2343756 α      in ANC's #1, #3, #4, ...
 * RMSD in coord.:     0.5267556 α      energy gain  -0.1053347E-02 Eh

generating ANC from exact Hessian ...
Using Lindh-Hessian (1995)
 Shifting diagonal of input Hessian by    9.9813371753101690E-003
 Lowest  eigenvalues of input Hessian
    0.000000    0.000000    0.000000    0.000000    0.000000    0.000000
    0.010000    0.010073    0.010126    0.010154    0.010386    0.010415
    0.010542    0.010616    0.010694    0.010865    0.010959    0.011192
 Highest eigenvalues
    1.309404    1.419133    1.428393    1.438371    1.774450    2.373365


........................................................................
.............................. CYCLE   43 ..............................
........................................................................

 iter      E             dE          RMSdq      gap      omega  full diag
   1    -85.5804286 -0.855804E+02  0.290E-02    5.10       0.0  T
   2    -85.5804296 -0.101120E-05  0.171E-02    5.10       1.0  T
   3    -85.5804296 -0.939384E-08  0.207E-03    5.10       5.6  T
   4    -85.5804298 -0.127360E-06  0.741E-04    5.10      15.7  T
   5    -85.5804298 -0.105467E-07  0.383E-04    5.10      30.3  T
     SCC iter.                  ...        0 min,  0.021 sec
     gradient                   ...        0 min,  0.018 sec
 * total energy  :   -84.4348309 Eh     change       -0.3043528E-04 Eh
   gradient norm :     0.0010591 Eh/α   predicted     0.0000000E+00 (-100.00%)
   displ. norm   :     0.0335751 α      lambda       -0.9339560E-05
   maximum displ.:     0.0137402 α      in ANC's #1, #17, #13, ...

........................................................................
.............................. CYCLE   44 ..............................
........................................................................

 iter      E             dE          RMSdq      gap      omega  full diag
   1    -85.5811804 -0.855812E+02  0.394E-03    5.10       0.0  T
   2    -85.5811805 -0.379827E-07  0.233E-03    5.10       5.0  T
   3    -85.5811804  0.709497E-08  0.637E-04    5.10      18.2  T
   4    -85.5811805 -0.135332E-07  0.107E-04    5.10     108.7  T
     SCC iter.                  ...        0 min,  0.015 sec
     gradient                   ...        0 min,  0.019 sec
 * total energy  :   -84.4348417 Eh     change       -0.1080571E-04 Eh
   gradient norm :     0.0003813 Eh/α   predicted    -0.4679848E-05 ( -56.69%)
   displ. norm   :     0.0712963 α      lambda       -0.1123623E-04
   maximum displ.:     0.0340054 α      in ANC's #1, #13, #17, ...

........................................................................
.............................. CYCLE   45 ..............................
........................................................................

 iter      E             dE          RMSdq      gap      omega  full diag
   1    -85.5813433 -0.855813E+02  0.678E-03    5.10       0.0  T
   2    -85.5813433 -0.279990E-07  0.402E-03    5.10       2.9  T
   3    -85.5813433 -0.150071E-08  0.370E-04    5.10      31.4  T
   4    -85.5813433 -0.492513E-08  0.147E-04    5.10      79.1  T
     SCC iter.                  ...        0 min,  0.015 sec
     gradient                   ...        0 min,  0.019 sec
 * total energy  :   -84.4348522 Eh     change       -0.1049765E-04 Eh
   gradient norm :     0.0006181 Eh/α   predicted    -0.5631035E-05 ( -46.36%)
   displ. norm   :     0.0490780 α      lambda       -0.4230249E-05
   maximum displ.:     0.0286451 α      in ANC's #1, #13, #6, ...

........................................................................
.............................. CYCLE   46 ..............................
........................................................................

 iter      E             dE          RMSdq      gap      omega  full diag
   1    -85.5813531 -0.855814E+02  0.448E-03    5.10       0.0  T
   2    -85.5813531 -0.174080E-07  0.266E-03    5.10       4.4  T
   3    -85.5813531 -0.769276E-09  0.270E-04    5.10      43.1  T
   4    -85.5813531 -0.237890E-08  0.108E-04    5.10     108.0  T
     SCC iter.                  ...        0 min,  0.018 sec
     gradient                   ...        0 min,  0.018 sec
 * total energy  :   -84.4348568 Eh     change       -0.4617282E-05 Eh
   gradient norm :     0.0005591 Eh/α   predicted    -0.2117802E-05 ( -54.13%)
   displ. norm   :     0.0689395 α      lambda       -0.5533461E-05
   maximum displ.:     0.0414272 α      in ANC's #1, #13, #6, ...

   *** GEOMETRY OPTIMIZATION CONVERGED AFTER 46 ITERATIONS ***

------------------------------------------------------------------------
 total energy gain   :        -0.0143992 Eh       -9.0357 kcal/mol
 total RMSD          :         1.0770034 a0        0.5699 Å
 total power (kW/mol):        -0.8218521 (step)  -15.6328 (real)
------------------------------------------------------------------------

 ANCopt (total)                0 d,  0 h,  0 min,  2.418 sec
 optimizer setup                ...        0 min,  0.000 sec (  0.007%)
 model hessian                  ...        0 min,  0.298 sec ( 12.324%)
 ANC generation                 ...        0 min,  0.009 sec (  0.388%)
 coordinate transformation      ...        0 min,  0.008 sec (  0.341%)
 single point calculation       ...        0 min,  2.081 sec ( 86.066%)
 optimization log               ...        0 min,  0.009 sec (  0.378%)
 hessian update                 ...        0 min,  0.002 sec (  0.087%)
 rational function              ...        0 min,  0.007 sec (  0.307%)

================
 final structure:
================
74
 xtb: 6.7.1 (edcfbbe)
C            0.64055800330885        0.60466179286334        0.79613453148435
C            0.78178274109294        1.01550070285374       -0.66437932828664
C            1.36238247573041       -0.08989373957887       -1.54778771429290
C            0.50106802689384       -1.35019379632695       -1.65679808734869
C           -0.90521707339051       -1.13022916325434       -2.21904218812685
C           -0.95397269474108       -0.46925201856414       -3.59817927123541
C           -0.20375806521977       -1.22505261471849       -4.69665671463151
C           -0.72093307684581       -2.63660131567069       -4.98451349461032
C           -2.20684037302927       -2.73254360069047       -5.36026104652832
C           -2.70325155556665       -1.79433459968243       -6.46499791636184
N           -2.60620783511889       -2.26823791587759       -7.88220194104465
C           -3.56682525920368       -3.38246846972668       -8.16225902451917
C           -5.06250576137860       -3.05129594906590       -8.18572044336138
C           -5.65064613868955       -2.57698087793827       -9.52252325742689
C           -5.34073497445967       -3.46371726648654      -10.73067183304601
C           -5.79741158735606       -4.91823020839017      -10.60264388365125
C           -7.30721574412188       -5.10214649869104      -10.43214364803967
C           -8.16203636346296       -4.49512238037621      -11.54809893192718
C           -7.82436600009036       -4.97779872406699      -12.96024856181555
C           -7.98531367679907       -6.48123056211262      -13.19044193727082
C           -9.43326228320294       -6.95683961575221      -13.10037548859190
C          -10.28544158592583       -6.41578022878049      -14.22204642679845
O           -9.88482678982675       -5.91837138725424      -15.23849159100632
O          -11.58917288809725       -6.57292058202722      -13.95976537470140
C           -2.86990943566609       -1.11392091191466       -8.76045766810017
C           -1.24834112625751       -2.75983880669781       -8.17900448115994
H           -0.09409386725120       -0.18770684580973        0.91455818913321
H            0.31996045892156        1.45335872359433        1.39534556423750
H            1.59321487338493        0.25283884262384        1.18542152262622
H           -0.18939574519736        1.33237485034846       -1.04945645855322
H            1.44966578772919        1.87802695905016       -0.72284774017202
H            1.54329301384944        0.31695626948931       -2.54545643694839
H            2.33286572728797       -0.38319784629212       -1.14064896638221
H            1.03297847968482       -2.07578510031137       -2.27685456537065
H            0.39970829498743       -1.79692324774185       -0.66683763537376
H           -1.41412758560790       -2.09666544614257       -2.25607847695515
H           -1.46991179421453       -0.50250105220245       -1.52833516807068
H           -2.00176722729825       -0.34085394135164       -3.88284750610345
H           -0.52142466052525        0.52933192803952       -3.52462112286202
H           -0.21894200490784       -0.62086091778717       -5.60928813834525
H            0.84356647441165       -1.31355343708688       -4.40820880476616
H           -0.08958725337051       -3.08163695900007       -5.75456520135998
H           -0.58590214033582       -3.24182176661375       -4.08779665619053
H           -2.44504743266358       -3.77201963253769       -5.59044365065705
H           -2.78334802968468       -2.47866504426745       -4.46954212898162
H           -3.75584240131852       -1.57077502271083       -6.28640845066280
H           -2.15020276933224       -0.85689065795652       -6.39797365258086
H           -3.29184172336668       -3.81401646623500       -9.12530751629315
H           -3.39040801493192       -4.14023239138714       -7.39761259575484
H           -5.57689250902837       -3.97452416704612       -7.91477175456054
H           -5.31573354303476       -2.32432779981455       -7.41267634663029
H           -6.73231581055096       -2.53973787768635       -9.39183410063166
H           -5.33375835928298       -1.55976429947222       -9.75471481466503
H           -5.82949536522765       -3.01819882920666      -11.59692616914553
H           -4.26777830659523       -3.45273799831261      -10.94603353596511
H           -5.47775509170763       -5.44879183898435      -11.50033645770381
H           -5.29380275236578       -5.39385421732508       -9.75680283130012
H           -7.50761428997873       -6.17277261890211      -10.36996871815209
H           -7.62548566917555       -4.66628614303677       -9.48200045646018
H           -9.20729055969146       -4.71883006384602      -11.32876488145050
H           -8.06563538532406       -3.40728642877676      -11.52872386291347
H           -8.46948283330263       -4.45325004392130      -13.66646459862102
H           -6.79651810696938       -4.70151559873179      -13.20286080138755
H           -7.61890273291024       -6.70813698909885      -14.19310103133209
H           -7.37997382095711       -7.04150325241476      -12.47657516382256
H           -9.47084678876122       -8.04653707713397      -13.18010076836704
H           -9.89938892734312       -6.68800129405412      -12.15256380536515
H          -12.12893170292178       -6.25943352092849      -14.70285875093109
H           -2.06151672063508       -0.38921417772927       -8.67436131779697
H           -2.93481311731896       -1.44143177943487       -9.79604712379636
H           -3.80058917595570       -0.62736678957484       -8.48032142998938
H           -0.51054835695582       -2.02133390248931       -7.87209520914985
H           -1.05806520723361       -3.69338176073209       -7.65571803844005
H           -1.14205628611874       -2.93486459147693       -9.24865671229498

 Bond Distances (Angstroems)
 ---------------------------
C1-C2=1.5238         C1-H27=1.0870        C1-H28=1.0873        C1-H29=1.0876        C2-C1=1.5238         C2-C3=1.5295         
C2-H30=1.0917        C2-H31=1.0924        C3-C2=1.5295         C3-C4=1.5304         C3-H32=1.0925        C3-H33=1.0925        
C4-C3=1.5304         C4-C5=1.5304         C4-H34=1.0926        C4-H35=1.0908        C5-C4=1.5304         C5-C6=1.5301         
C5-H36=1.0929        C5-H37=1.0909        C6-C5=1.5301         C6-C7=1.5299         C6-H38=1.0933        C6-H39=1.0907        
C7-C6=1.5299         C7-C8=1.5306         C7-H40=1.0946        C7-H41=1.0899        C8-C7=1.5306         C8-C9=1.5357         
C8-H42=1.0907        C8-H43=1.0902        C9-C8=1.5357         C9-C10=1.5320        C9-H44=1.0910        C9-H45=1.0910        
C10-C9=1.5320        C10-N11=1.4975       C10-H46=1.0908       C10-H47=1.0905       N11-C10=1.4975       N11-C12=1.4976       
N11-C25=1.4742       N11-C26=1.4743       C12-N11=1.4976       C12-C13=1.5321       C12-H48=1.0906       C12-H49=1.0909       
C13-C12=1.5321       C13-C14=1.5356       C13-H50=1.0910       C13-H51=1.0910       C14-C13=1.5356       C14-C15=1.5303       
C14-H52=1.0902       C14-H53=1.0904       C15-C14=1.5303       C15-C16=1.5299       C15-H54=1.0898       C15-H55=1.0944       
C16-C15=1.5299       C16-C17=1.5305       C16-H56=1.0907       C16-H57=1.0933       C17-C16=1.5305       C17-C18=1.5312       
C17-H58=1.0910       C17-H59=1.0927       C18-C17=1.5312       C18-C19=1.5301       C18-H60=1.0912       C18-H61=1.0923       
C19-C18=1.5301       C19-C20=1.5294       C19-H62=1.0909       C19-H63=1.0916       C20-C19=1.5294       C20-C21=1.5267       
C20-H64=1.0914       C20-H65=1.0908       C21-C20=1.5267       C21-C22=1.5090       C21-H66=1.0933       C21-H67=1.0899       
C22-C21=1.5090       C22-O23=1.2004       C22-O24=1.3391       O23-C22=1.2004       O24-C22=1.3391       O24-H68=0.9705       
C25-N11=1.4742       C25-H69=1.0891       C25-H70=1.0881       C25-H71=1.0869       C26-N11=1.4743       C26-H72=1.0881       
C26-H73=1.0870       C26-H74=1.0891       H27-C1=1.0870        H28-C1=1.0873        H29-C1=1.0876        H30-C2=1.0917        
H31-C2=1.0924        H32-C3=1.0925        H33-C3=1.0925        H34-C4=1.0926        H35-C4=1.0908        H36-C5=1.0929        
H37-C5=1.0909        H38-C6=1.0933        H39-C6=1.0907        H40-C7=1.0946        H41-C7=1.0899        H42-C8=1.0907        
H43-C8=1.0902        H44-C9=1.0910        H45-C9=1.0910        H46-C10=1.0908       H47-C10=1.0905       H48-C12=1.0906       
H49-C12=1.0909       H50-C13=1.0910       H51-C13=1.0910       H52-C14=1.0902       H53-C14=1.0904       H54-C15=1.0898       
H55-C15=1.0944       H56-C16=1.0907       H57-C16=1.0933       H58-C17=1.0910       H59-C17=1.0927       H60-C18=1.0912       
H61-C18=1.0923       H62-C19=1.0909       H63-C19=1.0916       H64-C20=1.0914       H65-C20=1.0908       H66-C21=1.0933       
H67-C21=1.0899       H68-O24=0.9705       H69-C25=1.0891       H70-C25=1.0881       H71-C25=1.0869       H72-C26=1.0881       
H73-C26=1.0870       H74-C26=1.0891       
 C  H  Rav=1.0908 sigma=0.0019  Rmin=1.0869  Rmax=1.0946    47
 C  C  Rav=1.5293 sigma=0.0054  Rmin=1.5090  Rmax=1.5357    19
 N  C  Rav=1.4859 sigma=0.0116  Rmin=1.4742  Rmax=1.4976     4
 O  H  Rav=0.9705 sigma=0.0000  Rmin=0.9705  Rmax=0.9705     1
 O  C  Rav=1.2698 sigma=0.0693  Rmin=1.2004  Rmax=1.3391     2

 selected bond angles (degree)
 --------------------
H27-C1-C2=111.32               H28-C1-C2=110.19               H28-C1-H27=108.04              H29-C1-C2=110.43               
H29-C1-H27=108.49              H29-C1-H28=108.27              C3-C2-C1=113.20                H30-C2-C1=109.51               
H30-C2-C3=110.10               H31-C2-C1=108.71               H31-C2-C3=107.92               H31-C2-H30=107.21              
C4-C3-C2=115.00                H32-C3-C2=108.73               H32-C3-C4=109.56               H33-C3-C2=108.42               
H33-C3-C4=107.78               H33-C3-H32=107.05              C5-C4-C3=115.15                H34-C4-C3=108.26               
H34-C4-C5=109.53               H35-C4-C3=108.96               H35-C4-C5=107.87               H35-C4-H34=106.76              
C6-C5-C4=114.99                H36-C5-C4=108.26               H36-C5-C6=109.67               H37-C5-C4=109.01               
H37-C5-C6=107.80               H37-C5-H36=106.81              C7-C6-C5=114.72                H38-C6-C5=108.42               
H38-C6-C7=109.94               H39-C6-C5=108.79               H39-C6-C7=107.83               H39-C6-H38=106.86              
C8-C7-C6=115.15                H40-C7-C6=108.61               H40-C7-C8=110.34               H41-C7-C6=108.74               
H41-C7-C8=107.43               H41-C7-H40=106.19              C9-C8-C7=115.50                H42-C8-C7=108.27               
H42-C8-C9=111.21               H43-C8-C7=108.39               H43-C8-C9=106.64               H43-C8-H42=106.41              
C10-C9-C8=116.85               H44-C9-C8=108.81               H44-C9-C10=111.14              H45-C9-C8=107.28               
H45-C9-C10=105.96              H45-C9-H44=106.18              N11-C10-C9=117.88              H46-C10-C9=108.67              
H46-C10-N11=106.40             H47-C10-C9=108.53              H47-C10-N11=107.30             H47-C10-H46=107.65             

 selected dihedral angles (degree)
 ---------------------------------
C3-C2-C1-H27=294.17           C3-C2-C1-H28=174.32           C3-C2-C1-H29= 54.75           H30-C2-C1-H27= 57.44          
H30-C2-C1-H28=297.59          H30-C2-C1-H29=178.02          H31-C2-C1-H27=174.27          H31-C2-C1-H28= 54.42          
H31-C2-C1-H29=294.85          C4-C3-C2-C1= 63.44            C4-C3-C2-H30=300.51           C4-C3-C2-H31=183.80           
H32-C3-C2-C1=186.69           H32-C3-C2-H30= 63.75          H32-C3-C2-H31=307.05          H33-C3-C2-C1=302.75           
H33-C3-C2-H30=179.81          H33-C3-C2-H31= 63.11          C5-C4-C3-C2= 59.20            C5-C4-C3-H32=296.39           
C5-C4-C3-H33=180.24           H34-C4-C3-C2=182.14           H34-C4-C3-H32= 59.33          H34-C4-C3-H33=303.18          
H35-C4-C3-C2=297.88           H35-C4-C3-H32=175.07          H35-C4-C3-H33= 58.92          C6-C5-C4-C3= 56.47            
C6-C5-C4-H34=294.21           C6-C5-C4-H35=178.38           H36-C5-C4-C3=179.49           H36-C5-C4-H34= 57.23          
H36-C5-C4-H35=301.39          H37-C5-C4-C3=295.32           H37-C5-C4-H34=173.06          H37-C5-C4-H35= 57.23          
C7-C6-C5-C4= 58.15            C7-C6-C5-H36=295.90           C7-C6-C5-H37=179.96           H38-C6-C5-C4=181.44           
H38-C6-C5-H36= 59.19          H38-C6-C5-H37=303.25          H39-C6-C5-C4=297.31           H39-C6-C5-H36=175.05          
H39-C6-C5-H37= 59.12          C8-C7-C6-C5= 61.23            C8-C7-C6-H38=298.76           C8-C7-C6-H39=182.60           
H40-C7-C6-C5=185.51           H40-C7-C6-H38= 63.03          H40-C7-C6-H39=306.87          H41-C7-C6-C5=300.65           
H41-C7-C6-H38=178.18          H41-C7-C6-H39= 62.02          C9-C8-C7-C6= 56.51            C9-C8-C7-H40=293.14           
C9-C8-C7-H41=177.80           H42-C8-C7-C6=181.93           H42-C8-C7-H40= 58.57          H42-C8-C7-H41=303.23          
H43-C8-C7-C6=296.97           H43-C8-C7-H40=173.61          H43-C8-C7-H41= 58.26          C10-C9-C8-C7= 50.32           
C10-C9-C8-H42=286.42          C10-C9-C8-H43=170.81          H44-C9-C8-C7=177.15           H44-C9-C8-H42= 53.25          
H44-C9-C8-H43=297.64          H45-C9-C8-C7=291.62           H45-C9-C8-H42=167.72          H45-C9-C8-H43= 52.10          
N11-C10-C9-C8= 88.36          N11-C10-C9-H44=322.68         N11-C10-C9-H45=207.77         H46-C10-C9-C8=209.42          
H46-C10-C9-H44= 83.74         H46-C10-C9-H45=328.83         H47-C10-C9-C8=326.21          H47-C10-C9-H44=200.53         
H47-C10-C9-H45= 85.62         
           -------------------------------------------------
          |                Final Singlepoint                |
           -------------------------------------------------

          ...................................................
          :                      SETUP                      :
          :.................................................:
          :  # basis functions                 152          :
          :  # atomic orbitals                 152          :
          :  # shells                          100          :
          :  # electrons                       156          :
          :  max. iterations                   250          :
          :  Hamiltonian                  GFN2-xTB          :
          :  restarted?                      false          :
          :  GBSA solvation                  false          :
          :  PC potential                    false          :
          :  electronic temp.          300.0000000     K    :
          :  accuracy                    1.0000000          :
          :  -> integral cutoff          0.2500000E+02      :
          :  -> integral neglect         0.1000000E-07      :
          :  -> SCF convergence          0.1000000E-05 Eh   :
          :  -> wf. convergence          0.1000000E-03 e    :
          :  Broyden damping             0.4000000          :
          :  net charge                          1          :
          :  unpaired electrons                  0          :
          ...................................................

 iter      E             dE          RMSdq      gap      omega  full diag
   1    -85.5813531 -0.855814E+02  0.560E-05    5.10       0.0  T
   2    -85.5813531 -0.109992E-10  0.356E-05    5.10     326.9  T
   3    -85.5813531 -0.147793E-11  0.118E-05    5.10     981.4  T

   *** convergence criteria satisfied after 3 iterations ***

         #    Occupation            Energy/Eh            Energy/eV
      -------------------------------------------------------------
         1        2.0000           -0.8565119             -23.3069
       ...           ...                  ...                  ...
        72        2.0000           -0.4956988             -13.4887
[...]

         #    Occupation            Energy/Eh            Energy/eV
      -------------------------------------------------------------
         1        2.0000           -0.8565119             -23.3069
       ...           ...                  ...                  ...
        66        2.0000           -0.5238641             -14.2551
        67        2.0000           -0.5220511             -14.2057
        68        2.0000           -0.5168777             -14.0650
        69        2.0000           -0.5147634             -14.0074
        70        2.0000           -0.5101915             -13.8830
        71        2.0000           -0.5070057             -13.7963
        72        2.0000           -0.4956988             -13.4887
        73        2.0000           -0.4941976             -13.4478
        74        2.0000           -0.4899360             -13.3318
        75        2.0000           -0.4889555             -13.3052
        76        2.0000           -0.4853187             -13.2062
        77        2.0000           -0.4819176             -13.1136
        78        2.0000           -0.4706878             -12.8081 (HOMO)
        79                         -0.2832172              -7.7067 (LUMO)
        80                         -0.2247670              -6.1162
        81                         -0.1642517              -4.4695
        82                         -0.1426679              -3.8822
        83                         -0.1377763              -3.7491
        84                         -0.0771974              -2.1006
        85                         -0.0753017              -2.0491
        86                         -0.0565390              -1.5385
        87                         -0.0322956              -0.8788
        88                         -0.0317701              -0.8645
        89                         -0.0298072              -0.8111
       ...                                ...                  ...
       152                          0.6017314              16.3739
      -------------------------------------------------------------
                  HL-Gap            0.1874707 Eh            5.1013 eV
             Fermi-level           -0.3769525 Eh          -10.2574 eV

     #   Z          covCN         q      C6AA      α(0)
     1   6 C        3.751    -0.104    22.546     6.771
     2   6 C        3.799    -0.053    21.529     6.606
     3   6 C        3.800    -0.059    21.634     6.622
     4   6 C        3.800    -0.059    21.646     6.624
     5   6 C        3.800    -0.059    21.645     6.624
     6   6 C        3.800    -0.061    21.681     6.630
     7   6 C        3.800    -0.062    21.690     6.631
     8   6 C        3.799    -0.071    21.859     6.657
     9   6 C        3.798    -0.071    21.861     6.657
    10   6 C        3.759    -0.041    21.351     6.588
    11   7 N        3.620     0.129    19.041     6.481
    12   6 C        3.758    -0.041    21.351     6.588
    13   6 C        3.798    -0.071    21.864     6.658
    14   6 C        3.799    -0.071    21.867     6.658
    15   6 C        3.800    -0.063    21.705     6.633
    16   6 C        3.800    -0.062    21.699     6.632
    17   6 C        3.800    -0.061    21.666     6.627
    18   6 C        3.800    -0.061    21.671     6.628
    19   6 C        3.801    -0.063    21.712     6.634
    20   6 C        3.802    -0.059    21.628     6.621
    21   6 C        3.803    -0.092    22.246     6.715
    22   6 C        2.689     0.362    20.856     7.474
    23   8 O        0.856    -0.407    21.813     6.262
    24   8 O        1.660    -0.381    20.487     6.110
    25   6 C        3.726    -0.091    22.353     6.750
    26   6 C        3.726    -0.091    22.351     6.750
    27   1 H        0.925     0.034     2.531     2.488
    28   1 H        0.925     0.036     2.499     2.472
    29   1 H        0.925     0.037     2.482     2.464
    30   1 H        0.924     0.028     2.612     2.527
    31   1 H        0.924     0.031     2.568     2.506
    32   1 H        0.924     0.025     2.659     2.550
    33   1 H        0.924     0.035     2.512     2.479
    34   1 H        0.924     0.026     2.649     2.545
    35   1 H        0.924     0.041     2.442     2.444
    36   1 H        0.924     0.024     2.670     2.555
    37   1 H        0.924     0.041     2.429     2.437
    38   1 H        0.924     0.020     2.735     2.586
    39   1 H        0.924     0.045     2.385     2.415
    40   1 H        0.924     0.014     2.827     2.629
    41   1 H        0.925     0.054     2.269     2.356
    42   1 H        0.924     0.033     2.544     2.494
    43   1 H        0.924     0.061     2.184     2.311
    44   1 H        0.924     0.047     2.363     2.404
    45   1 H        0.924     0.075     2.031     2.229
    46   1 H        0.924     0.078     1.999     2.211
    47   1 H        0.924     0.091     1.865     2.136
    48   1 H        0.924     0.091     1.871     2.139
    49   1 H        0.924     0.078     1.998     2.210
    50   1 H        0.924     0.075     2.033     2.230
    51   1 H        0.924     0.047     2.357     2.401
    52   1 H        0.925     0.061     2.182     2.310
    53   1 H        0.924     0.034     2.536     2.490
    54   1 H        0.925     0.055     2.257     2.350
    55   1 H        0.924     0.015     2.809     2.621
    56   1 H        0.924     0.045     2.379     2.412
    57   1 H        0.924     0.021     2.711     2.575
    58   1 H        0.924     0.040     2.451     2.448
    59   1 H        0.924     0.026     2.640     2.541
    60   1 H        0.924     0.037     2.495     2.470
    61   1 H        0.924     0.030     2.591     2.517
    62   1 H        0.924     0.049     2.338     2.391
    63   1 H        0.924     0.034     2.532     2.488
    64   1 H        0.924     0.055     2.257     2.350
    65   1 H        0.924     0.038     2.477     2.461
    66   1 H        0.924     0.073     2.055     2.242
    67   1 H        0.925     0.070     2.088     2.260
    68   1 H        0.804     0.332     0.633     1.249
    69   1 H        0.925     0.092     1.864     2.135
    70   1 H        0.925     0.099     1.790     2.092
    71   1 H        0.925     0.099     1.793     2.094
    72   1 H        0.925     0.099     1.791     2.093
    73   1 H        0.925     0.099     1.793     2.094
    74   1 H        0.925     0.092     1.864     2.135

 Mol. C6AA /au·bohr⁶  :      37157.196003
 Mol. C8AA /au·bohr⁸  :     789601.362094
 Mol. α(0) /au        :        285.669285


Wiberg/Mayer (AO) data.
largest (>0.10) Wiberg bond orders for each atom

 ---------------------------------------------------------------------------
     #   Z sym  total        # sym  WBO       # sym  WBO       # sym  WBO
 ---------------------------------------------------------------------------
     1   6 C    3.996 --     2 C    1.020    29 H    0.987    28 H    0.987
                            27 H    0.986
     2   6 C    3.998 --     1 C    1.020     3 C    1.008    31 H    0.978
                            30 H    0.976
     3   6 C    3.997 --     2 C    1.008     4 C    1.008    33 H    0.976
                            32 H    0.976
     4   6 C    3.997 --     3 C    1.008     5 C    1.008    34 H    0.975
                            35 H    0.974
     5   6 C    3.997 --     4 C    1.008     6 C    1.007    36 H    0.975
                            37 H    0.974
     6   6 C    3.996 --     5 C    1.007     7 C    1.007    38 H    0.976
                            39 H    0.973
     7   6 C    3.995 --     8 C    1.008     6 C    1.007    40 H    0.971
                            41 H    0.971
     8   6 C    3.992 --     7 C    1.008     9 C    1.004    42 H    0.974
                            43 H    0.970
     9   6 C    3.984 --    10 C    1.005     8 C    1.004    44 H    0.966
                            45 H    0.965
    10   6 C    3.928 --     9 C    1.005    46 H    0.964    47 H    0.959
                            11 N    0.923
    11   7 N    3.808 --    25 C    0.961    26 C    0.961    12 C    0.923
                            10 C    0.923
    12   6 C    3.928 --    13 C    1.005    49 H    0.964    48 H    0.959
                            11 N    0.923
    13   6 C    3.984 --    12 C    1.005    14 C    1.004    51 H    0.966
                            50 H    0.965
    14   6 C    3.992 --    15 C    1.008    13 C    1.004    53 H    0.974
                            52 H    0.970
    15   6 C    3.995 --    14 C    1.008    16 C    1.007    55 H    0.971
                            54 H    0.970
    16   6 C    3.996 --    17 C    1.007    15 C    1.007    57 H    0.976
                            56 H    0.973
    17   6 C    3.997 --    16 C    1.007    18 C    1.007    59 H    0.975
                            58 H    0.974
    18   6 C    3.997 --    19 C    1.008    17 C    1.007    61 H    0.975
                            60 H    0.974
    19   6 C    3.996 --    20 C    1.008    18 C    1.008    62 H    0.974
                            63 H    0.974
    20   6 C    3.995 --    19 C    1.008    21 C    1.007    65 H    0.975
                            64 H    0.974
    21   6 C    3.994 --    20 C    1.007    22 C    0.977    67 H    0.958
                            66 H    0.946
    22   6 C    3.911 --    23 O    1.770    24 O    1.130    21 C    0.977
    23   8 O    2.044 --    22 C    1.770    24 O    0.172
    24   8 O    2.195 --    22 C    1.130    68 H    0.865    23 O    0.172
    25   6 C    3.931 --    69 H    0.975    70 H    0.973    71 H    0.972
                            11 N    0.961
    26   6 C    3.931 --    74 H    0.975    72 H    0.973    73 H    0.972
                            11 N    0.961
    27   1 H    0.999 --     1 C    0.986
    28   1 H    0.999 --     1 C    0.987
    29   1 H    0.999 --     1 C    0.987
    30   1 H    0.999 --     2 C    0.976
    31   1 H    0.999 --     2 C    0.978
    32   1 H    0.999 --     3 C    0.976
    33   1 H    0.999 --     3 C    0.976
    34   1 H    0.999 --     4 C    0.975
    35   1 H    0.998 --     4 C    0.974
    36   1 H    0.999 --     5 C    0.975
    37   1 H    0.998 --     5 C    0.974
    38   1 H    1.000 --     6 C    0.976
    39   1 H    0.998 --     6 C    0.973
    40   1 H    1.000 --     7 C    0.971
    41   1 H    0.997 --     7 C    0.971
    42   1 H    0.999 --     8 C    0.974
    43   1 H    0.996 --     8 C    0.970
    44   1 H    0.998 --     9 C    0.966
    45   1 H    0.994 --     9 C    0.965
    46   1 H    0.994 --    10 C    0.964
    47   1 H    0.992 --    10 C    0.959
    48   1 H    0.992 --    12 C    0.959
    49   1 H    0.994 --    12 C    0.964
    50   1 H    0.994 --    13 C    0.965
    51   1 H    0.998 --    13 C    0.966
    52   1 H    0.996 --    14 C    0.970
    53   1 H    0.999 --    14 C    0.974
    54   1 H    0.997 --    15 C    0.970
    55   1 H    1.000 --    15 C    0.971
    56   1 H    0.998 --    16 C    0.973
    57   1 H    1.000 --    16 C    0.976
    58   1 H    0.998 --    17 C    0.974
    59   1 H    0.999 --    17 C    0.975
    60   1 H    0.999 --    18 C    0.974
    61   1 H    0.999 --    18 C    0.975
    62   1 H    0.998 --    19 C    0.974
    63   1 H    0.999 --    19 C    0.974
    64   1 H    0.997 --    20 C    0.974
    65   1 H    0.998 --    20 C    0.975
    66   1 H    0.995 --    21 C    0.946
    67   1 H    0.995 --    21 C    0.958
    68   1 H    0.889 --    24 O    0.865
    69   1 H    0.992 --    25 C    0.975
    70   1 H    0.990 --    25 C    0.973
    71   1 H    0.990 --    25 C    0.972
    72   1 H    0.990 --    26 C    0.973
    73   1 H    0.990 --    26 C    0.972
    74   1 H    0.992 --    26 C    0.975
 ---------------------------------------------------------------------------

Topologies differ in total number of bonds
Writing topology from bond orders to xtbtopo.mol

molecular dipole:
                 x           y           z       tot (Debye)
 q only:       -5.404      -4.693     -14.019
   full:       -5.543      -4.720     -14.083      40.294
molecular quadrupole (traceless):
                xx          xy          yy          xz          yz          zz
 q only:      -65.106      49.617     -91.610     121.658     103.191     156.716
  q+dip:      -61.327      52.491     -93.381     128.114     105.330     154.708
   full:      -61.309      52.527     -93.233     128.500     105.782     154.542

           -------------------------------------------------
          |                Geometry Summary                 |
           -------------------------------------------------

      molecular mass/u    :      370.6335947
   center of mass at/Å    :       -4.2251732      -3.0962630      -7.9958322
  moments of inertia/u·Å² :        0.6537255E+03   0.1490784E+05   0.1509351E+05
rotational constants/cm⁻¹ :        0.2578702E-01   0.1130790E-02   0.1116879E-02

 * 72 selected distances

     #   Z          #   Z                                           value/Å
     1   6 C        2   6 C                                       1.5237566
     2   6 C        3   6 C                                       1.5295109
     3   6 C        4   6 C                                       1.5303929
     4   6 C        5   6 C                                       1.5304055
     5   6 C        6   6 C                                       1.5301266
     6   6 C        7   6 C                                       1.5299378
     7   6 C        8   6 C                                       1.5306213
     8   6 C        9   6 C                                       1.5356797 (max)
     9   6 C       10   6 C                                       1.5320262
    10   6 C       11   7 N                                       1.4974877
    11   7 N       12   6 C                                       1.4975740
    12   6 C       13   6 C                                       1.5320856
    13   6 C       14   6 C                                       1.5355540
    14   6 C       15   6 C                                       1.5303496
    15   6 C       16   6 C                                       1.5298866
    16   6 C       17   6 C                                       1.5304916
    17   6 C       18   6 C                                       1.5311934
    18   6 C       19   6 C                                       1.5300865
    19   6 C       20   6 C                                       1.5294446
    20   6 C       21   6 C                                       1.5267192
    22   6 C       23   8 O                                       1.2004453
    22   6 C       24   8 O                                       1.3391042
    11   7 N       25   6 C                                       1.4742184
    11   7 N       26   6 C                                       1.4743017
     1   6 C       27   1 H                                       1.0870077
     1   6 C       28   1 H                                       1.0872550
     1   6 C       29   1 H                                       1.0876024
     2   6 C       30   1 H                                       1.0917333
     2   6 C       31   1 H                                       1.0924459
     3   6 C       32   1 H                                       1.0925194
     3   6 C       33   1 H                                       1.0925325
     4   6 C       34   1 H                                       1.0926489
     4   6 C       35   1 H                                       1.0908084
     5   6 C       36   1 H                                       1.0928682
     5   6 C       37   1 H                                       1.0908708
     6   6 C       38   1 H                                       1.0933415
     6   6 C       39   1 H                                       1.0907239
     7   6 C       40   1 H                                       1.0946116
     7   6 C       41   1 H                                       1.0899190
     8   6 C       42   1 H                                       1.0907035
     8   6 C       43   1 H                                       1.0902415
     9   6 C       44   1 H                                       1.0909800
     9   6 C       45   1 H                                       1.0909610
    10   6 C       46   1 H                                       1.0907891
    10   6 C       47   1 H                                       1.0904846
    12   6 C       48   1 H                                       1.0905559
    12   6 C       49   1 H                                       1.0908774
    13   6 C       50   1 H                                       1.0910351
    13   6 C       51   1 H                                       1.0909649
    14   6 C       52   1 H                                       1.0901726
    14   6 C       53   1 H                                       1.0904405
    15   6 C       54   1 H                                       1.0898487
    15   6 C       55   1 H                                       1.0944119
    16   6 C       56   1 H                                       1.0906549
    16   6 C       57   1 H                                       1.0932920
    17   6 C       58   1 H                                       1.0909930
    17   6 C       59   1 H                                       1.0927224
    18   6 C       60   1 H                                       1.0911962
    18   6 C       61   1 H                                       1.0922709
    19   6 C       62   1 H                                       1.0909025
    19   6 C       63   1 H                                       1.0916339
    20   6 C       64   1 H                                       1.0913611
    20   6 C       65   1 H                                       1.0908473
    21   6 C       66   1 H                                       1.0932564
    21   6 C       67   1 H                                       1.0899061
    24   8 O       68   1 H                                       0.9704647 (min)
    25   6 C       69   1 H                                       1.0890874
    25   6 C       70   1 H                                       1.0880816
    25   6 C       71   1 H                                       1.0869113
    26   6 C       72   1 H                                       1.0880814
    26   6 C       73   1 H                                       1.0869850
    26   6 C       74   1 H                                       1.0890760

 * 5 distinct bonds (by element types)

   Z      Z             #   av. dist./Å        max./Å        min./Å
   1 H    6 C          47     1.0907790     1.0946116     1.0869113
   6 C    6 C          18     1.5304594     1.5356797     1.5237566
   6 C    7 N           4     1.4858955     1.4975740     1.4742184
   1 H    8 O           1     0.9704647     0.9704647     0.9704647
   6 C    8 O           2     1.2697747     1.3391042     1.2004453


optimized geometry written to: xtbopt.xyz


           -------------------------------------------------
          | TOTAL ENERGY              -84.434856781166 Eh   |
          | GRADIENT NORM               0.000560133343 Eh/α |
          | HOMO-LUMO GAP               5.101336314189 eV   |
           -------------------------------------------------

------------------------------------------------------------------------
 * finished run on 2024/12/20 at 02:11:46.555     
------------------------------------------------------------------------
 total:
 * wall-time:     0 d,  0 h,  0 min,  2.544 sec
 *  cpu-time:     0 d,  0 h,  0 min, 20.111 sec
 * ratio c/w:     7.904 speedup
 SCF:
 * wall-time:     0 d,  0 h,  0 min,  0.066 sec
 *  cpu-time:     0 d,  0 h,  0 min,  0.522 sec
 * ratio c/w:     7.862 speedup
 ANC optimizer:
 * wall-time:     0 d,  0 h,  0 min,  2.455 sec
 *  cpu-time:     0 d,  0 h,  0 min, 19.429 sec
 * ratio c/w:     7.914 speedup

