95
 energy: -99.045008976092 gnorm: 0.064508691247 xtb: 6.7.1 (edcfbbe)
C            0.99946000000000       -0.70591000000000        0.45886000000000
C           -0.06985000000000       -1.67180000000000       -0.05042000000000
C            0.19066000000000       -3.13108000000000        0.33898000000000
C           -0.21741000000000       -3.44142000000000        1.77059000000000
P            0.50934000000000        0.71479000000000        1.39737000000000
C            1.01346000000000        2.17038000000000        0.45974000000000
C            0.46098000000000        2.39701000000000       -0.94676000000000
C           -0.99954000000000        2.84732000000000       -1.05648000000000
C           -1.35479000000000        4.14636000000000       -0.32501000000000
C           -0.86191000000000        5.42383000000000       -1.01406000000000
C           -1.53519000000000        5.74322000000000       -2.35651000000000
C           -3.06420000000000        5.86798000000000       -2.31672000000000
C           -3.60850000000000        6.95972000000000       -1.38750000000000
C           -3.21320000000000        8.39293000000000       -1.76302000000000
C           -3.66444000000000        8.85258000000000       -3.15471000000000
C           -5.17974000000000        8.83812000000000       -3.38795000000000
C           -5.98664000000000        9.79315000000000       -2.50045000000000
C           -5.64001000000000       11.27958000000000       -2.65000000000000
C           -5.76866000000000       11.84545000000000       -4.06914000000000
C           -7.16263000000000       11.73363000000000       -4.69567000000000
C           -8.27839000000000       12.47391000000000       -3.95046000000000
C           -8.07544000000000       13.98323000000000       -3.79232000000000
C           -7.97004000000000       14.72300000000000       -5.11734000000000
C           -1.22764000000000        0.86625000000000        1.70813000000000
C           -1.87771000000000        0.01476000000000        2.79027000000000
C           -1.93710000000000        0.66500000000000        4.17518000000000
C           -2.84926000000000        1.88261000000000        4.23925000000000
C            1.46796000000000        0.86753000000000        2.89618000000000
C            1.55314000000000       -0.29096000000000        3.88724000000000
C            2.66474000000000       -1.32441000000000        3.67368000000000
C            4.06268000000000       -0.74028000000000        3.55737000000000
H            1.54995000000000       -0.34340000000000       -0.41819000000000
H            1.75823000000000       -1.25216000000000        1.01729000000000
H           -1.07165000000000       -1.38616000000000        0.27455000000000
H           -0.07877000000000       -1.61618000000000       -1.14640000000000
H           -0.38645000000000       -3.78251000000000       -0.32789000000000
H            1.24685000000000       -3.38400000000000        0.18994000000000
H           -1.29326000000000       -3.29280000000000        1.90869000000000
H            0.01043000000000       -4.48429000000000        2.01254000000000
H            0.30855000000000       -2.80725000000000        2.48652000000000
H            0.84951000000000        3.05499000000000        1.08246000000000
H            2.10376000000000        2.08733000000000        0.36047000000000
H            1.08866000000000        3.14939000000000       -1.44004000000000
H            0.57717000000000        1.47550000000000       -1.52788000000000
H           -1.25070000000000        2.94074000000000       -2.11918000000000
H           -1.65027000000000        2.05292000000000       -0.68922000000000
H           -2.44313000000000        4.19244000000000       -0.20757000000000
H           -0.96304000000000        4.12592000000000        0.69667000000000
H           -1.01517000000000        6.26740000000000       -0.33066000000000
H            0.22150000000000        5.36162000000000       -1.17054000000000
H           -1.10536000000000        6.67276000000000       -2.74801000000000
H           -1.27144000000000        4.96957000000000       -3.08687000000000
H           -3.42659000000000        6.04031000000000       -3.33681000000000
H           -3.50013000000000        4.90756000000000       -2.01863000000000
H           -4.70162000000000        6.88074000000000       -1.36064000000000
H           -3.27926000000000        6.76479000000000       -0.36015000000000
H           -3.61755000000000        9.07539000000000       -1.00637000000000
H           -2.12352000000000        8.49640000000000       -1.69930000000000
H           -3.27607000000000        9.86229000000000       -3.33125000000000
H           -3.18988000000000        8.22283000000000       -3.91598000000000
H           -5.37096000000000        9.07327000000000       -4.44151000000000
H           -5.56404000000000        7.82157000000000       -3.24574000000000
H           -7.05215000000000        9.64881000000000       -2.71516000000000
H           -5.85992000000000        9.51007000000000       -1.44873000000000
H           -6.27813000000000       11.85580000000000       -1.96959000000000
H           -4.61420000000000       11.44829000000000       -2.30146000000000
H           -5.45796000000000       12.89676000000000       -4.05452000000000
H           -5.05151000000000       11.34112000000000       -4.72727000000000
H           -7.11023000000000       12.10237000000000       -5.72698000000000
H           -7.44303000000000       10.67700000000000       -4.77931000000000
H           -9.22101000000000       12.30067000000000       -4.48494000000000
H           -8.41156000000000       12.03159000000000       -2.95623000000000
H           -8.92923000000000       14.38873000000000       -3.23582000000000
H           -7.18692000000000       14.18897000000000       -3.18598000000000
H           -8.83735000000000       14.51709000000000       -5.75249000000000
H           -7.92704000000000       15.80292000000000       -4.94290000000000
H           -7.06541000000000       14.44069000000000       -5.66392000000000
H           -1.45247000000000        1.92182000000000        1.88186000000000
H           -1.73742000000000        0.61267000000000        0.77467000000000
H           -2.90686000000000       -0.21274000000000        2.48337000000000
H           -1.36110000000000       -0.94557000000000        2.86074000000000
H           -2.31321000000000       -0.08131000000000        4.88537000000000
H           -0.93896000000000        0.94914000000000        4.51715000000000
H           -3.84603000000000        1.65153000000000        3.85083000000000
H           -2.95877000000000        2.21358000000000        5.27705000000000
H           -2.44219000000000        2.72294000000000        3.66977000000000
H            2.47534000000000        1.19855000000000        2.62797000000000
H            1.02855000000000        1.72011000000000        3.42964000000000
H            1.70811000000000        0.14017000000000        4.88523000000000
H            0.59968000000000       -0.82170000000000        3.93002000000000
H            2.65005000000000       -2.01146000000000        4.52943000000000
H            2.46302000000000       -1.94460000000000        2.79883000000000
H            4.28104000000000       -0.06705000000000        4.39165000000000
H            4.80526000000000       -1.54499000000000        3.56686000000000
H            4.19056000000000       -0.19222000000000        2.61939000000000
95
 energy: -99.051699702620 gnorm: 0.028992662371 xtb: 6.7.1 (edcfbbe)
C            1.00949041045488       -0.72003032199196        0.44440727818038
C           -0.07505388471321       -1.68325674866262       -0.06981314779905
C            0.18170430481086       -3.13661000370180        0.33614453901826
C           -0.21792022308131       -3.44004952164528        1.77317543925213
P            0.51431129056412        0.72848891524524        1.39475438485588
C            1.02688790878481        2.19471562505612        0.45330775825754
C            0.45797437604297        2.40260308000053       -0.95411043183777
C           -1.00516514762188        2.84521577726855       -1.05137743410684
C           -1.35543162728431        4.14756625082128       -0.32690691423877
C           -0.86475625012092        5.42385461899530       -1.01492331405827
C           -1.53704962882695        5.73894297531308       -2.35513594004992
C           -3.06247857244821        5.86727316403904       -2.31244490262834
C           -3.60627482859012        6.96041309708026       -1.38919707800666
C           -3.21249152552882        8.39094377269058       -1.76576039463596
C           -3.66557411652333        8.84952262551127       -3.15415559141332
C           -5.17815961335927        8.83976663527379       -3.38704235636374
C           -5.98501611439388        9.79361368438557       -2.50280103224668
C           -5.63863574152350       11.27746356943233       -2.65174497142069
C           -5.76922900457954       11.84267301842524       -4.06804788480317
C           -7.16154363818386       11.73378369739879       -4.69281465947407
C           -8.27586096960618       12.47186823271367       -3.94765599904694
C           -8.07368066003520       13.98002791790449       -3.79224726576654
C           -7.96820666470448       14.72256904129931       -5.11720816058798
C           -1.25211847052735        0.86459120211709        1.70247380258706
C           -1.88456195400562        0.00124788544663        2.80052407015544
C           -1.93573523775464        0.66169358117022        4.18002998297620
C           -2.84714154030379        1.88197964939638        4.23534334292797
C            1.47899170506736        0.87931931451200        2.91625197862495
C            1.55275005904989       -0.29642143918705        3.90065876889540
C            2.66439396954569       -1.32624991379240        3.66752788891935
C            4.06196483217352       -0.73413995592941        3.55390248903958
H            1.57012768181615       -0.33307215330464       -0.41568129748320
H            1.74606904551969       -1.27139139232299        1.03475370155504
H           -1.06890196844829       -1.39928240823143        0.28022523638625
H           -0.09931049836792       -1.62933021381553       -1.16110662069047
H           -0.39407659913116       -3.78461611639361       -0.32800669524209
H            1.23678062068798       -3.37802270378559        0.18319744178989
H           -1.28928955449717       -3.29499334085573        1.91000322926808
H            0.01045546561839       -4.47601750968535        2.01555284484707
H            0.31165606221585       -2.80624602123867        2.48313952855643
H            0.84287242750684        3.07378809263331        1.07847327362983
H            2.11724110129899        2.09970316703508        0.36263833406168
H            1.08085365643753        3.15856860440801       -1.43899521667980
H            0.57440583927841        1.48097420541677       -1.53312560842364
H           -1.24061979543063        2.95939618484670       -2.11213626553852
H           -1.65348830486481        2.04781728804273       -0.68390623958728
H           -2.44195367403678        4.19902247509315       -0.22477272338229
H           -0.95430761411729        4.12704203315595        0.69108658155692
H           -1.02659113875819        6.26266607415610       -0.33291375658812
H            0.21523660078967        5.35637485910087       -1.17732873584823
H           -1.11074400441951        6.67147747279478       -2.73333317148379
H           -1.27855284775154        4.96354569772337       -3.08278353888752
H           -3.41453097040151        6.05280829226556       -3.33038654957953
H           -3.49708044889840        4.90962750860197       -2.00947776044266
H           -4.69704604191036        6.88340936124236       -1.37578196282831
H           -3.27050999922243        6.76869461835115       -0.36541505156046
H           -3.62713120461327        9.06730815259688       -1.01311376592568
H           -2.12433420894016        8.49111741338118       -1.70852956151657
H           -3.28532860608076        9.86114145360843       -3.31945221457545
H           -3.19613503896558        8.21536931328197       -3.91208482215420
H           -5.36323656410435        9.08533674391612       -4.43643697431622
H           -5.55927316411353        7.82541864351204       -3.23606282923244
H           -7.04594292848399        9.65075765439335       -2.72775472235486
H           -5.85004015134217        9.51405712215865       -1.45346232708885
H           -6.28510164322990       11.84691539786144       -1.97777506010067
H           -4.61208812920498       11.44297385067917       -2.31072829101973
H           -5.46867804797974       12.89400288029841       -4.04445733460002
H           -5.05816445080582       11.33267592321912       -4.72483809796728
H           -7.10680494139457       12.11255386454559       -5.71757040753688
H           -7.44154575388564       10.67887833119253       -4.76743943253988
H           -9.21262801174669       12.30301439731353       -4.48897132231276
H           -8.40078866397039       12.03153711301027       -2.95416850902153
H           -8.92722315727790       14.37899650882734       -3.23490953285118
H           -7.18189842627126       14.17777774337274       -3.19236938352513
H           -8.83266650459379       14.51277627758681       -5.74624875330812
H           -7.92713546569356       15.79801050062091       -4.94508238034454
H           -7.06977550161726       14.43724827242717       -5.66199864920323
H           -1.46015032553026        1.92232289346633        1.89162610365852
H           -1.74116181473199        0.62330397272409        0.75259892799390
H           -2.91356259946253       -0.21889184807203        2.50264027001011
H           -1.36491745654589       -0.95711768349756        2.87152520586853
H           -2.30980091021587       -0.08332226333207        4.88674651973305
H           -0.93504263324374        0.94631117135580        4.51013197181910
H           -3.83871509462819        1.64600206370752        3.85290496075524
H           -2.95631792678020        2.21361876334872        5.26620480095171
H           -2.44842922250587        2.71925776015999        3.66345740863395
H            2.49033808333212        1.18906716985281        2.63333800468856
H            1.03534919826015        1.73885168096177        3.43522958343721
H            1.71486236192539        0.13239467015069        4.89393765603898
H            0.59730588421840       -0.82311124615243        3.93769009567446
H            2.64348690535254       -2.00616930237292        4.52420035418602
H            2.46091176124531       -1.93728095805605        2.78573898711888
H            4.27440451211693       -0.06880501587689        4.38887769203982
H            4.80049046327861       -1.53373705128447        3.56708732294566
H            4.19662089453949       -0.18267583670768        2.62363528333078
95
 energy: -99.053413096805 gnorm: 0.008742537872 xtb: 6.7.1 (edcfbbe)
C            1.01425280825192       -0.73471707846302        0.43317546802031
C           -0.08298196262089       -1.68980788867799       -0.07949883640217
C            0.17524914304439       -3.14337721104749        0.32719240094064
C           -0.21823982374017       -3.43759240453608        1.76913308074721
P            0.51422411698170        0.73712976595603        1.39364222338084
C            1.03308459606276        2.21330266960826        0.44718333873246
C            0.45856018808190        2.41364348068592       -0.96153357034177
C           -1.00604458745225        2.85130577010867       -1.05436140345883
C           -1.35873944170555        4.14945496556801       -0.32425307067211
C           -0.86537321931827        5.42318951759235       -1.01442044906966
C           -1.53764067930568        5.73738897223772       -2.35379163598926
C           -3.06223632303809        5.86674481422002       -2.31261510949504
C           -3.60507647185311        6.95990250283209       -1.38966164125475
C           -3.21132033614921        8.38957649388996       -1.76748180319414
C           -3.66430115592207        8.84848189505757       -3.15518134010193
C           -5.17638558467184        8.83838543850249       -3.38825771176431
C           -5.98274845455479        9.79161159102985       -2.50369288787634
C           -5.63711560431217       11.27514474464992       -2.65197908003899
C           -5.76766141960283       11.84113191308057       -4.06743296682844
C           -7.15982950361719       11.73133551695831       -4.69157950461903
C           -8.27323497489414       12.46869622360792       -3.94490460201241
C           -8.06855848053139       13.97649225608047       -3.78836599770937
C           -7.96751318474358       14.71778586201889       -5.11609759943612
C           -1.27640780618066        0.85978852155128        1.70288194957444
C           -1.89335999847341       -0.01117972244614        2.80818129480127
C           -1.93305672839067        0.65941838466388        4.18326375341840
C           -2.84703452377334        1.87898501824044        4.23345897760387
C            1.48823580089945        0.88948359783923        2.93190771478377
C            1.55473522895814       -0.29531075230559        3.91141851276227
C            2.66565017070972       -1.32343210723143        3.66456890638541
C            4.06324222485385       -0.72683561195095        3.55508552487656
H            1.58697185740105       -0.33829725550405       -0.41285134958185
H            1.72555999670981       -1.29044236956251        1.05145745047796
H           -1.06825571431776       -1.40042482680541        0.29020058909000
H           -0.11609113675865       -1.63134501651428       -1.16716010583127
H           -0.40548657705112       -3.79156012477133       -0.32886044671042
H            1.22851191117188       -3.38413225728225        0.17101624339538
H           -1.28675438220323       -3.29178799546043        1.90897724827688
H            0.01204831722525       -4.46975768078259        2.01363269610418
H            0.31708161996745       -2.80120786499703        2.47063054463899
H            0.83513050611420        3.08943108513585        1.07074196526475
H            2.12276153408287        2.11592601939987        0.36296061446559
H            1.07513223733234        3.17249805416582       -1.44533896408738
H            0.57569404973868        1.49081645931532       -1.53596251080776
H           -1.23561711132648        2.97616442547677       -2.11294923300228
H           -1.65103525468399        2.05173570617190       -0.68904690298391
H           -2.44373012326430        4.20280655345800       -0.23198754407194
H           -0.95591380246102        4.12980926489650        0.69238126934194
H           -1.03370260436034        6.25895343472609       -0.33413486952411
H            0.21285564751217        5.35553848417192       -1.17888782972650
H           -1.11271672120679        6.67019587187952       -2.72631867070960
H           -1.28293325876793        4.96134598851378       -3.07974237141553
H           -3.40823411199304        6.05866006185671       -3.32911929635046
H           -3.49806476616475        4.91191146164788       -2.00788496333941
H           -4.69388339656211        6.88384305673438       -1.38413236811078
H           -3.26826378936964        6.77162112547068       -0.36715551312208
H           -3.63075014220800        9.06211857272697       -1.01686202194799
H           -2.12463448449661        8.48944071010538       -1.71406383225551
H           -3.28745368900840        9.86026216375882       -3.31428894224508
H           -3.19852397856221        8.21324916846854       -3.91207559129726
H           -5.35725197076073        9.08993546766227       -4.43480030114599
H           -5.55760306985352        7.82614482075553       -3.23466460142099
H           -7.04040143970977        9.64960484060759       -2.73476486470797
H           -5.84571604927776        9.51430426548206       -1.45574867741405
H           -6.28719450784625       11.84028234071712       -1.98095542847407
H           -4.61103321621778       11.43986246595224       -2.31486930610805
H           -5.47205991330069       12.89171891383865       -4.03881599073815
H           -5.06027365968916       11.32969747274174       -4.72411530491037
H           -7.10388640149127       12.11595530663434       -5.71185422777096
H           -7.44008225462618       10.67812595209905       -4.76307526260834
H           -9.20711693680920       12.30139949104606       -4.48829516249826
H           -8.39351613344860       12.03071933652497       -2.95182755076360
H           -8.92001954414051       14.37338202396966       -3.22955593434544
H           -7.17319973698071       14.17014984137739       -3.19494655879002
H           -8.83250897587873       14.50430657628946       -5.73968159128378
H           -7.92759514533780       15.79067588414275       -4.94425840837134
H           -7.07186936855329       14.43056159527939       -5.65968075325414
H           -1.47493389033413        1.91678876113464        1.90516301892825
H           -1.75128378218148        0.62346363559802        0.74540506148349
H           -2.92189305480443       -0.23213441078811        2.51729326774165
H           -1.36567350761294       -0.96405404065936        2.87641771512889
H           -2.30386004608782       -0.08027470940684        4.89388221886977
H           -0.93020685159101        0.94652362952814        4.50210495831408
H           -3.83586880886214        1.63498529739886        3.85549938759892
H           -2.95264206613814        2.21551703838266        5.26020841782441
H           -2.45298121669689        2.71073904570216        3.65422520618156
H            2.50191223385717        1.17847999429057        2.63682449190833
H            1.04809423964459        1.75480848363250        3.44159478202986
H            1.72247243052854        0.12803455670358        4.90348916278833
H            0.59774729166385       -0.81739279049140        3.94295014217125
H            2.64554228422020       -2.00716651730153        4.51507843231730
H            2.46142000437399       -1.92295580150910        2.77548304910524
H            4.26750527411171       -0.06604745952948        4.39283850400195
H            4.80002323360552       -1.52419456518995        3.56825583397148
H            4.19870791074456       -0.17223615833812        2.62918704454346
95
 energy: -99.053691367630 gnorm: 0.004212466653 xtb: 6.7.1 (edcfbbe)
C            1.01274790861844       -0.74163578603343        0.43088137172659
C           -0.08887235962677       -1.68950491696613       -0.08300406786877
C            0.16800051918427       -3.14524311770789        0.31833826762679
C           -0.21739979368010       -3.43738364020472        1.76356377403143
P            0.51132101322834        0.73967603213085        1.39309087641909
C            1.03078094480525        2.22040589911115        0.44553834883959
C            0.45932835378045        2.42011939652225       -0.96416607489521
C           -1.00636813044985        2.85427624726351       -1.05650318885115
C           -1.36147230411688        4.15087054568258       -0.32440758097840
C           -0.86707093834588        5.42607311947439       -1.01204036126945
C           -1.53693948357747        5.73802746067575       -2.35344248262149
C           -3.06189259255894        5.86688711833423       -2.31368122084035
C           -3.60567152339357        6.95992382875718       -1.39065180946971
C           -3.21014275356218        8.38955190007071       -1.76800995336413
C           -3.66214820025686        8.84785700097019       -3.15655561257244
C           -5.17443169913771        8.83714664164478       -3.39043470511715
C           -5.98158710567223        9.78903360014612       -2.50461492854473
C           -5.63500372227773       11.27278595343990       -2.65125263707878
C           -5.76531077676705       11.83910779287773       -4.06692091355576
C           -7.15797437950437       11.72869244724428       -4.69066004744359
C           -8.27073722124029       12.46484467017986       -3.94116037136608
C           -8.06407507133480       13.97264602973453       -3.78486880225749
C           -7.96731870388505       14.71315481881863       -5.11395942027976
C           -1.28720965488582        0.85708926762648        1.70527494117590
C           -1.89583189399387       -0.01655901981792        2.81175816597411
C           -1.93126731756030        0.65726648655968        4.18523119231187
C           -2.84829716176835        1.87511892370673        4.23331965225803
C            1.49291290357308        0.89377112901247        2.93429556915389
C            1.55725992626295       -0.29049556136590        3.91378766540985
C            2.66762173456468       -1.31808705345586        3.66299667734592
C            4.06539669120076       -0.71963108267800        3.55908603016768
H            1.59451758207343       -0.34881953368044       -0.40879568687061
H            1.71115584217343       -1.29834156219385        1.06027298002595
H           -1.07020390724997       -1.40003133584198        0.29535734589203
H           -0.12895362066504       -1.62582741359439       -1.17011141593174
H           -0.41844154666959       -3.79255505012948       -0.33372671232223
H            1.21964715484421       -3.38860762000782        0.15635089363776
H           -1.28504854516806       -3.28983526416082        1.90850419365154
H            0.01400182888301       -4.46914068502500        2.01018097350610
H            0.32203466159676       -2.79858877455653        2.45987391521802
H            0.82820313787748        3.09540329878824        1.06833962162098
H            2.12023649201231        2.12562147120460        0.36453863996063
H            1.07385378937489        3.18127640167235       -1.44730015180921
H            0.57903023552609        1.49808690047993       -1.53866396149387
H           -1.23553583804816        2.98327578155623       -2.11437255637027
H           -1.64954566541367        2.05207317205689       -0.69436311461765
H           -2.44632485586401        4.20396760250118       -0.23490533477865
H           -0.96182033656370        4.13034088641074        0.69295936032006
H           -1.03685585494545        6.26236706017504       -0.33288350913839
H            0.21109552172493        5.35834084567027       -1.17496484206892
H           -1.11214764678324        6.67070231651317       -2.72585691042073
H           -1.28144498345918        4.96180817279031       -3.07877065813665
H           -3.40626120344681        6.06009540749017       -3.33017908174884
H           -3.49871355885859        4.91223358030319       -2.01051219561621
H           -4.69430265775455        6.88451809396245       -1.38645315427869
H           -3.27005500630772        6.77175791936033       -0.36802120000624
H           -3.63000864298560        9.06221854210437       -1.01804415634463
H           -2.12363400968786        8.48910259138819       -1.71414103909439
H           -3.28598713885318        9.85972999694816       -3.31485917901078
H           -3.19578956789295        8.21329944794228       -3.91338442376393
H           -5.35479994197781        9.09011987265451       -4.43646475106609
H           -5.55548969042018        7.82491245808112       -3.23827931814629
H           -7.03891082423611        9.64743714124523       -2.73653340577057
H           -5.84504727481640        9.51086659999380       -1.45707882719013
H           -6.28545423452190       11.83724165594798       -1.98037944903110
H           -4.60921529733066       11.43746048251592       -2.31381604016211
H           -5.47060098532984       12.88963202019322       -4.03763740717766
H           -5.05784186902541       11.32866209304566       -4.72390146426535
H           -7.10309417445998       12.11462415569262       -5.71022091764775
H           -7.43768997040581       10.67567869329126       -4.76298234054321
H           -9.20520784552966       12.29862057907652       -4.48336114855977
H           -8.38961007640051       12.02634772697844       -2.94829317259227
H           -8.91258405365669       14.37056680196109       -3.22276360524137
H           -7.16591712020171       14.16515924204283       -3.19564404808209
H           -8.83425299944171       14.49723416133341       -5.73425824332522
H           -7.92790401501539       15.78634121483030       -4.94346204789232
H           -7.07272965690721       14.42538889418389       -5.65928109829453
H           -1.48562498918090        1.91253760890693        1.91055281502404
H           -1.75942498591082        0.62044461192525        0.74799018739446
H           -2.92492973319746       -0.24266203901279        2.52645288574963
H           -1.36393935897153       -0.96676945443192        2.87925925059288
H           -2.29652427889439       -0.07942372391560        4.90205919408277
H           -0.92724557524730        0.94818566520599        4.49628266867379
H           -3.83786093596226        1.62515423551092        3.86039468319050
H           -2.95026726666657        2.21732475138722        5.25874273592392
H           -2.45906405916294        2.70470435507770        3.64734822319881
H            2.50608243988898        1.17478247607636        2.63309156353709
H            1.05872938589975        1.76205070490207        3.44200680117474
H            1.72692739532091        0.13049367416550        4.90662939916913
H            0.60009279407722       -0.81148592028853        3.94562708631598
H            2.64763879181659       -2.00834545601398        4.50812249679125
H            2.46458130838069       -1.91094418504214        2.76953222644280
H            4.26526129695301       -0.06067027377526        4.39963405436198
H            4.80316162844748       -1.51629636395535        3.57199110516305
H            4.20253730499712       -0.16242284167307        2.63489291412444
95
 energy: -99.053903641182 gnorm: 0.003866863928 xtb: 6.7.1 (edcfbbe)