      -----------------------------------------------------------      
     |                   =====================                   |     
     |                           x T B                           |     
     |                   =====================                   |     
     |                         S. Grimme                         |     
     |          Mulliken Center for Theoretical Chemistry        |     
     |                    University of Bonn                     |     
      -----------------------------------------------------------      

   * xtb version 6.7.1 (edcfbbe) compiled by 'conda@3ef47c1a292c' on 2024-11-25

   xtb is free software: you can redistribute it and/or modify it under
   the terms of the GNU Lesser General Public License as published by
   the Free Software Foundation, either version 3 of the License, or
   (at your option) any later version.
   
   xtb is distributed in the hope that it will be useful,
   but WITHOUT ANY WARRANTY; without even the implied warranty of
   MERCHANTABILITY or FITNESS FOR A PARTICULAR PURPOSE.  See the
   GNU Lesser General Public License for more details.
   
   Cite this work as:
   * C. Bannwarth, E. Caldeweyher, S. Ehlert, A. Hansen, P. Pracht,
     J. Seibert, S. Spicher, S. Grimme, WIREs Comput. Mol. Sci., 2020, 11,
     e01493. DOI: 10.1002/wcms.1493
   
   for GFN2-xTB:
   * C. Bannwarth, S. Ehlert and S. Grimme., J. Chem. Theory Comput., 2019,
     15, 1652-1671. DOI: 10.1021/acs.jctc.8b01176
   for GFN1-xTB:
   * S. Grimme, C. Bannwarth, P. Shushkov, J. Chem. Theory Comput., 2017,
     13, 1989-2009. DOI: 10.1021/acs.jctc.7b00118
   for GFN0-xTB:
   * P. Pracht, E. Caldeweyher, S. Ehlert, S. Grimme, ChemRxiv, 2019, preprint.
     DOI: 10.26434/chemrxiv.8326202.v1
   for GFN-FF:
   * S. Spicher and S. Grimme, Angew. Chem. Int. Ed., 2020, 59, 15665-15673.
     DOI: 10.1002/anie.202004239
   
   for ALPB and GBSA implicit solvation:
   * S. Ehlert, M. Stahn, S. Spicher, S. Grimme, J. Chem. Theory Comput.,
     2021, 17, 4250-4261. DOI: 10.1021/acs.jctc.1c00471
   
   for ddCOSMO and CPCM-X implicit solvation:
   * M. Stahn, S. Ehlert, S. Grimme, J. Phys. Chem. A,
     2023, XX, XXXX-XXXX. DOI: 10.1021/acs.jpca.3c04382
   
   for DFT-D4:
   * E. Caldeweyher, C. Bannwarth and S. Grimme, J. Chem. Phys., 2017,
     147, 034112. DOI: 10.1063/1.4993215
   * E. Caldeweyher, S. Ehlert, A. Hansen, H. Neugebauer, S. Spicher,
     C. Bannwarth and S. Grimme, J. Chem. Phys., 2019, 150, 154122.
     DOI: 10.1063/1.5090222
   * E. Caldeweyher, J.-M. Mewes, S. Ehlert and S. Grimme, Phys. Chem. Chem. Phys.
     2020, 22, 8499-8512. DOI: 10.1039/D0CP00502A
   
   for sTDA-xTB:
   * S. Grimme and C. Bannwarth, J. Chem. Phys., 2016, 145, 054103.
     DOI: 10.1063/1.4959605
   
   in the mass-spec context:
   * V. Asgeirsson, C. Bauer and S. Grimme, Chem. Sci., 2017, 8, 4879.
     DOI: 10.1039/c7sc00601b
   * J. Koopman and S. Grimme, ACS Omega 2019, 4, 12, 15120-15133.
     DOI: 10.1021/acsomega.9b02011
   
   for metadynamics refer to:
   * S. Grimme, J. Chem. Theory Comput., 2019, 155, 2847-2862
     DOI: 10.1021/acs.jctc.9b00143
   
   for SPH calculations refer to:
   * S. Spicher and S. Grimme, J. Chem. Theory Comput., 2021, 17, 1701-1714
     DOI: 10.1021/acs.jctc.0c01306
   
   for ONIOM refer to:
   * C. Plett, A. Katbashev, S. Ehlert, S. Grimme, M. Bursch,
     Phys. Chem. Chem. Phys., 2023, 25, 17860-17868. DOI: 10.1039/D3CP02178E
   
   for DIPRO refer to:
   * J. Kohn, N. Gildemeister, S. Grimme, D. Fazzi, A. Hansen,
     J. Chem. Phys., 2023, just accepted.
   
   for PTB refer to:
   * S. Grimme, M. Mueller, A. Hansen, J. Chem. Phys., 2023, 158, 124111.
     DOI: 10.1063/5.0137838
   
   with help from (in alphabetical order)
   P. Atkinson, C. Bannwarth, F. Bohle, G. Brandenburg, E. Caldeweyher
   M. Checinski, S. Dohm, S. Ehlert, S. Ehrlich, I. Gerasimov, C. Hölzer
   A. Katbashev, J. Kohn, J. Koopman, C. Lavigne, S. Lehtola, F. März, M. Müller,
   F. Musil, H. Neugebauer, J. Pisarek, C. Plett, P. Pracht, F. Pultar,
   J. Seibert, P. Shushkov, S. Spicher, M. Stahn, M. Steiner, T. Strunk,
   J. Stückrath, T. Rose, and J. Unsleber
   
 * started run on 2024/12/20 at 02:12:48.748     
   ID    Z sym.   atoms
    1    6 C      1-4, 6-12
    2    7 N      5
    3    1 H      13-30

           -------------------------------------------------
          |                Calculation Setup                |
           -------------------------------------------------

          program call               : xtb C0261.xyz --opt --namespace C0261 --charge +1
          calculation namespace      : C0261
          coordinate file            : C0261.xyz
          omp threads                :                     8


           -------------------------------------------------
          |                 G F N 2 - x T B                 |
           -------------------------------------------------

        Reference                      10.1021/acs.jctc.8b01176
      * Hamiltonian:
        H0-scaling (s, p, d)           1.850000    2.230000    2.230000
        zeta-weighting                 0.500000
      * Dispersion:
        s8                             2.700000
        a1                             0.520000
        a2                             5.000000
        s9                             5.000000
      * Repulsion:
        kExp                           1.500000    1.000000
        rExp                           1.000000
      * Coulomb:
        alpha                          2.000000
        third order                    shell-resolved
        anisotropic                    true
        a3                             3.000000
        a5                             4.000000
        cn-shift                       1.200000
        cn-exp                         4.000000
        max-rad                        5.000000


          ...................................................
          :                      SETUP                      :
          :.................................................:
          :  # basis functions                  66          :
          :  # atomic orbitals                  66          :
          :  # shells                           42          :
          :  # electrons                        66          :
          :  max. iterations                   250          :
          :  Hamiltonian                  GFN2-xTB          :
          :  restarted?                      false          :
          :  GBSA solvation                  false          :
          :  PC potential                    false          :
          :  electronic temp.          300.0000000     K    :
          :  accuracy                    1.0000000          :
          :  -> integral cutoff          0.2500000E+02      :
          :  -> integral neglect         0.1000000E-07      :
          :  -> SCF convergence          0.1000000E-05 Eh   :
          :  -> wf. convergence          0.1000000E-03 e    :
          :  Broyden damping             0.4000000          :
          :  net charge                          1          :
          :  unpaired electrons                  0          :
          ...................................................

 iter      E             dE          RMSdq      gap      omega  full diag
   1    -35.7243130 -0.357243E+02  0.339E+00    4.20       0.0  T
   2    -35.8098323 -0.855193E-01  0.231E+00    3.49       1.0  T
   3    -35.8138688 -0.403653E-02  0.114E+00    3.11       1.0  T
   4    -35.8153641 -0.149532E-02  0.514E-01    2.81       1.0  T
   5    -35.8221349 -0.677078E-02  0.110E-01    2.82       1.0  T
   6    -35.8222688 -0.133865E-03  0.456E-02    2.84       1.0  T
   7    -35.8222726 -0.384780E-05  0.259E-02    2.85       1.0  T
   8    -35.8222797 -0.709343E-05  0.586E-03    2.85       3.1  T
   9    -35.8222806 -0.924010E-06  0.166E-03    2.85      11.0  T
  10    -35.8222807 -0.410366E-07  0.856E-04    2.85      21.3  T
  11    -35.8222807 -0.678191E-08  0.182E-04    2.85     100.4  T

   *** convergence criteria satisfied after 11 iterations ***

         #    Occupation            Energy/Eh            Energy/eV
      -------------------------------------------------------------
         1        2.0000           -0.8556099             -23.2823
       ...           ...                  ...                  ...
        27        2.0000           -0.5957291             -16.2106
        28        2.0000           -0.5917549             -16.1025
        29        2.0000           -0.5857910             -15.9402
        30        2.0000           -0.5708073             -15.5325
        31        2.0000           -0.5633156             -15.3286
        32        2.0000           -0.5536503             -15.0656
        33        2.0000           -0.5470359             -14.8856 (HOMO)
        34                         -0.4422170             -12.0333 (LUMO)
        35                         -0.4094321             -11.1412
        36                         -0.2952384              -8.0338
        37                         -0.2025536              -5.5118
        38                         -0.1075743              -2.9272
       ...                                ...                  ...
        66                          0.4215285              11.4704
      -------------------------------------------------------------
                  HL-Gap            0.1048189 Eh            2.8523 eV
             Fermi-level           -0.4946265 Eh          -13.4595 eV

 SCC (total)                   0 d,  0 h,  0 min,  0.025 sec
 SCC setup                      ...        0 min,  0.000 sec (  0.580%)
 Dispersion                     ...        0 min,  0.000 sec (  1.022%)
 classical contributions        ...        0 min,  0.000 sec (  0.195%)
 integral evaluation            ...        0 min,  0.001 sec (  4.273%)
 iterations                     ...        0 min,  0.021 sec ( 82.201%)
 molecular gradient             ...        0 min,  0.003 sec ( 11.253%)
 printout                       ...        0 min,  0.000 sec (  0.416%)

         :::::::::::::::::::::::::::::::::::::::::::::::::::::
         ::                     SUMMARY                     ::
         :::::::::::::::::::::::::::::::::::::::::::::::::::::
         :: total energy             -35.272652548102 Eh    ::
         :: gradient norm              0.036541496451 Eh/a0 ::
         :: HOMO-LUMO gap              2.852266368470 eV    ::
         ::.................................................::
         :: SCC energy               -35.822082652660 Eh    ::
         :: -> isotropic ES            0.078394026791 Eh    ::
         :: -> anisotropic ES         -0.011281228380 Eh    ::
         :: -> anisotropic XC          0.025823317993 Eh    ::
         :: -> dispersion             -0.023435557305 Eh    ::
         :: repulsion energy           0.549430104558 Eh    ::
         :: add. restraining           0.000000000000 Eh    ::
         :: total charge               1.000000000000 e     ::
         :::::::::::::::::::::::::::::::::::::::::::::::::::::

      ----------------------------------------------------------- 
     |                   =====================                   |
     |                        A N C O P T                        |
     |                   =====================                   |
     |               Approximate Normal Coordinate               |
     |                Rational Function Optimizer                |
      ----------------------------------------------------------- 
      ----------------------------------------------------------- 
     |                   =====================                   |
     |                        A N C O P T                        |
     |                   =====================                   |
     |               Approximate Normal Coordinate               |
     |                Rational Function Optimizer                |
      ----------------------------------------------------------- 

          ...................................................
          :                      SETUP                      :
          :.................................................:
          :   optimization level            normal          :
          :   max. optcycles                   200          :
          :   ANC micro-cycles                  20          :
          :   degrees of freedom                84          :
          :.................................................:
          :   RF solver                   davidson          :
          :   write xtbopt.log                true          :
          :   linear?                        false          :
          :   energy convergence         0.5000000E-05 Eh   :
          :   grad. convergence          0.1000000E-02 Eh/α :
          :   maxmium RF displ.          1.0000000          :
          :   Hlow (freq-cutoff)         0.1000000E-01      :
          :   Hmax (freq-cutoff)         5.0000000          :
          :   S6 in model hess.         20.0000000          :
          ...................................................

generating ANC from exact Hessian ...
Using Lindh-Hessian (1995)
 Shifting diagonal of input Hessian by    9.2772992616779390E-003
 Lowest  eigenvalues of input Hessian
    0.000000    0.000000    0.000000    0.000000    0.000000    0.000000
    0.010000    0.010484    0.010742    0.012342    0.013540    0.015199
    0.017233    0.017643    0.018505    0.019360    0.021505    0.021757
 Highest eigenvalues
    1.426244    1.576097    1.604086    1.868778    2.012980    2.057679


........................................................................
.............................. CYCLE    1 ..............................
........................................................................

 iter      E             dE          RMSdq      gap      omega  full diag
   1    -35.8222807 -0.358223E+02  0.641E-05    2.85       0.0  T
   2    -35.8222807 -0.919442E-11  0.356E-05    2.85     513.0  T
   3    -35.8222807  0.108002E-11  0.207E-05    2.85     883.1  T
     SCC iter.                  ...        0 min,  0.003 sec
     gradient                   ...        0 min,  0.003 sec
 * total energy  :   -35.2726525 Eh     change       -0.3126814E-09 Eh
   gradient norm :     0.0365427 Eh/α   predicted     0.0000000E+00 (-100.00%)
   displ. norm   :     0.2453905 α      lambda       -0.5612737E-02
   maximum displ.:     0.1198658 α      in ANC's #24, #25, #52, ...

........................................................................
.............................. CYCLE    2 ..............................
........................................................................

 iter      E             dE          RMSdq      gap      omega  full diag
   1    -35.8489465 -0.358489E+02  0.166E-01    2.95       0.0  T
   2    -35.8490316 -0.851257E-04  0.101E-01    2.94       1.0  T
   3    -35.8490120  0.195871E-04  0.451E-02    2.94       1.0  T
   4    -35.8490420 -0.300024E-04  0.181E-02    2.94       1.0  T
   5    -35.8490506 -0.858166E-05  0.262E-03    2.94       7.0  T
   6    -35.8490506  0.602227E-08  0.150E-03    2.94      12.2  T
   7    -35.8490506 -0.342696E-07  0.331E-04    2.94      55.2  T
   8    -35.8490506 -0.163617E-08  0.120E-04    2.94     151.9  T
     SCC iter.                  ...        0 min,  0.006 sec
     gradient                   ...        0 min,  0.003 sec
 * total energy  :   -35.2762799 Eh     change       -0.3627399E-02 Eh
   gradient norm :     0.0150180 Eh/α   predicted    -0.2975423E-02 ( -17.97%)
   displ. norm   :     0.1699367 α      lambda       -0.1036934E-02
   maximum displ.:     0.0775586 α      in ANC's #5, #4, #10, ...

........................................................................
.............................. CYCLE    3 ..............................
........................................................................

 iter      E             dE          RMSdq      gap      omega  full diag
   1    -35.8596968 -0.358597E+02  0.766E-02    3.00       0.0  T
   2    -35.8597273 -0.305699E-04  0.477E-02    2.99       1.0  T
   3    -35.8597274 -0.849718E-07  0.228E-02    2.99       1.0  T
   4    -35.8597300 -0.253418E-05  0.106E-02    2.99       1.7  T
   5    -35.8597328 -0.281011E-05  0.117E-03    2.99      15.6  T
   6    -35.8597328 -0.375204E-08  0.719E-04    2.99      25.4  T
   7    -35.8597328 -0.560711E-08  0.185E-04    2.99      98.8  T
     SCC iter.                  ...        0 min,  0.005 sec
     gradient                   ...        0 min,  0.003 sec
 * total energy  :   -35.2768698 Eh     change       -0.5898999E-03 Eh
   gradient norm :     0.0054820 Eh/α   predicted    -0.5335994E-03 (  -9.54%)
   displ. norm   :     0.1012456 α      lambda       -0.1388139E-03
   maximum displ.:     0.0594231 α      in ANC's #4, #5, #1, ...

........................................................................
.............................. CYCLE    4 ..............................
........................................................................

 iter      E             dE          RMSdq      gap      omega  full diag
   1    -35.8600034 -0.358600E+02  0.261E-02    3.01       0.0  T
   2    -35.8600047 -0.132315E-05  0.151E-02    3.01       1.2  T
   3    -35.8600045  0.152496E-06  0.581E-03    3.01       3.1  T
   4    -35.8600048 -0.217556E-06  0.161E-03    3.01      11.3  T
   5    -35.8600048 -0.697372E-07  0.300E-04    3.01      60.8  T
   6    -35.8600048 -0.326352E-09  0.177E-04    3.01     103.2  T
     SCC iter.                  ...        0 min,  0.004 sec
     gradient                   ...        0 min,  0.003 sec
 * total energy  :   -35.2769749 Eh     change       -0.1050816E-03 Eh
   gradient norm :     0.0026520 Eh/α   predicted    -0.7011949E-04 ( -33.27%)
   displ. norm   :     0.1593979 α      lambda       -0.1303233E-03
   maximum displ.:     0.1005232 α      in ANC's #4, #1, #5, ...

........................................................................
.............................. CYCLE    5 ..............................
........................................................................

 iter      E             dE          RMSdq      gap      omega  full diag
   1    -35.8588904 -0.358589E+02  0.376E-02    3.02       0.0  T
   2    -35.8588910 -0.620321E-06  0.219E-02    3.02       1.0  T
   3    -35.8588907  0.283679E-06  0.505E-03    3.02       3.6  T
   4    -35.8588911 -0.374255E-06  0.112E-03    3.02      16.3  T
   5    -35.8588911 -0.238590E-07  0.381E-04    3.02      47.9  T
   6    -35.8588911  0.181466E-09  0.168E-04    3.02     108.6  T
     SCC iter.                  ...        0 min,  0.004 sec
     gradient                   ...        0 min,  0.003 sec
 * total energy  :   -35.2770579 Eh     change       -0.8299378E-04 Eh
   gradient norm :     0.0025906 Eh/α   predicted    -0.6681745E-04 ( -19.49%)
   displ. norm   :     0.0913391 α      lambda       -0.4061763E-04
   maximum displ.:     0.0534347 α      in ANC's #4, #1, #2, ...

........................................................................
.............................. CYCLE    6 ..............................
........................................................................

 iter      E             dE          RMSdq      gap      omega  full diag
   1    -35.8584926 -0.358585E+02  0.220E-02    3.02       0.0  T
   2    -35.8584927 -0.609346E-07  0.130E-02    3.02       1.4  T
   3    -35.8584926  0.105376E-06  0.183E-03    3.02      10.0  T
   4    -35.8584927 -0.126916E-06  0.421E-04    3.02      43.4  T
   5    -35.8584927 -0.296996E-08  0.178E-04    3.02     102.8  T
     SCC iter.                  ...        0 min,  0.004 sec
     gradient                   ...        0 min,  0.003 sec
 * total energy  :   -35.2770915 Eh     change       -0.3358045E-04 Eh
   gradient norm :     0.0026471 Eh/α   predicted    -0.2048702E-04 ( -38.99%)
   displ. norm   :     0.1488215 α      lambda       -0.6254623E-04
   maximum displ.:     0.0866068 α      in ANC's #1, #4, #3, ...

........................................................................
.............................. CYCLE    7 ..............................
........................................................................

 iter      E             dE          RMSdq      gap      omega  full diag
   1    -35.8582981 -0.358583E+02  0.383E-02    3.02       0.0  T
   2    -35.8582984 -0.260216E-06  0.226E-02    3.02       1.0  T
   3    -35.8582981  0.224311E-06  0.324E-03    3.02       5.6  T
   4    -35.8582984 -0.273046E-06  0.837E-04    3.02      21.8  T
   5    -35.8582984 -0.155456E-07  0.313E-04    3.02      58.3  T
     SCC iter.                  ...        0 min,  0.004 sec
     gradient                   ...        0 min,  0.003 sec
 * total energy  :   -35.2771411 Eh     change       -0.4960486E-04 Eh
   gradient norm :     0.0020012 Eh/α   predicted    -0.3197714E-04 ( -35.54%)
   displ. norm   :     0.1837737 α      lambda       -0.6100243E-04
   maximum displ.:     0.1116142 α      in ANC's #1, #4, #3, ...

........................................................................
.............................. CYCLE    8 ..............................
........................................................................

 iter      E             dE          RMSdq      gap      omega  full diag
   1    -35.8583128 -0.358583E+02  0.470E-02    3.03       0.0  T
   2    -35.8583131 -0.289030E-06  0.277E-02    3.03       1.0  T
   3    -35.8583128  0.326937E-06  0.395E-03    3.03       4.6  T
   4    -35.8583132 -0.411718E-06  0.804E-04    3.03      22.7  T
   5    -35.8583132 -0.889695E-08  0.362E-04    3.03      50.5  T
     SCC iter.                  ...        0 min,  0.004 sec
     gradient                   ...        0 min,  0.003 sec
 * total energy  :   -35.2771878 Eh     change       -0.4671874E-04 Eh
   gradient norm :     0.0018072 Eh/α   predicted    -0.3153274E-04 ( -32.51%)
   displ. norm   :     0.2457988 α      lambda       -0.4556227E-04
   maximum displ.:     0.1576613 α      in ANC's #1, #3, #2, ...

........................................................................
.............................. CYCLE    9 ..............................
........................................................................

 iter      E             dE          RMSdq      gap      omega  full diag
   1    -35.8586427 -0.358586E+02  0.594E-02    3.03       0.0  T
   2    -35.8586430 -0.342437E-06  0.351E-02    3.03       1.0  T
   3    -35.8586423  0.729037E-06  0.516E-03    3.03       3.5  T
   4    -35.8586432 -0.892572E-06  0.910E-04    3.03      20.1  T
   5    -35.8586432 -0.573198E-08  0.453E-04    3.03      40.3  T
     SCC iter.                  ...        0 min,  0.004 sec
     gradient                   ...        0 min,  0.003 sec
 * total energy  :   -35.2772347 Eh     change       -0.4691488E-04 Eh
   gradient norm :     0.0021737 Eh/α   predicted    -0.2339410E-04 ( -50.14%)
   displ. norm   :     0.0849290 α      lambda       -0.2594490E-04
   maximum displ.:     0.0603237 α      in ANC's #1, #2, #5, ...

........................................................................
.............................. CYCLE   10 ..............................
........................................................................

 iter      E             dE          RMSdq      gap      omega  full diag
   1    -35.8592458 -0.358592E+02  0.172E-02    3.04       0.0  T
   2    -35.8592458 -0.513896E-07  0.101E-02    3.04       1.8  T
   3    -35.8592457  0.971327E-07  0.181E-03    3.04      10.1  T
   4    -35.8592459 -0.114254E-06  0.374E-04    3.04      48.8  T
   5    -35.8592459 -0.246248E-08  0.166E-04    3.04     109.8  T
     SCC iter.                  ...        0 min,  0.004 sec
     gradient                   ...        0 min,  0.003 sec
 * total energy  :   -35.2772570 Eh     change       -0.2226091E-04 Eh
   gradient norm :     0.0015654 Eh/α   predicted    -0.1307277E-04 ( -41.27%)
   displ. norm   :     0.2081404 α      lambda       -0.3872874E-04
   maximum displ.:     0.1465280 α      in ANC's #1, #8, #5, ...

........................................................................
.............................. CYCLE   11 ..............................
........................................................................

 iter      E             dE          RMSdq      gap      omega  full diag
   1    -35.8594809 -0.358595E+02  0.396E-02    3.04       0.0  T
   2    -35.8594812 -0.237607E-06  0.233E-02    3.04       1.0  T
   3    -35.8594807  0.452300E-06  0.408E-03    3.04       4.5  T
   4    -35.8594813 -0.533741E-06  0.847E-04    3.04      21.6  T
   5    -35.8594813 -0.126057E-07  0.383E-04    3.04      47.6  T
     SCC iter.                  ...        0 min,  0.004 sec
     gradient                   ...        0 min,  0.003 sec
 * total energy  :   -35.2772969 Eh     change       -0.3988866E-04 Eh
   gradient norm :     0.0012332 Eh/α   predicted    -0.1973955E-04 ( -50.51%)
   displ. norm   :     0.1384372 α      lambda       -0.1838126E-04
   maximum displ.:     0.1012011 α      in ANC's #1, #8, #7, ...

........................................................................
.............................. CYCLE   12 ..............................
........................................................................

 iter      E             dE          RMSdq      gap      omega  full diag
   1    -35.8591952 -0.358592E+02  0.250E-02    3.04       0.0  T
   2    -35.8591952 -0.501335E-07  0.148E-02    3.04       1.2  T
   3    -35.8591952 -0.925935E-08  0.768E-04    3.04      23.8  T
   4    -35.8591952 -0.624482E-08  0.392E-04    3.04      46.6  T
     SCC iter.                  ...        0 min,  0.003 sec
     gradient                   ...        0 min,  0.003 sec
 * total energy  :   -35.2773196 Eh     change       -0.2274440E-04 Eh
   gradient norm :     0.0011896 Eh/α   predicted    -0.9270141E-05 ( -59.24%)
   displ. norm   :     0.1570756 α      lambda       -0.2189101E-04
   maximum displ.:     0.1129955 α      in ANC's #1, #6, #7, ...

........................................................................
.............................. CYCLE   13 ..............................
........................................................................

 iter      E             dE          RMSdq      gap      omega  full diag
   1    -35.8592461 -0.358592E+02  0.294E-02    3.04       0.0  T
   2    -35.8592462 -0.798582E-07  0.174E-02    3.04       1.1  T
   3    -35.8592462  0.450061E-08  0.124E-03    3.04      14.7  T
   4    -35.8592462 -0.274001E-07  0.525E-04    3.04      34.8  T
   5    -35.8592462 -0.151701E-08  0.252E-04    3.04      72.4  T
     SCC iter.                  ...        0 min,  0.004 sec
     gradient                   ...        0 min,  0.003 sec
 * total energy  :   -35.2773453 Eh     change       -0.2570817E-04 Eh
   gradient norm :     0.0010472 Eh/α   predicted    -0.1107023E-04 ( -56.94%)
   displ. norm   :     0.1657192 α      lambda       -0.1715878E-04
   maximum displ.:     0.1198891 α      in ANC's #1, #7, #6, ...

........................................................................
.............................. CYCLE   14 ..............................
........................................................................

 iter      E             dE          RMSdq      gap      omega  full diag
   1    -35.8588534 -0.358589E+02  0.296E-02    3.04       0.0  T
   2    -35.8588535 -0.916250E-07  0.175E-02    3.04       1.0  T
   3    -35.8588535  0.266008E-07  0.158E-03    3.04      11.5  T
   4    -35.8588535 -0.545376E-07  0.587E-04    3.04      31.1  T
   5    -35.8588535 -0.225383E-08  0.248E-04    3.04      73.8  T
     SCC iter.                  ...        0 min,  0.004 sec
     gradient                   ...        0 min,  0.003 sec
 * total energy  :   -35.2773636 Eh     change       -0.1825687E-04 Eh
   gradient norm :     0.0009565 Eh/α   predicted    -0.8684772E-05 ( -52.43%)
   displ. norm   :     0.1149800 α      lambda       -0.9784365E-05
   maximum displ.:     0.0843480 α      in ANC's #1, #7, #9, ...

........................................................................
.............................. CYCLE   15 ..............................
........................................................................

 iter      E             dE          RMSdq      gap      omega  full diag
   1    -35.8592471 -0.358592E+02  0.213E-02    3.04       0.0  T
   2    -35.8592472 -0.621242E-07  0.126E-02    3.04       1.5  T
   3    -35.8592472  0.927197E-08  0.111E-03    3.04      16.5  T
   4    -35.8592472 -0.236046E-07  0.429E-04    3.04      42.6  T
   5    -35.8592472 -0.142349E-08  0.199E-04    3.04      91.9  T
     SCC iter.                  ...        0 min,  0.004 sec
     gradient                   ...        0 min,  0.003 sec
 * total energy  :   -35.2773739 Eh     change       -0.1034070E-04 Eh
   gradient norm :     0.0007829 Eh/α   predicted    -0.4924772E-05 ( -52.37%)
   displ. norm   :     0.1250088 α      lambda       -0.8376063E-05
   maximum displ.:     0.0906620 α      in ANC's #1, #7, #9, ...

........................................................................
.............................. CYCLE   16 ..............................
........................................................................

 iter      E             dE          RMSdq      gap      omega  full diag
   1    -35.8589713 -0.358590E+02  0.255E-02    3.04       0.0  T
   2    -35.8589714 -0.738843E-07  0.151E-02    3.04       1.2  T
   3    -35.8589713  0.230967E-07  0.130E-03    3.04      14.0  T
   4    -35.8589714 -0.435837E-07  0.511E-04    3.04      35.7  T
   5    -35.8589714 -0.281677E-08  0.213E-04    3.04      85.7  T
     SCC iter.                  ...        0 min,  0.004 sec
     gradient                   ...        0 min,  0.003 sec
 * total energy  :   -35.2773824 Eh     change       -0.8435988E-05 Eh
   gradient norm :     0.0008412 Eh/α   predicted    -0.4220109E-05 ( -49.97%)
   displ. norm   :     0.1067736 α      lambda       -0.8134194E-05
   maximum displ.:     0.0755037 α      in ANC's #1, #9, #7, ...

........................................................................
.............................. CYCLE   17 ..............................
........................................................................

 iter      E             dE          RMSdq      gap      omega  full diag
   1    -35.8594461 -0.358594E+02  0.266E-02    3.05       0.0  T
   2    -35.8594461 -0.759528E-07  0.157E-02    3.05       1.2  T
   3    -35.8594461  0.125986E-08  0.103E-03    3.05      17.8  T
   4    -35.8594462 -0.197482E-07  0.473E-04    3.05      38.6  T
   5    -35.8594462 -0.220961E-08  0.222E-04    3.05      82.4  T
     SCC iter.                  ...        0 min,  0.004 sec
     gradient                   ...        0 min,  0.003 sec
 * total energy  :   -35.2773897 Eh     change       -0.7317411E-05 Eh
   gradient norm :     0.0007043 Eh/α   predicted    -0.4089060E-05 ( -44.12%)
   displ. norm   :     0.0702710 α      lambda       -0.3849058E-05
   maximum displ.:     0.0451581 α      in ANC's #1, #9, #7, ...

........................................................................
.............................. CYCLE   18 ..............................
........................................................................

 iter      E             dE          RMSdq      gap      omega  full diag
   1    -35.8592427 -0.358592E+02  0.184E-02    3.05       0.0  T
   2    -35.8592428 -0.403196E-07  0.108E-02    3.05       1.7  T
   3    -35.8592428  0.338759E-08  0.761E-04    3.05      24.0  T
   4    -35.8592428 -0.110534E-07  0.363E-04    3.05      50.3  T
     SCC iter.                  ...        0 min,  0.003 sec
     gradient                   ...        0 min,  0.003 sec
 * total energy  :   -35.2773930 Eh     change       -0.3279166E-05 Eh
   gradient norm :     0.0006593 Eh/α   predicted    -0.1929222E-05 ( -41.17%)
   displ. norm   :     0.0328828 α      lambda       -0.3246518E-05
   maximum displ.:     0.0151894 α      in ANC's #6, #3, #8, ...

   *** GEOMETRY OPTIMIZATION CONVERGED AFTER 18 ITERATIONS ***

------------------------------------------------------------------------
 total energy gain   :        -0.0047404 Eh       -2.9747 kcal/mol
 total RMSD          :         0.3524880 a0        0.1865 Å
 total power (kW/mol):        -0.6914436 (step)  -78.0036 (real)
------------------------------------------------------------------------

 ANCopt (total)                0 d,  0 h,  0 min,  0.160 sec
 optimizer setup                ...        0 min,  0.000 sec (  0.051%)
 model hessian                  ...        0 min,  0.015 sec (  9.675%)
 ANC generation                 ...        0 min,  0.001 sec (  0.353%)
 coordinate transformation      ...        0 min,  0.000 sec (  0.097%)
 single point calculation       ...        0 min,  0.140 sec ( 87.551%)
 optimization log               ...        0 min,  0.001 sec (  0.912%)
 hessian update                 ...        0 min,  0.000 sec (  0.167%)
 rational function              ...        0 min,  0.001 sec (  0.781%)

================
 final structure:
================
30
 xtb: 6.7.1 (edcfbbe)
C            1.15121592250018       -0.35823358981349        0.60094978008718
C            0.60664072584900        0.61577483927338        1.63911824710967
C            0.95687458253960        2.07582629314021        1.34806575195867
C            0.25273076463026        2.65858148727611        0.11241132054464
N           -1.18420941665640        2.77702432879733        0.32082050209741
C           -1.94081350059653        1.72519545733753       -0.02990306420110
C           -3.29876040453333        1.71707665270922        0.17732586362275
C           -3.89021662250244        2.83563528947985        0.74450106328912
C           -3.11309265525323        3.93466763100639        1.09306881647795
C           -1.72636006607841        3.87609508452469        0.88472158295353
C           -0.84811670404165        5.02423038012717        1.24319772081068
C           -3.76292354684106        5.14686134020845        1.67233214933281
H            0.73152354676139       -0.19068744075282       -0.38871711967893
H            0.91517822508132       -1.37758043911466        0.89213664383481
H            2.23193421621292       -0.26996968581361        0.52932646319336
H           -0.47644219769522        0.49886110722367        1.73600191881761
H            1.03984617809508        0.36109376720925        2.60731220700683
H            0.71546703403573        2.67541657840293        2.22749132761326
H            2.03101275095585        2.15528387508347        1.17652777842938
H            0.66829067494731        3.63549531393953       -0.13172398441616
H            0.42259865641127        2.00065308629749       -0.74048243632344
H           -1.43932800866380        0.89089833964628       -0.49414824255301
H           -3.88330145835569        0.85835116118959       -0.10815419835772
H           -4.95627246785946        2.85985331450883        0.90736444433696
H           -0.56203804012163        5.57273875134230        0.34356642633417
H           -1.36734961854539        5.71610427523891        1.89762238084823
H            0.06095497610896        4.70510741877584        1.74565234328888
H           -4.84170410666234        5.02471630452194        1.68838437332316
H           -3.42898505336556        5.31792132002314        2.69483605277738
H           -3.52818438636013        6.03304775820955        1.08582388744239

 Bond Distances (Angstroems)
 ---------------------------
C1-C2=1.5242         C1-H13=1.0880        C1-H14=1.0861        C1-H15=1.0867        C2-C1=1.5242         C2-C3=1.5294         
C2-H16=1.0937        C2-H17=1.0908        C3-C2=1.5294         C3-C4=1.5370         C3-H18=1.0914        C3-H19=1.0906        
C4-C3=1.5370         C4-N5=1.4568         C4-H20=1.0893        C4-H21=1.0905        N5-C4=1.4568         N5-C6=1.3423         
N5-C10=1.3490        C6-N5=1.3423         C6-C7=1.3737         C6-H22=1.0785        C7-C6=1.3737         C7-C8=1.3866         
C7-H23=1.0773        C8-C7=1.3866         C8-C9=1.3904         C8-H24=1.0787        C9-C8=1.3904         C9-C10=1.4035        
C9-C12=1.4924        C10-N5=1.3490        C10-C9=1.4035        C10-C11=1.4893       C11-C10=1.4893       C11-H25=1.0918       
C11-H26=1.0847       C11-H27=1.0866       C12-C9=1.4924        C12-H28=1.0858       C12-H29=1.0892       C12-H30=1.0883       
H13-C1=1.0880        H14-C1=1.0861        H15-C1=1.0867        H16-C2=1.0937        H17-C2=1.0908        H18-C3=1.0914        
H19-C3=1.0906        H20-C4=1.0893        H21-C4=1.0905        H22-C6=1.0785        H23-C7=1.0773        H24-C8=1.0787        
H25-C11=1.0918       H26-C11=1.0847       H27-C11=1.0866       H28-C12=1.0858       H29-C12=1.0892       H30-C12=1.0883       
 C  H  Rav=1.0871 sigma=0.0046  Rmin=1.0773  Rmax=1.0937    18
 C  C  Rav=1.4585 sigma=0.0646  Rmin=1.3737  Rmax=1.5370     9
 N  C  Rav=1.3827 sigma=0.0525  Rmin=1.3423  Rmax=1.4568     3

 selected bond angles (degree)
 --------------------
H13-C1-C2=112.54               H14-C1-C2=109.85               H14-C1-H13=107.73              H15-C1-C2=110.38               
H15-C1-H13=108.13              H15-C1-H14=108.06              C3-C2-C1=113.49                H16-C2-C1=110.23               
H16-C2-C3=110.22               H17-C2-C1=108.27               H17-C2-C3=107.51               H17-C2-H16=106.84              
C4-C3-C2=114.21                H18-C3-C2=108.69               H18-C3-C4=109.77               H19-C3-C2=108.97               
H19-C3-C4=107.29               H19-C3-H18=107.73              N5-C4-C3=111.57                H20-C4-C3=110.21               
H20-C4-N5=109.60               H21-C4-C3=109.19               H21-C4-N5=108.34               H21-C4-H20=107.84              
C6-N5-C4=117.06                C10-N5-C4=121.50               C10-N5-C6=121.41               C7-C6-N5=121.49                
H22-C6-N5=117.17               H22-C6-C7=121.34               C8-C7-C6=118.59                H23-C7-C6=120.07               
H23-C7-C8=121.33               C9-C8-C7=120.12                H24-C8-C7=120.09               H24-C8-C9=119.79               
C10-C9-C8=118.82               C12-C9-C8=119.73               C12-C9-C10=121.45              C9-C10-N5=119.55               
C11-C10-N5=119.45              C11-C10-C9=120.98              

 selected dihedral angles (degree)
 ---------------------------------
C3-C2-C1-H13=297.00           C3-C2-C1-H14=176.98           C3-C2-C1-H15= 57.91           H16-C2-C1-H13= 61.19          
H16-C2-C1-H14=301.17          H16-C2-C1-H15=182.10          H17-C2-C1-H13=177.73          H17-C2-C1-H14= 57.71          
H17-C2-C1-H15=298.64          C4-C3-C2-C1= 68.61            C4-C3-C2-H16=304.41           C4-C3-C2-H17=188.31           
H18-C3-C2-C1=191.53           H18-C3-C2-H16= 67.34          H18-C3-C2-H17=311.24          H19-C3-C2-C1=308.68           
H19-C3-C2-H16=184.48          H19-C3-C2-H17= 68.38          N5-C4-C3-C2= 67.38            N5-C4-C3-H18=305.04           
N5-C4-C3-H19=188.25           H20-C4-C3-C2=189.38           H20-C4-C3-H18= 67.04          H20-C4-C3-H19=310.25          
H21-C4-C3-C2=307.65           H21-C4-C3-H18=185.32          H21-C4-C3-H19= 68.53          C6-N5-C4-C3=269.73            
C6-N5-C4-H20=147.38           C6-N5-C4-H21= 29.95           C10-N5-C4-C3= 87.46           C10-N5-C4-H20=325.11          
C10-N5-C4-H21=207.68          C7-C6-N5-C4=177.31            C7-C6-N5-C10=359.57           H22-C6-N5-C4=356.49           
H22-C6-N5-C10=178.76          C8-C7-C6-N5=  0.96            C8-C7-C6-H22=181.81           H23-C7-C6-N5=180.33           
H23-C7-C6-H22=  1.18          C9-C8-C7-C6=359.91            C9-C8-C7-H23=180.55           H24-C8-C7-C6=179.28           
H24-C8-C7-H23=359.92          C10-C9-C8-C7=358.74           C10-C9-C8-H24=179.37          C12-C9-C8-C7=178.52           
C12-C9-C8-H24=359.15          C9-C10-N5-C4=181.39           C9-C10-N5-C6=359.03           C11-C10-N5-C4=  3.03          
C11-C10-N5-C6=180.67          N5-C10-C9-C8=  1.79           N5-C10-C9-C12=182.02          C11-C10-C9-C8=180.13          
C11-C10-C9-C12=  0.35         
           -------------------------------------------------
          |                Final Singlepoint                |
           -------------------------------------------------

          ...................................................
          :                      SETUP                      :
          :.................................................:
          :  # basis functions                  66          :
          :  # atomic orbitals                  66          :
          :  # shells                           42          :
          :  # electrons                        66          :
          :  max. iterations                   250          :
          :  Hamiltonian                  GFN2-xTB          :
          :  restarted?                      false          :
          :  GBSA solvation                  false          :
          :  PC potential                    false          :
          :  electronic temp.          300.0000000     K    :
          :  accuracy                    1.0000000          :
          :  -> integral cutoff          0.2500000E+02      :
          :  -> integral neglect         0.1000000E-07      :
          :  -> SCF convergence          0.1000000E-05 Eh   :
          :  -> wf. convergence          0.1000000E-03 e    :
          :  Broyden damping             0.4000000          :
          :  net charge                          1          :
          :  unpaired electrons                  0          :
          ...................................................

 iter      E             dE          RMSdq      gap      omega  full diag
   1    -35.8592428 -0.358592E+02  0.166E-04    3.05       0.0  T
   2    -35.8592428 -0.814069E-10  0.974E-05    3.05     187.5  T
   3    -35.8592428 -0.416378E-10  0.634E-05    3.05     287.9  T

   *** convergence criteria satisfied after 3 iterations ***

         #    Occupation            Energy/Eh            Energy/eV
      -------------------------------------------------------------
         1        2.0000           -0.8622008             -23.4617
       ...           ...                  ...                  ...
        27        2.0000           -0.5973646             -16.2551
        28        2.0000           -0.5938258             -16.1588
        29        2.0000           -0.5885592             -16.0155
        30        2.0000           -0.5719093             -15.5624
        31        2.0000           -0.5662682             -15.4089
        32        2.0000           -0.5572626             -15.1639
        33        2.0000           -0.5510522             -14.9949 (HOMO)
        34                         -0.4390711             -11.9477 (LUMO)
        35                         -0.4070321             -11.0759
        36                         -0.2913759              -7.9287
        37                         -0.1665854              -4.5330
        38                         -0.0832579              -2.2656
       ...                                ...                  ...
        66                          0.4506314              12.2623
      -------------------------------------------------------------
                  HL-Gap            0.1119811 Eh            3.0472 eV
             Fermi-level           -0.4950616 Eh          -13.4713 eV

 SCC (total)                   0 d,  0 h,  0 min,  0.006 sec
 SCC setup                      ...        0 min,  0.000 sec (  0.967%)
 Dispersion                     ...        0 min,  0.000 sec (  1.825%)
 classical contributions        ...        0 min,  0.000 sec (  0.296%)
 integral evaluation            ...        0 min,  0.001 sec ( 13.382%)
 iterations                     ...        0 min,  0.002 sec ( 37.235%)
 molecular gradient             ...        0 min,  0.003 sec ( 44.862%)
 printout                       ...        0 min,  0.000 sec (  1.205%)

         :::::::::::::::::::::::::::::::::::::::::::::::::::::
         ::                     SUMMARY                     ::
         :::::::::::::::::::::::::::::::::::::::::::::::::::::
         :: total energy             -35.277392976092 Eh    ::
         :: gradient norm              0.000657670884 Eh/a0 ::
         :: HOMO-LUMO gap              3.047161650402 eV    ::
         ::.................................................::
         :: SCC energy               -35.859014425412 Eh    ::
         :: -> isotropic ES            0.078834886974 Eh    ::
         :: -> anisotropic ES         -0.011020823335 Eh    ::
         :: -> anisotropic XC          0.024465315241 Eh    ::
         :: -> dispersion             -0.023983690261 Eh    ::
         :: repulsion energy           0.581621449320 Eh    ::
         :: add. restraining           0.000000000000 Eh    ::
         :: total charge               1.000000000000 e     ::
         :::::::::::::::::::::::::::::::::::::::::::::::::::::

           -------------------------------------------------
          |                Property Printout                |
           -------------------------------------------------

    * Orbital Energies and Occupations

         #    Occupation            Energy/Eh            Energy/eV
      -------------------------------------------------------------
         1        2.0000           -0.8622008             -23.4617
       ...           ...                  ...                  ...
        21        2.0000           -0.6317045             -17.1896
        22        2.0000           -0.6298803             -17.1399
        23        2.0000           -0.6182909             -16.8246
        24        2.0000           -0.6160340             -16.7631
        25        2.0000           -0.6068664             -16.5137
        26        2.0000           -0.6050881             -16.4653
        27        2.0000           -0.5973646             -16.2551
        28        2.0000           -0.5938258             -16.1588
        29        2.0000           -0.5885592             -16.0155
        30        2.0000           -0.5719093             -15.5624
        31        2.0000           -0.5662682             -15.4089
        32        2.0000           -0.5572626             -15.1639
        33        2.0000           -0.5510522             -14.9949 (HOMO)
        34                         -0.4390711             -11.9477 (LUMO)
        35                         -0.4070321             -11.0759
        36                         -0.2913759              -7.9287
        37                         -0.1665854              -4.5330
        38                         -0.0832579              -2.2656
        39                         -0.0637262              -1.7341
        40                         -0.0466343              -1.2690
        41                         -0.0380486              -1.0354
        42                         -0.0349127              -0.9500
        43                         -0.0265037              -0.7212
        44                         -0.0237635              -0.6466
       ...                                ...                  ...
        66                          0.4506314              12.2623
      -------------------------------------------------------------
                  HL-Gap            0.1119811 Eh            3.0472 eV
             Fermi-level           -0.4950616 Eh          -13.4713 eV

     #   Z          covCN         q      C6AA      α(0)
     1   6 C        3.751    -0.113    22.726     6.798
     2   6 C        3.799    -0.062    21.684     6.630
     3   6 C        3.801    -0.069    21.813     6.650
     4   6 C        3.759    -0.035    21.243     6.571
     5   7 N        2.750     0.083    19.810     6.610
     6   6 C        2.891     0.024    27.477     8.594
     7   6 C        2.912    -0.022    28.557     8.763
     8   6 C        2.930    -0.007    28.195     8.708
     9   6 C        2.964     0.033    27.265     8.565
    10   6 C        2.926     0.078    26.264     8.404
    11   6 C        3.758    -0.140    23.253     6.875
    12   6 C        3.759    -0.130    23.056     6.846
    13   1 H        0.925     0.030     2.581     2.512
    14   1 H        0.925     0.055     2.253     2.347
    15   1 H        0.925     0.053     2.283     2.363
    16   1 H        0.924     0.031     2.579     2.512
    17   1 H        0.924     0.060     2.196     2.318
    18   1 H        0.924     0.049     2.329     2.387
    19   1 H        0.924     0.076     2.024     2.225
    20   1 H        0.925     0.088     1.900     2.156
    21   1 H        0.924     0.090     1.875     2.141
    22   1 H        0.926     0.103     1.758     2.074
    23   1 H        0.926     0.097     1.809     2.103
    24   1 H        0.926     0.094     1.840     2.121
    25   1 H        0.924     0.095     1.831     2.116
    26   1 H        0.925     0.097     1.816     2.108
    27   1 H        0.925     0.090     1.877     2.143
    28   1 H        0.925     0.081     1.968     2.194
    29   1 H        0.925     0.085     1.924     2.169
    30   1 H        0.925     0.085     1.925     2.169

 Mol. C6AA /au·bohr⁶  :       7152.205675
 Mol. C8AA /au·bohr⁸  :     162445.934183
 Mol. α(0) /au        :        130.170063


Wiberg/Mayer (AO) data.
largest (>0.10) Wiberg bond orders for each atom

 ---------------------------------------------------------------------------
     #   Z sym  total        # sym  WBO       # sym  WBO       # sym  WBO
 ---------------------------------------------------------------------------
     1   6 C    3.993 --     2 C    1.021    15 H    0.986    14 H    0.984
                            13 H    0.982
     2   6 C    3.994 --     1 C    1.021     3 C    1.008    16 H    0.972
                            17 H    0.971
     3   6 C    3.985 --     2 C    1.008     4 C    0.978    18 H    0.972
                            19 H    0.966
     4   6 C    3.937 --     3 C    0.978     5 N    0.964    20 H    0.961
                            21 H    0.960
     5   7 N    3.745 --     6 C    1.304    10 C    1.299     4 C    0.964
     6   6 C    3.960 --     7 C    1.472     5 N    1.304    22 H    0.952
     7   6 C    3.985 --     6 C    1.472     8 C    1.411    23 H    0.961
     8   6 C    3.977 --     9 C    1.411     7 C    1.411    24 H    0.961
     9   6 C    3.984 --     8 C    1.411    10 C    1.358    12 C    1.041
    10   6 C    3.960 --     9 C    1.358     5 N    1.299    11 C    1.048
    11   6 C    3.980 --    10 C    1.048    26 H    0.968    27 H    0.957
                            25 H    0.940
    12   6 C    3.984 --     9 C    1.041    28 H    0.978    30 H    0.959
                            29 H    0.953
    13   1 H    0.999 --     1 C    0.982
    14   1 H    0.997 --     1 C    0.984
    15   1 H    0.997 --     1 C    0.986
    16   1 H    0.999 --     2 C    0.972
    17   1 H    0.996 --     2 C    0.971
    18   1 H    0.998 --     3 C    0.972
    19   1 H    0.993 --     3 C    0.966
    20   1 H    0.992 --     4 C    0.961
    21   1 H    0.991 --     4 C    0.960
    22   1 H    0.989 --     6 C    0.952
    23   1 H    0.990 --     7 C    0.961
    24   1 H    0.991 --     8 C    0.961
    25   1 H    0.991 --    11 C    0.940
    26   1 H    0.990 --    11 C    0.968
    27   1 H    0.992 --    11 C    0.957
    28   1 H    0.993 --    12 C    0.978
    29   1 H    0.993 --    12 C    0.953
    30   1 H    0.992 --    12 C    0.959
 ---------------------------------------------------------------------------

Topologies differ in total number of bonds
Writing topology from bond orders to xtbtopo.mol

molecular dipole:
                 x           y           z       tot (Debye)
 q only:       -2.921       5.854       1.355
   full:       -2.950       5.826       1.279      16.912
molecular quadrupole (traceless):
                xx          xy          yy          xz          yz          zz
 q only:       -1.991     -30.112      32.579      -7.360      16.985     -30.587
  q+dip:       -0.562     -29.105      31.915      -7.571      16.946     -31.353
   full:       -1.919     -29.451      31.650      -7.098      15.826     -29.731

           -------------------------------------------------
          |                Geometry Summary                 |
           -------------------------------------------------

      molecular mass/u    :      164.2677316
   center of mass at/Å    :       -1.3386657       2.6607043       0.8293417
  moments of inertia/u·Å² :        0.3009447E+03   0.8339900E+03   0.1026340E+04
rotational constants/cm⁻¹ :        0.5601571E-01   0.2021323E-01   0.1642500E-01

 * 28 selected distances

     #   Z          #   Z                                           value/Å
     1   6 C        2   6 C                                       1.5241551
     2   6 C        3   6 C                                       1.5294201
     3   6 C        4   6 C                                       1.5369660 (max)
     4   6 C        5   7 N                                       1.4567981
     5   7 N        6   6 C                                       1.3423118
     6   6 C        7   6 C                                       1.3736921
     7   6 C        8   6 C                                       1.3866081
     8   6 C        9   6 C                                       1.3904293
     5   7 N       10   6 C                                       1.3490251
     9   6 C       10   6 C                                       1.4035195
     1   6 C       13   1 H                                       1.0879587
     1   6 C       14   1 H                                       1.0860809
     1   6 C       15   1 H                                       1.0866797
     2   6 C       16   1 H                                       1.0936746
     2   6 C       17   1 H                                       1.0908387
     3   6 C       18   1 H                                       1.0914099
     3   6 C       19   1 H                                       1.0906474
     4   6 C       20   1 H                                       1.0893360
     4   6 C       21   1 H                                       1.0904829
     6   6 C       22   1 H                                       1.0784541
     7   6 C       23   1 H                                       1.0773100 (min)
     8   6 C       24   1 H                                       1.0786966
    11   6 C       25   1 H                                       1.0918054
    11   6 C       26   1 H                                       1.0846954
    11   6 C       27   1 H                                       1.0866056
    12   6 C       28   1 H                                       1.0857922
    12   6 C       29   1 H                                       1.0891698
    12   6 C       30   1 H                                       1.0883111

 * 3 distinct bonds (by element types)

   Z      Z             #   av. dist./Å        max./Å        min./Å
   1 H    6 C          18     1.0871083     1.0936746     1.0773100
   6 C    6 C           7     1.4492557     1.5369660     1.3736921
   6 C    7 N           3     1.3827117     1.4567981     1.3423118


optimized geometry written to: xtbopt.xyz


           -------------------------------------------------
          | TOTAL ENERGY              -35.277392976092 Eh   |
          | GRADIENT NORM               0.000657670884 Eh/α |
          | HOMO-LUMO GAP               3.047161650402 eV   |
           -------------------------------------------------

------------------------------------------------------------------------
 * finished run on 2024/12/20 at 02:12:48.957     
------------------------------------------------------------------------
 total:
 * wall-time:     0 d,  0 h,  0 min,  0.208 sec
 *  cpu-time:     0 d,  0 h,  0 min,  1.639 sec
 * ratio c/w:     7.873 speedup
 SCF:
 * wall-time:     0 d,  0 h,  0 min,  0.025 sec
 *  cpu-time:     0 d,  0 h,  0 min,  0.192 sec
 * ratio c/w:     7.563 speedup
 ANC optimizer:
 * wall-time:     0 d,  0 h,  0 min,  0.167 sec
 *  cpu-time:     0 d,  0 h,  0 min,  1.331 sec
 * ratio c/w:     7.987 speedup

