26
 energy: -26.683345802019 gnorm: 0.054509072452 xtb: 6.7.1 (edcfbbe)
C            0.96461000000000        0.03944000000000        0.42189000000000
C            0.45101000000000        1.40800000000000        0.00468000000000
C            1.02157000000000        1.95909000000000       -1.30496000000000
N            0.42978000000000        1.39244000000000       -2.61066000000000
C           -1.10858000000000        1.42148000000000       -2.66814000000000
C           -1.70382000000000        2.80572000000000       -2.46778000000000
C            1.01052000000000        2.21983000000000       -3.77222000000000
C            0.88410000000000       -0.05174000000000       -2.84444000000000
H            0.46062000000000       -0.76651000000000       -0.11371000000000
H            0.76626000000000       -0.12107000000000        1.48726000000000
H            2.04388000000000       -0.04926000000000        0.26548000000000
H           -0.64250000000000        1.41558000000000        0.01596000000000
H            0.75509000000000        2.10892000000000        0.79380000000000
H            0.84465000000000        3.04084000000000       -1.33322000000000
H            2.10727000000000        1.80964000000000       -1.35149000000000
H           -1.39874000000000        1.02727000000000       -3.64944000000000
H           -1.48051000000000        0.72767000000000       -1.90707000000000
H           -1.39930000000000        3.50159000000000       -3.25411000000000
H           -2.79661000000000        2.73940000000000       -2.50361000000000
H           -1.43853000000000        3.23626000000000       -1.49878000000000
H            2.09363000000000        2.06391000000000       -3.79461000000000
H            0.55480000000000        1.87740000000000       -4.70595000000000
H            0.79115000000000        3.27681000000000       -3.60202000000000
H            1.95934000000000       -0.11732000000000       -2.65646000000000
H            0.32420000000000       -0.71342000000000       -2.18380000000000
H            0.66351000000000       -0.31896000000000       -3.88304000000000
26
 energy: -26.688877025861 gnorm: 0.026894029579 xtb: 6.7.1 (edcfbbe)
C            0.96206984677580        0.03150089427348        0.41762412422464
C            0.45118976725083        1.40495448287953       -0.00261448635553
C            0.99595083872878        1.94885807387035       -1.32191773924530
N            0.43240882794378        1.39237310502037       -2.61661051833066
C           -1.08054616878244        1.43282536210993       -2.66425288619501
C           -1.69106084680399        2.80738619185627       -2.46733990984329
C            0.99954822246052        2.20887581576931       -3.74667946320414
C            0.87092091194813       -0.02583276741648       -2.83848254357494
H            0.46845964403110       -0.78228815940691       -0.10837830424848
H            0.76988139348490       -0.11647615951296        1.47883725218978
H            2.03619808193153       -0.05198937253915        0.26500055604889
H           -0.63904015846434        1.41564309875773        0.00425108984530
H            0.76572502856038        2.12413966785615        0.76146124177170
H            0.82402174608972        3.02732681000802       -1.35265939044032
H            2.07575149075488        1.78649871616964       -1.36221008272233
H           -1.36948810258859        1.03671468581294       -3.64073270296562
H           -1.44916260729429        0.74423572504921       -1.90189212082959
H           -1.40134073917955        3.50156044831765       -3.25308427195855
H           -2.77601764248731        2.71372556778958       -2.50649320938014
H           -1.43873839255937        3.23646479838310       -1.50032257661221
H            2.07682009910940        2.06275200163774       -3.78446296926938
H            0.55663560701093        1.88137964296220       -4.68433375116991
H            0.78782846982656        3.26326196306872       -3.59241395386455
H            1.93860642568358       -0.10906040521342       -2.65384374345682
H            0.32991243829642       -0.69371688853662       -2.17597039705053
H            0.66086581827262       -0.30810329896638       -3.86891924336303
26
 energy: -26.690106825943 gnorm: 0.003666693527 xtb: 6.7.1 (edcfbbe)
C            0.96179990102797        0.02829204801904        0.41191524791209
C            0.44625141134053        1.39923073588823       -0.01616944584588
C            0.98916976799321        1.94040697483728       -1.33931581623411
N            0.43325183911858        1.39401517121893       -2.61934126562676
C           -1.05997441763591        1.43513319167898       -2.66435838825257
C           -1.68036661302061        2.80690282473585       -2.46926291734780
C            0.99224277598730        2.19788794406455       -3.72291577900447
C            0.85902285417937       -0.00125968573612       -2.83213067044253
H            0.47173135306240       -0.78913456938081       -0.10746309740397
H            0.76926242757438       -0.10746430304096        1.47158245052038
H            2.03445240651012       -0.05063838601985        0.26056087534804
H           -0.64300993418143        1.40941548654035        0.00033323415586
H            0.77338669612256        2.12278999845272        0.73421356767287
H            0.81299302009072        3.01602879866145       -1.36292364572832
H            2.06884670477456        1.77936143386131       -1.36755132201932
H           -1.36033930253136        1.03799502887465       -3.63582398359721
H           -1.43102447661775        0.75499689039310       -1.89732578448960
H           -1.40158214495438        3.50282291464244       -3.25379828372287
H           -2.76057393283430        2.69222962024766       -2.51066334569972
H           -1.43797787201918        3.23814282171132       -1.50344627889958
H            2.06977354396230        2.06332264915691       -3.77197252633151
H            0.55920819397095        1.88224184499786       -4.66874320408698
H            0.78343465760786        3.25325618572516       -3.57917540079805
H            1.92653477700585       -0.09919489145302       -2.65579559085739
H            0.33301779499787       -0.67205000840356       -2.16094988955400
H            0.64786856846839       -0.30172071967350       -3.85591873966662
26
 energy: -26.690152696367 gnorm: 0.001409969061 xtb: 6.7.1 (edcfbbe)
C            0.96247199666823        0.02702249829596        0.41201325180145
C            0.44628077317585        1.39813098298576       -0.01516638450795
C            0.98768720124255        1.94111574434336       -1.33960070160513
N            0.43481972413812        1.39390215167206       -2.62114919128902
C           -1.05909523320016        1.43573740184147       -2.66402085280221
C           -1.68201240796183        2.80812748976857       -2.47083538177580
C            0.99381056848859        2.19997902885935       -3.72538076380136
C            0.85926732814904       -0.00370170863402       -2.83123609512347
H            0.47243554291410       -0.79165946729116       -0.10642574460209
H            0.77012254789870       -0.10843165449081        1.47237035159741
H            2.03559891640634       -0.05118969243825        0.25962276556218
H           -0.64293780710618        1.40737193457372        0.00270350957519
H            0.77369801435778        2.12053097114815        0.73601510249626
H            0.81097991875576        3.01738153815837       -1.36009049711846
H            2.06795092211584        1.78204405464690       -1.36636284927794
H           -1.36149833785463        1.03741546239503       -3.63488131000153
H           -1.43151518866066        0.75694941786922       -1.89572446261352
H           -1.40294109980061        3.50418954303508       -3.25586288902377
H           -2.76234495791447        2.69191990267553       -2.51272033905642
H           -1.43982663619689        3.24087096220000       -1.50501804256695
H            2.07290755826525        2.06777495009824       -3.77180054678308
H            0.56325595187900        1.88403053092156       -4.67373379867043
H            0.78280186001724        3.25622392845529       -3.58109884883501
H            1.92928781544797       -0.10174941557062       -2.66197777034400
H            0.33638451321495       -0.67170255050248       -2.15320946235841
H            0.63981051556013       -0.30927400501629       -3.85286904887596
26
 energy: -26.690177140680 gnorm: 0.001986556299 xtb: 6.7.1 (edcfbbe)
C            0.96467343030699        0.02407262690285        0.41283957630437
C            0.44655995665834        1.39476187085963       -0.01403314924142
C            0.98657841852354        1.94121574301704       -1.33966617335855
N            0.43493522058779        1.39503695739164       -2.62164503177797
C           -1.05889420979011        1.43683476074165       -2.66549394528248
C           -1.68413741476503        2.81050967571285       -2.47541400427363
C            0.99603423207974        2.20098953446810       -3.72601982718745
C            0.85859153762062       -0.00354524522835       -2.83011505878402
H            0.47427117390520       -0.79679971251429       -0.10260381961351
H            0.77386926558072       -0.11012441631794        1.47419170147051
H            2.03798901332865       -0.05358345873486        0.25817173412607
H           -0.64262917224420        1.40308068988148        0.00627362104391
H            0.77533241274945        2.11632455629985        0.73702458515125
H            0.80636093451655        3.01757873282520       -1.35639407470995
H            2.06800286461729        1.78679717800478       -1.36442759117081
H           -1.36393119532248        1.03614184962110       -3.63514316900423
H           -1.43247217932993        0.76102012189528       -1.89453892296412
H           -1.40431017905308        3.50610641155792       -3.26114027196897
H           -2.76408582625717        2.69156801696894       -2.51887921732479
H           -1.44344978318143        3.24558987846396       -1.50968519127452
H            2.07716766938455        2.07401475878597       -3.76732304615508
H            0.57101801455398        1.88233358643585       -4.67717469828263
H            0.77982597957568        3.25774106093692       -3.58329825813432
H            1.93274956336790       -0.09991012891960       -2.67819366856852
H            0.34649450540888       -0.66678277872983       -2.13757837366055
H            0.62085576717759       -0.31796227032616       -3.84617372535860
26
 energy: -26.690193918963 gnorm: 0.001549191840 xtb: 6.7.1 (edcfbbe)
C            0.96661711772103        0.02254008112278        0.41385403235919
C            0.44674326986277        1.39248298505553       -0.01319297541705
C            0.98526865384360        1.94058663951333       -1.33902086065474
N            0.43440683617761        1.39549926142391       -2.62122422762891
C           -1.05903267912723        1.43791273978650       -2.66631069914761
C           -1.68453551711892        2.81185782119459       -2.47884099562436
C            0.99651989938329        2.20147661649357       -3.72468314525457
C            0.85745532788281       -0.00283035419814       -2.82976221955781
H            0.47505139402162       -0.79920940110225       -0.09893717479090
H            0.77856779483934       -0.11054697826100        1.47577262230467
H            2.03944160074653       -0.05524135727104        0.25672347430038
H           -0.64241735876870        1.40013952506607        0.00775874179915
H            0.77579507533391        2.11421755377255        0.73759641036381
H            0.80303567668354        3.01655770110256       -1.35474637956238
H            2.06681564686042        1.78786513591714       -1.36457695344904
H           -1.36290732489152        1.03642013569634       -3.63574139872716
H           -1.43323739680876        0.76307683070255       -1.89497565566029
H           -1.40363918972178        3.50631556039723       -3.26500520639347
H           -2.76422599891608        2.69283015522270       -2.52385972912716
H           -1.44531119315099        3.24790249349673       -1.51336397225652
H            2.07779657901883        2.07734967836409       -3.76224445675155
H            0.57553973104274        1.87927073640601       -4.67595718567053
H            0.77688466410022        3.25766344037277       -3.58484491493850
H            1.93325681489602       -0.09609144251948       -2.69078177938570
H            0.35553512949621       -0.66428643976347       -2.12856731807500
H            0.60797544659353       -0.32074911799160       -3.84150803305393
26
 energy: -26.690207984788 gnorm: 0.000733374620 xtb: 6.7.1 (edcfbbe)
C            0.96969525479825        0.02064273741805        0.41555364396060
C            0.44668560309482        1.38938998498776       -0.01173281447980
C            0.98371302100091        1.93960606901416       -1.33659656945922
N            0.43286609369774        1.39630549162934       -2.61980152629913
C           -1.06075166787689        1.43938189024668       -2.66800882939974
C           -1.68460671908868        2.81362780494813       -2.48369311793665
C            0.99742923524472        2.20159309252620       -3.72252188461122
C            0.85602774691995       -0.00156289728222       -2.82994010534560
H            0.47515649357795       -0.80285523599523       -0.09154126187062
H            0.78870774200441       -0.10982001914713        1.47889348097024
H            2.04138682909295       -0.05717833921557        0.25218466578532
H           -0.64251044284102        1.39480081966296        0.00869730413269
H            0.77375588660428        2.11233663781210        0.73895118845643
H            0.79956955105328        3.01498368073223       -1.35150149384725
H            2.06520738323036        1.78783516518722       -1.36342878814063
H           -1.36219720100493        1.03725108249485       -3.63767822356897
H           -1.43594683670578        0.76525601365043       -1.89690185548940
H           -1.40187323153790        3.50610943666591       -3.27076034763133
H           -2.76432991110586        2.69592808862805       -2.53102526454142
H           -1.44741764340967        3.25109553725365       -1.51861641515171
H            2.07903227421256        2.08323719028858       -3.75356898873043
H            0.58367100873520        1.87406411103883       -4.67460137119240
H            0.77126900906397        3.25607499357060       -3.58669102846764
H            1.93433075008298       -0.09017795177473       -2.71282541282181
H            0.37148360888519       -0.65979836502766       -2.11491749350456
H            0.58704616227127       -0.32511701931320       -3.83436749081578
26
 energy: -26.690210536481 gnorm: 0.000384180372 xtb: 6.7.1 (edcfbbe)
C            0.97027626166647        0.02077018339379        0.41598299589287
C            0.44545903551863        1.38867966987909       -0.01226102258664
C            0.98325225890193        1.93889884632978       -1.33669845775683
N            0.43324944116466        1.39598067251156       -2.62042411468563
C           -1.06027831504322        1.43990069999243       -2.66844443306746
C           -1.68429600450149        2.81394563662954       -2.48409255353183
C            0.99763313918081        2.20253197569870       -3.72169787692985
C            0.85547940101228       -0.00193295756171       -2.82952361636909
H            0.47393853874648       -0.80340750914349       -0.08815014937998
H            0.79287086461408       -0.10811158075661        1.48006016730791
H            2.04141158107151       -0.05736455426886        0.24902948676886
H           -0.64380797945833        1.39243146654839        0.00754487000305
H            0.77078421505135        2.11202616177970        0.73874870086581
H            0.80005282374904        3.01440365507086       -1.35177472366938
H            2.06460720177831        1.78616937927734       -1.36326897735863
H           -1.36139155768494        1.03824314051643       -3.63841368437534
H           -1.43584828931051        0.76520552309444       -1.89797933594316
H           -1.40169974812945        3.50658178364978       -3.27109358959794
H           -2.76416234075457        2.69660611772409       -2.53136110170697
H           -1.44711174467541        3.25147219399305       -1.51909184497730
H            2.07945831375154        2.08606540297054       -3.75083002203292
H            0.58639392848270        1.87331685227097       -4.67425638346050
H            0.76937225431173        3.25687263329075       -3.58744248411017
H            1.93437598367847       -0.08931968224345       -2.71900903812041
H            0.37629733456176       -0.65936178493939       -2.11040281228532
H            0.58108340231624       -0.32759392570776       -3.83158999889317
