27
 energy: -43.416698481550 gnorm: 0.068343673827 xtb: 6.7.1 (edcfbbe)
F            1.33414000000000       -0.28847000000000        0.19110000000000
C            2.63698000000000        0.08333000000000        0.07172000000000
C            2.69681000000000        1.58220000000000       -0.15159000000000
N            2.31350000000000        2.41501000000000        1.03562000000000
C            1.52081000000000        1.94931000000000        2.03406000000000
C            1.16528000000000        2.76806000000000        3.10208000000000
C            1.60220000000000        4.08587000000000        3.13421000000000
C            2.38512000000000        4.57061000000000        2.08983000000000
C            2.73255000000000        3.71101000000000        1.05026000000000
C            2.81314000000000        5.98730000000000        2.10725000000000
O            2.64728000000000        6.71733000000000        3.06693000000000
O            3.36015000000000        6.31943000000000        0.91431000000000
C            3.76877000000000        7.69448000000000        0.78253000000000
C            2.59312000000000        8.55027000000000        0.34855000000000
H            3.16749000000000       -0.22422000000000        0.97708000000000
H            3.05255000000000       -0.45234000000000       -0.78619000000000
H            3.72368000000000        1.86426000000000       -0.41064000000000
H            2.01513000000000        1.88729000000000       -0.95265000000000
H            1.15969000000000        0.92649000000000        1.99265000000000
H            0.53680000000000        2.38146000000000        3.90306000000000
H            1.31715000000000        4.73462000000000        3.96366000000000
H            3.33819000000000        4.03595000000000        0.20863000000000
H            4.21576000000000        8.06496000000000        1.71213000000000
H            4.54836000000000        7.72208000000000        0.01432000000000
H            1.80138000000000        8.54346000000000        1.10439000000000
H            2.90670000000000        9.58468000000000        0.18206000000000
H            2.15380000000000        8.16061000000000       -0.57563000000000
27
 energy: -43.421341296625 gnorm: 0.026781100599 xtb: 6.7.1 (edcfbbe)
F            1.32813764298536       -0.30788717110225        0.19826095921994
C            2.62701173116682        0.09563113084085        0.08556480630784
C            2.69161683935846        1.59788414431893       -0.13361724293388
N            2.31125204538544        2.41962213400754        1.04149447500563
C            1.53284786083306        1.95008928054878        2.03086092981864
C            1.16956458168927        2.75943260399893        3.09343161192388
C            1.60027213017229        4.07643194791929        3.13086573211214
C            2.38436988848224        4.55913126491714        2.08430941790275
C            2.72698005894601        3.70037625661014        1.05423441111574
C            2.81511265637189        5.99165339836407        2.09298121568194
O            2.65634600657714        6.70715752269943        3.04282207467063
O            3.37425838394969        6.33103324133138        0.92664417202501
C            3.76809516655731        7.70529710183428        0.77725713430993
C            2.58560276111873        8.55512222897403        0.34720784223187
H            3.15741127414572       -0.21742132340180        0.99107848447510
H            3.05079942055073       -0.42321254611322       -0.78074190973416
H            3.71280768376134        1.87184303398095       -0.41018673697309
H            2.01322365449784        1.87410361489684       -0.94764022724011
H            1.17479580522980        0.93191766949919        1.97648921406541
H            0.54586221115561        2.36404523846617        3.88317006649699
H            1.32873393719828        4.73028853205222        3.95148821193122
H            3.33371388334217        4.03164989867642        0.22241795162926
H            4.18986324850443        8.06445696738046        1.72119622971643
H            4.54948641707315        7.70363240213333        0.01184315696047
H            1.80969686538393        8.55390846494658        1.11285031174873
H            2.90925241484042        9.57946380315199        0.18436016828745
H            2.15941543072288        8.16938915906832       -0.57891246075574
27
 energy: -43.422167343416 gnorm: 0.010312621108 xtb: 6.7.1 (edcfbbe)
F            1.32913294999668       -0.32315246570599        0.20072978552773
C            2.62582986867435        0.09882695132093        0.09616331318549
C            2.68105669074127        1.60465242662103       -0.12237614052007
N            2.30697691275109        2.42230469503177        1.03848437332108
C            1.53677490502815        1.95038983133917        2.02398425825733
C            1.17373742652066        2.75314647706426        3.08870841501263
C            1.60054085483278        4.07066809773825        3.12946035969227
C            2.38406888440079        4.55121675381142        2.07959355832903
C            2.72344727906259        3.69445375413703        1.05195515735492
C            2.82299472070506        5.99481070189290        2.08887200753583
O            2.65611051141615        6.70561891767961        3.03575031675696
O            3.38104361406805        6.33411293734384        0.93659263232415
C            3.76692428906859        7.71113160076125        0.77698497328453
C            2.58380390152646        8.56094628967092        0.34516341805015
H            3.15060210553350       -0.21511163808681        1.00528443749116
H            3.05655884184717       -0.40890102194082       -0.77360316744663
H            3.69842165070706        1.87249272728068       -0.41348175669058
H            2.00260854703820        1.86152606139168       -0.94429950131195
H            1.18523564182535        0.93228966375609        1.96424176974534
H            0.55473631424494        2.34885133734757        3.87311427669799
H            1.33815554059573        4.73162088533636        3.94274360268982
H            3.33202489371343        4.03575550428838        0.22758632241897
H            4.17714917513816        8.07104456998679        1.72488591856727
H            4.54561711991665        7.69331333355889        0.01206531772325
H            1.81844692658972        8.56405359946842        1.11734204164604
H            2.91558609021444        9.58058168404394        0.18327265138845
H            2.15894434384296        8.17839632486244       -0.57948834103117
27
 energy: -43.422288136231 gnorm: 0.004628230607 xtb: 6.7.1 (edcfbbe)
F            1.33299071656360       -0.33246908806697        0.20272239975152
C            2.62813633660650        0.09698238854779        0.10036024686100
C            2.67419985221341        1.60401623230776       -0.12258120502305
N            2.30527132640044        2.42210201431288        1.03408904473737
C            1.53793432635909        1.94947988729381        2.02189587724464
C            1.17687803006199        2.75050107682876        3.08922447765334
C            1.60288352922745        4.06823212851160        3.13037172672629
C            2.38360825753517        4.54893448888708        2.07803279946881
C            2.72227356550104        3.69409816978796        1.04838258576758
C            2.81841740677116        5.99823032988916        2.08661997398430
O            2.64855475654362        6.70488598815301        3.03788252741177
O            3.37969431672538        6.33556118986072        0.93920188237136
C            3.76858484204214        7.71371511579474        0.77795440477418
C            2.58607906650624        8.56479091109508        0.34517621807106
H            3.15050189183324       -0.21178048927609        1.01229890696321
H            3.06302781199245       -0.40946790777166       -0.76717923099710
H            3.68882754155570        1.87268637541967       -0.42387995786758
H            1.99067375252785        1.85168005852911       -0.94375578706752
H            1.18664792708039        0.93135794974185        1.96074752932825
H            0.56063447300673        2.34192114330531        3.87379559007076
H            1.34443396461776        4.73244386097811        3.94206037473440
H            3.32992948146988        4.04119869469339        0.22535517663814
H            4.17681381844466        8.07530476341451        1.72565476402713
H            4.54653882321700        7.69226294413500        0.01354002267408
H            1.82199371762377        8.57156703974509        1.11826509697293
H            2.92209580637480        9.58328023369389        0.18214707481442
H            2.15890466119853        8.18352450018843       -0.57865252009129
27
 energy: -43.422372762526 gnorm: 0.003257732558 xtb: 6.7.1 (edcfbbe)
F            1.34168400508691       -0.34707716184619        0.20760112525700
C            2.63365165389617        0.09346012122993        0.10590398202910
C            2.66356558486183        1.60123964813585       -0.12649927564767
N            2.30228232185695        2.42126367382361        1.02757421037535
C            1.53800616880019        1.94871797815178        2.01968228190424
C            1.18158149434703        2.74781587683837        3.09077787459875
C            1.60602988232437        4.06592259298409        3.13075662293197
C            2.38190281132413        4.54702470983862        2.07493809360410
C            2.71927536015632        3.69451077063340        1.04216062854028
C            2.81586608513353        6.00044759211406        2.08570946141567
O            2.63434531503127        6.70210355938299        3.04034155582844
O            3.37826740844088        6.33744992542878        0.94214532747846
C            3.77057051352569        7.71743891517823        0.78034595761756
C            2.59032811736550        8.57119756112414        0.34600120043899
H            3.15467947165719       -0.20378132335054        1.02200943856877
H            3.07504751640644       -0.41405623942931       -0.75662452225668
H            3.67254180945531        1.87557233470266       -0.44419009266380
H            1.96846572240758        1.83540828178074       -0.94259023439933
H            1.18544605959796        0.93082217576912        1.95753420541143
H            0.56971857421135        2.33449417382262        3.87709229062228
H            1.35400450805098        4.73297427685333        3.94262821988213
H            3.32510652761661        4.04711278255549        0.21960984603523
H            4.17871044366573        8.07966075294322        1.72736784263069
H            4.54819711997746        7.69346225878884        0.01660815682834
H            1.82639039685204        8.58307296844004        1.11933510501506
H            2.93087032991574        9.58851453928859        0.18021479103013
H            2.15999479803487        8.19026725481757       -0.57670409307644
27
 energy: -43.422421979159 gnorm: 0.004540316716 xtb: 6.7.1 (edcfbbe)
F            1.35174317425512       -0.35989249616404        0.21459362640383
C            2.63984460724361        0.09146984075907        0.11044100873882
C            2.65382864836352        1.59872790582696       -0.13167384674009
N            2.29854009513242        2.42074635583898        1.02272878886251
C            1.53689349347780        1.94845372154584        2.01810273762605
C            1.18589852051974        2.74596678688414        3.09225005496744
C            1.61070660741616        4.06381982555443        3.13151944518847
C            2.38075974824066        4.54597901118566        2.07218783766927
C            2.71549471318015        3.69484506955396        1.03697397795181
C            2.81046091847310        6.00201335378271        2.08326193837841
O            2.62370945805494        6.69963612809882        3.04008806273674
O            3.37663256260805        6.33929673157860        0.94269425317623
C            3.77232171448620        7.71997342701144        0.78301840081508
C            2.59464332095686        8.57612218527796        0.34721775498612
H            3.16264698514022       -0.19387833774897        1.02925264868116
H            3.08653783951801       -0.41817405633962       -0.74777835404881
H            3.65638586230961        1.88131148376008       -0.46336441430437
H            1.94632910428041        1.82135243082469       -0.94066881206872
H            1.18308374915141        0.93078403867890        1.95580674683811
H            0.57760871979770        2.33058435726315        3.88060943541260
H            1.36202154509374        4.73189850148951        3.94394373345791
H            3.31841323700490        4.04916140551538        0.21296231272854
H            4.18026105035865        8.08048727657998        1.73073167733850
H            4.55117328857819        7.69529045091363        0.02056154960691
H            1.82986165483722        8.59174089105925        1.11990117834127
H            2.93784705316204        9.59247506145936        0.17933029690782
H            2.16288232835957        8.19484864981016       -0.57496203965154
27
 energy: -43.422505134425 gnorm: 0.005257520185 xtb: 6.7.1 (edcfbbe)
F            1.37291302300591       -0.38354191297049        0.23043058168800
C            2.65247770674889        0.09005059211593        0.11842576740188
C            2.63526506313311        1.59519235484829       -0.14150786538888
N            2.29031264774428        2.42053422073118        1.01508707279905
C            1.53354657362634        1.94837003799485        2.01520809500828
C            1.19232558065907        2.74344227895088        3.09399867773659
C            1.61813266041109        4.06090773242771        3.13166516755539
C            2.37892086545010        4.54482369293187        2.06686763396103
C            2.70760798567377        3.69524029755872        1.02811374165838
C            2.80481956158152        6.00280191550489        2.07985654674020
O            2.60751039040615        6.69655949260069        3.03711340465022
O            3.37676294837648        6.34187294628841        0.94327586856154
C            3.77521354243554        7.72360228577558        0.78845390014794
C            2.60174409780894        8.58273740428741        0.34930804948806
H            3.18178784932332       -0.17279381668690        1.04059204971085
H            3.10800310922319       -0.42307250898581       -0.73308900159546
H            3.62455131163527        1.89506912856157       -0.49848351136126
H            1.90385867356436        1.79645150103373       -0.93561479368408
H            1.17684250059225        0.93146765385433        1.95235912043259
H            0.59032077148160        2.32628659994265        3.88642659782452
H            1.37663236460853        4.72841971746912        3.94715108285938
H            3.30526844795427        4.04972189699922        0.20046636949093
H            4.18128828055977        8.08033920111103        1.73855548180539
H            4.55751456874382        7.69931468152218        0.02916179650885
H            1.83505585744989        8.60385383321565        1.12027461969925
H            2.94822570974378        9.59749113354803        0.17805472158042
H            2.16962790805878        8.19989763936933       -0.57242117527899
27
 energy: -43.422610672571 gnorm: 0.005529248122 xtb: 6.7.1 (edcfbbe)
F            1.40648978141166       -0.41701207116952        0.25614568819594
C            2.67207180592132        0.09087625868601        0.12866406065306
C            2.60816315731689        1.59180774873126       -0.15418829174607
N            2.27647627338871        2.42128568122414        1.00561997569730
C            1.52717925379300        1.94834858565118        2.01132628692711
C            1.19978456591037        2.74025816396775        3.09616764301998
C            1.62816395563558        4.05699638700087        3.13206826792940
C            2.37644690470006        4.54368744325985        2.05993736730425
C            2.69497478602205        3.69570409364160        1.01659491586003
C            2.79750164058634        6.00289558825411        2.07445679160456
O            2.58973379133921        6.69471341321471        3.03014260658472
O            3.37825632921349        6.34421912869212        0.94271103933210
C            3.77946198152310        7.72644071113013        0.79540249771634
C            2.61132210101109        8.58958606228455        0.35225687616148
H            3.21419914364109       -0.14078084258766        1.05278260663869
H            3.13806486859316       -0.42482060629399       -0.71596189502189
H            3.57716141633769        1.91664126635943       -0.54575962609069
H            1.84413511708098        1.76267827159287       -0.92631775866223
H            1.16748501036295        0.93230808603308        1.94806855581053
H            0.60612180622358        2.32245879682638        3.89443610781280
H            1.39545260186348        4.72234208003586        3.95207456165526
H            3.28504235134456        4.04869909826166        0.18301170429901
H            4.18169512556230        8.07749480800771        1.74952807210122
H            4.56694381205997        7.70359652418191        0.04079155596315
H            1.84267586994757        8.61734150819129        1.12130365691307
H            2.96224088791740        9.60210262793818        0.17756077340453
H            2.17928566129241        8.20517118688461       -0.56909404006350
27
 energy: -43.422726207719 gnorm: 0.006238533304 xtb: 6.7.1 (edcfbbe)
F            1.45071254332554       -0.45529137073912        0.29217740035956
C            2.69714008406072        0.09499243732384        0.13979534077804
C            2.57507794710946        1.58890599437220       -0.16727857690424
N            2.25769984369506        2.42301034472866        0.99515960944366
C            1.51821954025749        1.94812364123280        2.00696101742763
C            1.20671302113537        2.73678782389401        3.09822336491636
C            1.63822931073668        4.05280237613177        3.13192114601602
C            2.37277640022233        4.54279819673265        2.05182426591304
C            2.67793195197134        3.69633456516042        1.00322727584253
C            2.79098589436041        6.00151939744950        2.06786622714314
O            2.57331237625414        6.69484958396193        3.01948495753316
O            3.38158350748515        6.34531088996185        0.94081873548225
C            3.78476301591470        7.72734543259010        0.80267963537072
C            2.62223140691197        8.59550265082458        0.35594521570416
H            3.25829498263396       -0.10051469010016        1.06229789538814
H            3.17179984395704       -0.42073538384471       -0.70013115310481
H            3.51798351156792        1.94174721260441       -0.59814584655175
H            1.77609767661365        1.72310194730811       -0.91285295877875
H            1.15622090354516        0.93278115892499        1.94353349546983
H            0.62313248584928        2.31936661535866        3.90385297243380
H            1.41642601233693        4.71429454937259        3.95808741761454
H            3.25847191047136        4.04718570673248        0.16209046526588
H            4.18155963998618        8.07195581801453        1.76170726312323
H            4.57804941377118        7.70709579507135        0.05350886962727
H            1.85207618587365        8.62944564149930        1.12321546305853
H            2.97847509380976        9.60555334642668        0.17922100351199
H            2.19056549614358        8.21077031900673       -0.56546050208371
27
 energy: -43.422867350390 gnorm: 0.006011371116 xtb: 6.7.1 (edcfbbe)
F            1.49225129388185       -0.48195139123117        0.32785906120648
C            2.71950472925822        0.10271180688204        0.14692569117488
C            2.54801810894117        1.58749009251861       -0.17496665103271
N            2.23951260405687        2.42527506294364        0.98783747344518
C            1.50925318717371        1.94769874049689        2.00419159100462
C            1.21020787461712        2.73434473187787        3.09967807134874
C            1.64459798387018        4.04981245195976        3.13150443495122
C            2.36855106494129        4.54265626524141        2.04548704286016
C            2.66111483065039        3.69702444230229        0.99277262591952
C            2.78688247645066        5.99872741433638        2.06162986728713
O            2.56573095354702        6.69760907390777        3.00770022934190
O            3.38534633224410        6.34399186802195        0.93719090161825
C            3.78938530976034        7.72466652614062        0.80709517812442
C            2.63066790826644        8.59760659200657        0.35927803888885
H            3.30029589034319       -0.06515799358999        1.06258932576280
H            3.19560182927064       -0.40943606358682       -0.69405193946010
H            3.46704239316169        1.95998636613133       -0.63412820734012
H            1.72715324187485        1.69140725465615       -0.89852249818401
H            1.14735007466283        0.93234087349891        1.94149262351242
H            0.63483961551764        2.31872388623234        3.91163744355848
H            1.43124379941113        4.70695749875930        3.96295471167994
H            3.23294987173089        4.04583578609483        0.14483999180744
H            4.18116870283445        8.06410962605054        1.77015818164897
H            4.58683435513429        7.70754985088579        0.06201392045260
H            1.86007265720578        8.63404920248046        1.12560213990858
H            2.99129307997770        9.60598776871897        0.18403069256718
H            2.19965983121559        8.21502226626376       -0.56306994205259
27
 energy: -43.423013462132 gnorm: 0.006231899632 xtb: 6.7.1 (edcfbbe)
F            1.54443319596060       -0.51100316760410        0.37269201442741
C            2.74684302150629        0.11394431779655        0.15448907467506
C            2.51642190299354        1.58774419057133       -0.18161080963556
N            2.21855009159685        2.42813511338358        0.97964181498801
C            1.50048626671268        1.94675369179745        2.00264281731213
C            1.21247794682565        2.73141479159261        3.10210950111205
C            1.64828438193729        4.04676443119974        3.13183001474591
C            2.36163501659058        4.54206164850298        2.03965220642961
C            2.64056207607861        3.69851107118337        0.98143207409458
C            2.78312418041851        5.99576250995877        2.05551376514660
O            2.55835828166392        6.70130326507302        2.99663668274676
O            3.38990251154781        6.34032624295549        0.93462061669203
C            3.79605555696701        7.71934832792811        0.81044867754132
C            2.64057134683454        8.59796246803033        0.36237748726620
H            3.35299967868057       -0.02376657397816        1.05838145760350
H            3.21940089179545       -0.39119778621832       -0.69213403856705
H            3.40713882074162        1.98195216903918       -0.67721576031195
H            1.67011394341359        1.65175595595748       -0.88031037865564
H            1.13955542627997        0.93113152757396        1.94024298565906
H            0.64548164445027        2.31602495784846        3.91972320238853
H            1.44518519392633        4.70100354072393        3.96765472352500
H            3.20334840843139        4.04934529936832        0.12821457964698
H            4.18272738582962        8.05566701070434        1.77639200990917
H            4.59599160836459        7.70351268264916        0.06863917939143
H            1.87024997223238        8.63571576453668        1.12834753142372
H            3.00699161063349        9.60483568694526        0.19080963048910
H            2.20963963758686        8.22003086248074       -0.56149106004365
27
 energy: -43.423154500267 gnorm: 0.006510964321 xtb: 6.7.1 (edcfbbe)
F            1.60238071663184       -0.52763329102506        0.41795330219115
C            2.77527510556925        0.13064792876567        0.15593107225325
C            2.48805845419547        1.59020746539960       -0.18283625610787
N            2.19682181303081        2.43160976400231        0.97452887781052
C            1.49078507202798        1.94628875432530        2.00411003520688
C            1.20968418474514        2.72994295576979        3.10574772308002
C            1.64545860242903        4.04560590054038        3.13396703545453
C            2.35141103185797        4.54214430935784        2.03766896206262
C            2.61853230518818        3.70096587772755        0.97424813658045
C            2.77998953554762        5.99198484309396        2.05072943522026
O            2.56050993556483        6.70596989903420        2.98797135714115
O            3.39324120003817        6.33214842829526        0.93142338548260
C            3.80375027109657        7.70803703588869        0.80894753510967
C            2.64958458518167        8.59284059962539        0.36443448691212
H            3.41034493463748        0.01779376305903        1.04014429340687
H            3.23410289530187       -0.36394141834226       -0.70423928180160
H            3.34951810488238        2.00020635049075       -0.70627570112827
H            1.62826320410688        1.61669413346351       -0.85859430080588
H            1.13578970856384        0.92856504498325        1.94446513834381
H            0.64989114742227        2.31371832874629        3.92767223612114
H            1.45003083219204        4.69848692695800        3.97184026734143
H            3.17253397642853        4.05763067509379        0.11774492647535
H            4.18904794922615        8.04387870797429        1.77491547385725
H            4.60240313865754        7.69139117842474        0.06701016082113
H            1.88014638807969        8.62652289733453        1.13087193742222
H            3.02044258998976        9.59965317482695        0.20182434195725
H            2.21853231740709        8.22367976618655       -0.56247458040770
27
 energy: -43.423042957394 gnorm: 0.018928318109 xtb: 6.7.1 (edcfbbe)
F            1.72335457215505       -0.58839371326323        0.51095338597388
C            2.83760928805269        0.15540095471706        0.16723490579574
C            2.41809077712506        1.59154035938100       -0.19814271985134
N            2.15301694803404        2.43714415769926        0.95788108847785
C            1.47105583901875        1.94604190231556        2.00309121817697
C            1.21169887889004        2.72492684433701        3.11395267070582
C            1.64864353184358        4.04062156148686        3.13877131066836
C            2.33320030755446        4.54077422669328        2.03002667422372
C            2.57548760071406        3.70542459209748        0.95418865504721
C            2.76879199155609        5.98758164632213        2.04105120103153
O            2.54625966930050        6.70859111196587        2.97395709806056
O            3.39849410441301        6.32180582268620        0.92890820046217
C            3.82011643408647        7.69410801859329        0.81250737756498
C            2.67287999245799        8.59139153990919        0.36927602140422
H            3.53079600319401        0.11186065559499        1.02324319048811
H            3.28500873697881       -0.32645191640540       -0.70635768274930
H            3.21595894445910        2.05212325424961       -0.80135881163528
H            1.50164008634752        1.53099814569973       -0.81668077891715
H            1.12171486222354        0.92597936948046        1.94651830020738
H            0.66936475887297        2.30469692195072        3.94628855567454
H            1.47217628905135        4.69163794286301        3.98247604850435
H            3.11082893392850        4.07179938552692        0.08919125553838
H            4.20251224140152        8.02554279323884        1.78061715883346
H            4.62014802619836        7.67481543476594        0.07319960853565
H            1.90246320817756        8.62535833658972        1.13441327970688
H            3.05397213272554        9.59629837297720        0.21608176947356
H            2.24124584123947        8.23342227852768       -0.56155898140180
27
 energy: -43.423375413493 gnorm: 0.005433097055 xtb: 6.7.1 (edcfbbe)
F            1.67562936855709       -0.55410923703792        0.46485815319534
C            2.81187549845529        0.14704323040689        0.15877341041403
C            2.45017860335602        1.59149708656834       -0.19093135398791
N            2.17357589932590        2.43388310921852        0.96737146883226
C            1.47985295177467        1.94655512572797        2.00587415295206
C            1.20907514872818        2.72753310023874        3.11236295879917
C            1.64352582184727        4.04376611376260        3.13870339178539
C            2.33833772544756        4.54142809703873        2.03593175153688
C            2.59427916020933        3.70382628789732        0.96608909690119
C            2.77309255510596        5.98998297155155        2.04778671882977
O            2.55382305934268        6.70456651878713        2.98542461659653
O            3.39279634196774        6.32437084841138        0.93105733686134
C            3.81336910290092        7.69795772551307        0.80781314388951
C            2.66352057264288        8.59040239702133        0.36599955772500
H            3.47873039087569        0.07424521464735        1.02462286951546
H            3.26178277782489       -0.34265727884385       -0.70876186493954
H            3.27389832624650        2.03072670717725       -0.75797874854276
H            1.55924496078273        1.56910966402055       -0.83210486301221
H            1.12894818357949        0.92695401903445        1.94830685778215
H            0.65859258634504        2.30701334801864        3.93894078542260