28
 energy: -33.425570798032 gnorm: 0.046100485229 xtb: 6.7.1 (edcfbbe)
C            0.37332000000000       -0.19911000000000       -0.49140000000000
C            0.51876000000000       -1.66818000000000       -0.12305000000000
C            1.47567000000000       -1.89830000000000        1.04236000000000
N            0.87101000000000       -1.58107000000000        2.34127000000000
C            0.82072000000000       -0.33361000000000        2.94324000000000
C            0.19435000000000       -0.49918000000000        4.14575000000000
N           -0.09529000000000       -1.84975000000000        4.26498000000000
C            0.32040000000000       -2.49044000000000        3.16149000000000
C           -0.70289000000000       -2.49744000000000        5.43276000000000
C           -2.21703000000000       -2.62450000000000        5.31054000000000
C           -2.64086000000000       -3.68956000000000        4.31082000000000
H           -0.10683000000000        0.37045000000000        0.30874000000000
H           -0.24437000000000       -0.09533000000000       -1.38925000000000
H            1.34896000000000        0.25175000000000       -0.70057000000000
H           -0.46784000000000       -2.08601000000000        0.10701000000000
H            0.90224000000000       -2.20203000000000       -1.00043000000000
H            1.76499000000000       -2.95578000000000        1.06907000000000
H            2.39586000000000       -1.31415000000000        0.93001000000000
H            1.23896000000000        0.51682000000000        2.43252000000000
H           -0.06988000000000        0.17017000000000        4.94662000000000
H            0.23688000000000       -3.55426000000000        2.97086000000000
H           -0.23115000000000       -3.47712000000000        5.56942000000000
H           -0.45568000000000       -1.89386000000000        6.31428000000000
H           -2.62666000000000       -2.89072000000000        6.29193000000000
H           -2.65625000000000       -1.66221000000000        5.02460000000000
H           -2.19815000000000       -4.65960000000000        4.55940000000000
H           -3.72953000000000       -3.80354000000000        4.32094000000000
H           -2.34280000000000       -3.42371000000000        3.29276000000000
28
 energy: -33.428763080451 gnorm: 0.019997919041 xtb: 6.7.1 (edcfbbe)
C            0.36665115532894       -0.19202573684884       -0.48149995771375
C            0.51827738804514       -1.66312839429185       -0.11783995397903
C            1.47306408677306       -1.90759180929072        1.05083790558837
N            0.87763931333456       -1.59371318243328        2.34293081572984
C            0.80726687383244       -0.35793790019626        2.93303306316517
C            0.19811067098515       -0.52270714712621        4.13814169003739
N           -0.08977858487507       -1.85677531584596        4.26853147659618
C            0.32515682110748       -2.48403438909613        3.16810030293101
C           -0.70015405157861       -2.48710169106968        5.43125011297721
C           -2.21612906072517       -2.62222716411940        5.30155909039112
C           -2.63811529128016       -3.68779635943953        4.29934045947057
H           -0.11414152970382        0.37457839121203        0.31454247959233
H           -0.24591487793247       -0.09310949396011       -1.37513649490435
H            1.33728818978318        0.25411587931456       -0.69383378768031
H           -0.45961931776848       -2.09239049735789        0.11388141814695
H            0.91234940147840       -2.20032613548528       -0.98327305855432
H            1.76713419947000       -2.96057819159993        1.07905893879828
H            2.37641969810173       -1.30294044866282        0.93377917692308
H            1.21241027893944        0.50145417414937        2.43659275697710
H           -0.05642714611686        0.16213272238222        4.92286481789853
H            0.24143463076116       -3.53831520270517        2.98154543612545
H           -0.24241790915596       -3.47168887668248        5.55890898037685
H           -0.45119251420857       -1.87842276042620        6.30507066294756
H           -2.60980191800347       -2.88480340271528        6.28578563105097
H           -2.64790013743065       -1.65777395153512        5.02382257742208
H           -2.20063781059703       -4.65276392710273        4.55255452415671
H           -3.71990249051022       -3.80028467984156        4.31221184944283
H           -2.34416006805413       -3.42411450922577        3.28390908608611
28
 energy: -33.429501945227 gnorm: 0.007288130017 xtb: 6.7.1 (edcfbbe)
C            0.35827777708008       -0.19130823876795       -0.46612960651487
C            0.51365024503373       -1.66489807527148       -0.11347771113608
C            1.47300366853110       -1.91195426772786        1.05633441243362
N            0.88329390444068       -1.60445643532601        2.34276977761630
C            0.80106956932310       -0.37620911079255        2.92515165114476
C            0.19422027069022       -0.53983321004884        4.13064043519057
N           -0.08234023421583       -1.86557513754269        4.27160710000059
C            0.33537257139690       -2.48560147364050        3.17364629744620
C           -0.69551895659905       -2.48366520231458        5.42906173865828
C           -2.21538509753428       -2.61577036439961        5.29306884463026
C           -2.63242628357532       -3.68065931412333        4.28774302481091
H           -0.12417549333873        0.36734701218910        0.33168439576276
H           -0.25410621811776       -0.09415497576933       -1.35669644319283
H            1.32592005355588        0.25584889747470       -0.67788231667950
H           -0.46010288064049       -2.10211980628545        0.11563615605027
H            0.91705680133535       -2.19476344055619       -0.97634937212194
H            1.77117464330519       -2.96152068344909        1.07796344597700
H            2.36571571572573       -1.29386505165394        0.93557881154217
H            1.19359712061892        0.49690213030840        2.44551104006370
H           -0.05437444816482        0.16544009449733        4.89752743491076
H            0.25818757261880       -3.53825937192242        2.99229714668031
H           -0.25024898737288       -3.47230425504592        5.56095879886870
H           -0.45194104389160       -1.86841352873594        6.29683180676765
H           -2.60359680090270       -2.88094024854209        6.27622189045066
H           -2.64381528880561       -1.65063050033872        5.01791062065350
H           -2.19700138481915       -4.64303729678803        4.54405608272127
H           -3.71177504009740       -3.79043096391455        4.29970330653692
H           -2.33682175558004       -3.41543718151251        3.27530123072791
28
 energy: -33.429694428072 gnorm: 0.004665550760 xtb: 6.7.1 (edcfbbe)
C            0.34821415689565       -0.19306435268179       -0.45330874768713
C            0.51211371179636       -1.66832042037753       -0.11050768893930
C            1.47617704159956       -1.91580440136878        1.05782408286483
N            0.88843785255707       -1.61160545261554        2.34301611979730
C            0.79713362982894       -0.38263489158189        2.91946308890776
C            0.19093465995621       -0.54530553702307        4.12694411368986
N           -0.07660676941403       -1.87090644611363        4.27390546735409
C            0.34605688891189       -2.49237344230778        3.17830983435446
C           -0.69298281447742       -2.48299498024824        5.42963391032572
C           -2.21450006160349       -2.61122098137307        5.28782260951269
C           -2.62872683589890       -3.67270677188212        4.27754420300073
H           -0.13515613928104        0.35773607922061        0.34943383043026
H           -0.26665450554675       -0.09280859509539       -1.34204408903640
H            1.31361582873949        0.25959069339262       -0.66346858131750
H           -0.45882450498333       -2.11175100880544        0.11777785961918
H            0.91837568736653       -2.19020174223784       -0.97650310517514
H            1.77882890946995       -2.96394926573841        1.07325792661791
H            2.36431394008285       -1.29220328991530        0.93354227675974
H            1.18003976596037        0.49904785625203        2.44746695492373
H           -0.05626858288806        0.17239229835746        4.88293972718168
H            0.27691256805338       -3.54745722473178        3.00199279981871
H           -0.25446504185083       -3.47358467889266        5.56832148387138
H           -0.45354097672723       -1.86475998618279        6.29601187915538
H           -2.60564621557598       -2.87886736560086        6.26876588912576
H           -2.63925432779110       -1.64455891616604        5.01308329926580
H           -2.19511168442666       -4.63588226110833        4.53365881278692
H           -3.70847198635496       -3.78097425933707        4.28456294800208
H           -2.32803419439847       -3.40510065583740        3.26722309478922
28
 energy: -33.429868989525 gnorm: 0.003569962573 xtb: 6.7.1 (edcfbbe)
C            0.33157067473211       -0.19645281073970       -0.43220239097544
C            0.51092016696452       -1.67410900376852       -0.10656050982097
C            1.48207479227232       -1.92177384588090        1.05791458975524
N            0.89675612920840       -1.62160046827487        2.34374965831552
C            0.79161573645265       -0.38938821716675        2.91141553795940
C            0.18378602404831       -0.55000140057944        4.12057663021093
N           -0.06773257755951       -1.87792336766967        4.27710087481466
C            0.36402157042377       -2.50410978608600        3.18579601416087
C           -0.68974028231797       -2.48310223614325        5.43172691032254
C           -2.21249745099666       -2.60441720652499        5.28058685887547
C           -2.62282472065502       -3.65892763830356        4.26146064691563
H           -0.15487545707926        0.34020259982657        0.37908666101962
H           -0.28754310938364       -0.09035982488176       -1.31818565317094
H            1.29252208638150        0.26859628529718       -0.63917861968216
H           -0.45528506399519       -2.12874753201284        0.12029112212197
H            0.91999713657323       -2.18214341802815       -0.97972506670355
H            1.78997192146574       -2.96869369259450        1.06558041471550
H            2.36655724467031       -1.29412915454950        0.92937641379027
H            1.16088612409698        0.50182049482609        2.44629793293642
H           -0.06576514362643        0.18211255436447        4.86195945197050
H            0.30920982709533       -3.56303852174374        3.01815648026436
H           -0.25838299568887       -3.47541237637669        5.58056376758477
H           -0.45534844498777       -1.86172939587921        6.29751416236224
H           -2.61150973227924       -2.87623299849427        6.25739711879859
H           -2.63123469473061       -1.63463670247400        5.00710593454634
H           -2.19376278761640       -4.62531615209844        4.51533180931940
H           -3.70369845139068       -3.76406442549262        4.25890608790269
H           -2.31277852207790       -3.38669175855101        3.25462716168969
28
 energy: -33.429958353126 gnorm: 0.004102438693 xtb: 6.7.1 (edcfbbe)
C            0.31758172612681       -0.19963078815536       -0.41600993517087
C            0.51117713815193       -1.67820724835533       -0.10301305237650
C            1.48691162427525       -1.92610599558424        1.05763456776511
N            0.90331583832902       -1.62733824465616        2.34506779418376
C            0.78796202880653       -0.39269082163650        2.90648536949177
C            0.17880985005186       -0.55180331995052        4.11598586596780
N           -0.06165593251337       -1.88137781296375        4.27896411050293
C            0.37699667456963       -2.51087586969904        3.19129626996675
C           -0.68789515995869       -2.48349159510671        5.43321532912568
C           -2.21037982009842       -2.59983735644168        5.27518291983366
C           -2.61807742217125       -3.64786875667662        4.24856719793873
H           -0.17323214009926        0.32537450791875        0.40074568710686
H           -0.30386595726321       -0.09076328476780       -1.30038664552271
H            1.27412521935390        0.27682487913334       -0.61971150469540
H           -0.45078231764250       -2.14300451019384        0.12218178027085
H            0.92238442064074       -2.17554945530441       -0.98168293850041
H            1.79646697854451       -2.97275627654753        1.06241946810442
H            2.37068510506122       -1.29786805707005        0.92716944528470
H            1.14914974883704        0.50160785373242        2.44159034922357
H           -0.07599390910805        0.18564152045249        4.84975775898264
H            0.33251471998253       -3.57157240738384        3.02992338496072
H           -0.25950897453354       -3.47636527956988        5.58657926478742
H           -0.45534991458857       -1.86126284027921        6.29925979338315
H           -2.61588421136411       -2.87514091284711        6.24863714742346
H           -2.62487761077453       -1.62743031982749        5.00390741867809
H           -2.19356328037629       -4.61731509200886        4.49983951070384
H           -3.69957846293209       -3.74981294708572        4.23828645584393
H           -2.30052595930707       -3.37164956912546        3.24477718673546
28
 energy: -33.430057765775 gnorm: 0.003756815094 xtb: 6.7.1 (edcfbbe)
C            0.30325870983325       -0.20311512049075       -0.40028863693361
C            0.51273598360548       -1.68182707929055       -0.09944310457864
C            1.49153591575579       -1.93005323517295        1.05740415193230
N            0.90941140470253       -1.63106659132725        2.34679796123176
C            0.78465892638636       -0.39436568841584        2.90260460320591
C            0.17419535261624       -0.55217392167229        4.11161345047548
N           -0.05660550829286       -1.88306829977912        4.28009872981372
C            0.38826905438535       -2.51511266299789        3.19609005518754
C           -0.68632068590206       -2.48421883357581        5.43418385255011
C           -2.20768291298169       -2.59591791275062        5.27037963419219
C           -2.61351204681109       -3.63678005732208        4.23606224960597
H           -0.19453838011164        0.30963145961483        0.42020673737348
H           -0.31866331181965       -0.09341088505799       -1.28426046908836
H            1.25466309898957        0.28619013891935       -0.59895958076813
H           -0.44444493130201       -2.15824223858295        0.12280019219676
H            0.92716291453368       -2.16814957242441       -0.98309705850877
H            1.80035583416820       -2.97706049166570        1.06195610220590
H            2.37628522002886       -1.30322918612092        0.92624995482927
H            1.14047761875219        0.49944290370329        2.43361495963359
H           -0.08860223870693        0.18565668915757        4.84142262636234
H            0.35304412451407       -3.57664869037991        3.04030477748840
H           -0.25925189593456       -3.47739951159103        5.58853018359233
H           -0.45362273318594       -1.86262928060488        6.30098935734430
H           -2.61897692399447       -2.87516594822903        6.24056046990657
H           -2.61863101639173       -1.62082085449243        5.00270550427213
H           -2.19429584515950       -4.60954620733739        4.48423371861120
H           -3.69537986981543       -3.73467083117452        4.21836709899933
H           -2.28861585786197       -3.35651809093888        3.23554247886619
28
 energy: -33.430189593824 gnorm: 0.003113294285 xtb: 6.7.1 (edcfbbe)
C            0.28198907400019       -0.20864713853224       -0.37805562510081
C            0.51604521557902       -1.68706568531752       -0.09444911137228
C            1.49772467041760       -1.93526645225685        1.05811614233998
N            0.91751301170224       -1.63477453000860        2.34945039042297
C            0.78013435338155       -0.39590631350451        2.89777878480719
C            0.16846535176268       -0.55222815201167        4.10573149696550
N           -0.05008468259287       -1.88429418559945        4.28126313304172
C            0.40281985537536       -2.51868863111208        3.20234003070363
C           -0.68364336845435       -2.48539057453805        5.43460672649655
C           -2.20339335381196       -2.59081347762540        5.26404233133338
C           -2.60733442653336       -3.62061421427679        4.21808001760552
H           -0.22922448792222        0.28542034051122        0.44584410483235
H           -0.33784751376639       -0.09962411464973       -1.26332052285648
H            1.22536242586723        0.30031999939185       -0.56663491409882
H           -0.43355411739015       -2.18187030096209        0.12170849258084
H            0.93778782318266       -2.15669655255369       -0.98405286109927
H            1.80439904557636       -2.98298344374745        1.06407879976935
H            2.38401843073725       -1.31047972404410        0.92627512515979
H            1.13044713943237        0.49534441421406        2.42030444320796
H           -0.10710501645581        0.18340692531121        4.83274260212878
H            0.37930382769530       -3.58093130675145        3.05362314352719
H           -0.25844670289738       -3.47958898356124        5.58695105927805
H           -0.44954795020826       -1.86607572108818        6.30286199641611
H           -2.62092974805922       -2.87692198872993        6.22971078445826
H           -2.61011111143661       -1.61190170926752        5.00331013525247
H           -2.19599436506900       -4.59800772274395        4.46125067248748
H           -3.68941021939446       -3.71190289374585        4.19055135025857
H           -2.27247316071772       -3.33408786280017        3.22256127145309
28
 energy: -33.430302639719 gnorm: 0.003008227020 xtb: 6.7.1 (edcfbbe)
C            0.25666959640520       -0.21630400658614       -0.35385296738793
C            0.52021779711922       -1.69361007635254       -0.08905174125970
C            1.50473037862608       -1.93982932362701        1.06033031359990
N            0.92639943436470       -1.63776366103186        2.35254451084857
C            0.77562898152076       -0.39720050398616        2.89333043062324
C            0.16313266675561       -0.55249161754560        4.10018178302594
N           -0.04266964217249       -1.88548669789263        4.28280457288476
C            0.41875854019983       -2.52132316623808        3.20911878195561
C           -0.67987525668175       -2.48704943394824        5.43424279386760
C           -2.19861812910492       -2.58537463955640        5.25715774469422
C           -2.60100533136229       -3.60181274234831        4.19731308769963
H           -0.27232347142632        0.25541547525051        0.47228835357843
H           -0.35851970364168       -0.10923390607430       -1.24229998541357
H            1.19031937944753        0.31565372262345       -0.52823671288552
H           -0.42000991752238       -2.21013297482452        0.11882225754914
H            0.95255906980333       -2.14343248891523       -0.98408849335890
H            1.81033046973685       -2.98785583225658        1.06793051988981
H            2.39134709851771       -1.31558097354214        0.92673624530640
H            1.12086605363415        0.49139668371838        2.40697285585875
H           -0.12556775963136        0.18036949423950        4.82518553701830
H            0.40678199385893       -3.58428434505919        3.06711937929861
H           -0.25814130730049       -3.48328570025745        5.58282528911390
H           -0.44450888556980       -1.87137826748144        6.30467061005568
H           -2.62136142053079       -2.88070395606719        6.21772598187377
H           -2.60103639531329       -1.60219378404317        5.00568102985914
H           -2.19858032576222       -4.58434101837531        4.43402568099563
H           -3.68318246914471       -3.68499392711269        4.15942585235324
H           -2.25543144482535       -3.30744233270989        3.20776628835421
28
 energy: -33.430380497095 gnorm: 0.002738630234 xtb: 6.7.1 (edcfbbe)
C            0.23470815885765       -0.22463564746836       -0.33567713911363
C            0.52382338306986       -1.69970000372001       -0.08489038832089
C            1.51088133201206       -1.94144231506288        1.06321507677625
N            0.93358204601671       -1.63891210724674        2.35523685822618
C            0.77297605868311       -0.39764310564589        2.89124318007544
C            0.16010768071116       -0.55297405060938        4.09738341722604
N           -0.03640273439683       -1.88660571809301        4.28450939449869
C            0.43141490518506       -2.52253637743089        3.21426256584004
C           -0.67628540043016       -2.48913989711602        5.43336622959972
C           -2.19497407781307       -2.58142212882609        5.25179875625116
C           -2.59665045522678       -3.58577312705071        4.17991732017177
H           -0.31018207387144        0.22798335926843        0.49077787258117
H           -0.37511372797894       -0.11999569479060       -1.22796496211309
H            1.15950366637835        0.32648338977956       -0.49658954808224
H           -0.40776475739873       -2.23428145634544        0.11574116141123
H            0.96591683550078       -2.13299921653932       -0.98311752037265
H            1.81828272203576       -2.98890034339705        1.07181021298312
H            2.39588001679350       -1.31531271055318        0.92706892981640
H            1.11444203767454        0.48964688858968        2.39947850483404
H           -0.13716905950349        0.17780281583511        4.82125752112863
H            0.42708290696142       -3.58591126153236        3.07617658626196
H           -0.25856573843418       -3.48762608971461        5.57818549306438
H           -0.44043580883944       -1.87750904187125        6.30632744930826
H           -2.62078826758675       -2.88558212201459        6.20805398002380
H           -2.59406855856008       -1.59471298797278        5.00918350851805
H           -2.20150828479535       -4.57261898648960        4.41005398803087
H           -3.67884708788136       -3.66181475878157        4.13432028361513
H           -2.24293571716329       -3.28413730520073        3.19554126775886
28
 energy: -33.430448993735 gnorm: 0.002113502411 xtb: 6.7.1 (edcfbbe)
C            0.21522178578860       -0.23383473163092       -0.32257279217648
C            0.52733057964276       -1.70571025881924       -0.08188130937987
C            1.51677633762582       -1.94016019968843        1.06634055499438
N            0.93937044855330       -1.63841957311366        2.35755509531228
C            0.77211507708757       -0.39726143649837        2.89143426081156
C            0.15919628038727       -0.55369621903663        4.09719404964450
N           -0.03114900183075       -1.88782702370909        4.28624029525161
C            0.44103066388063       -2.52274205358484        3.21767218129810
C           -0.67302319023952       -2.49196708938981        5.43214008868107
C           -2.19223794876404       -2.57879992080326        5.24778264888036
C           -2.59424069888192       -3.57169666321765        4.16527801841411
H           -0.34393807089624        0.20213135510965        0.50290034524492
H           -0.38909782221006       -0.13218939307667       -1.21893748538020
H            1.13145975472695        0.33404585511164       -0.47133636956066
H           -0.39584554965279       -2.25611144071853        0.11301726827014
H            0.97842584655385       -2.12532856403403       -0.98160655446087
H            1.82935809942520       -2.98606302053643        1.07564920294089
H            2.39813428146905       -1.30947542970496        0.92737320924074
H            1.11046748009817        0.49011325508080        2.39742314203849
H           -0.14275510089942        0.17569134792956        4.82060940026775
H            0.44114629608760       -3.58626759616479        3.08097904435002
H           -0.25947159904129       -3.49270710161486        5.57316414906422
H           -0.43697107961795       -1.88474721077851        6.30796971770881
H           -2.61964523603901       -2.89139837078455        6.20035031931073
H           -2.58856675723288       -1.58897370268162        5.01395892559254
H           -2.20513211896882       -4.56239036059752        4.38833606200340
H           -3.67645178554590       -3.64139925282346        4.11426657996746
H           -2.23459697150608       -3.26308520022411        3.18536995166850
28
 energy: -33.430527828257 gnorm: 0.001772989319 xtb: 6.7.1 (edcfbbe)
C            0.19346412428465       -0.24573700637018       -0.31096728527196
C            0.53206629440393       -1.71313034818674       -0.07932756664282
C            1.52421581829986       -1.93590740371769        1.06991722313703
N            0.94513281086482       -1.63641378553171        2.35988528755028
C            0.77302550474080       -0.39603536732559        2.89378421886770
C            0.16009061221382       -0.55474246625990        4.09925527520397
N           -0.02592473532552       -1.88945627063448        4.28800231234421
C            0.44944428339349       -2.52231259168062        3.21974485650165
C           -0.66969410231776       -2.49619077010677        5.43037825040728
C           -2.18975352319178       -2.57676190765709        5.24415300317462
C           -2.59327203968180       -3.55634032469437        4.15013305669818
H           -0.38130528503429        0.17199278491329        0.51291426771575
H           -0.40484143575387       -0.14843609774710       -1.21195108725735
H            1.09937878155665        0.34109584848605       -0.44705442381906
H           -0.38096095344899       -2.28150423089385        0.11035096924854
H            0.99338850766098       -2.11862925269279       -0.97987409671736
H            1.84659940586980       -2.97887548178901        1.08027128513845
H            2.39917329751597       -1.29697576191610        0.92799747167829
H            1.10816496206816        0.49270367427430        2.39988179542697
H           -0.14414385745342        0.17362020199335        4.82279168058313
H            0.45219949092803       -3.58584343978438        3.08245082809613
H           -0.26082813938644       -3.49944996319444        5.56676113844950
H           -0.43312599255555       -1.89444815779139        6.30977504524105
H           -2.61815249097371       -2.89893083971229        6.19286443599299
H           -2.58304533098624       -1.58340863033753        5.02084404296251
H           -2.21031219190348       -4.55133027539461        4.36416130283104
H           -3.67558336876521       -3.61928481623409        4.09467570347690
H           -2.22849044702282       -3.23953732001461        3.17485100898073
28
 energy: -33.430666362302 gnorm: 0.002460680490 xtb: 6.7.1 (edcfbbe)
C            0.15221951676424       -0.27073898875186       -0.29342310186547
C            0.54248082937194       -1.72788470511516       -0.07488377762199
C            1.54007149973926       -1.92347312638975        1.07632818108729
N            0.95531475883223       -1.63031704285040        2.36403450882607
C            0.77826415854459       -0.39228662141235        2.90167654169588
C            0.16483727537221       -0.55682328130221        4.10640239970961
N           -0.01741923723261       -1.89271561546647        4.29048541219792
C            0.46136979452271       -2.52045077674046        3.22056512130833
C           -0.66457600185737       -2.50568997156879        5.42636314241371
C           -2.18600960141256       -2.57413361489580        5.23817795146053
C           -2.59397490412844       -3.52837358845918        4.12347333529765
H           -0.44878078944232        0.11425637412464        0.52775079339247
H           -0.43721856883852       -0.18378782652748       -1.20155594476122
H            1.03733994942963        0.35131008115522       -0.40968254341909
H           -0.35026808425346       -2.33017171219176        0.10743677230017
H            1.02186525033988       -2.10886996108949       -0.97643846300771
H            1.88654764270777       -2.95904807327052        1.08971800775842
H            2.39973516572430       -1.26471845200501        0.92992943758279
H            1.10835230933589        0.50038074722861        2.41131459707135
H           -0.14010368383894        0.16971086895856        4.83157173414482
H            0.46578770585852       -3.58367005124731        3.07890503824132
H           -0.26370354273225       -3.51338215328004        5.55324618355555
H           -0.42591572449067       -1.91474101146600        6.31259249076736
H           -2.61583623280418       -2.91384268642700        6.18001817359879
H           -2.57358713563801       -1.57417866176817        5.03513003803941
H           -2.22129892907716       -4.53113758551595        4.31922516886717
H           -3.67660369648120       -3.57964681485095        4.06219589832646
H           -2.22197972431538       -3.19584574887537        3.15611290303041
28
 energy: -33.430766729742 gnorm: 0.002517749209 xtb: 6.7.1 (edcfbbe)
C            0.12094024662877       -0.29223724432879       -0.28234844581004
C            0.55093385406082       -1.73914443157554       -0.07034863732945
C            1.55329778780956       -1.91074631243840        1.08081031525102
N            0.96340006238998       -1.62388433586146        2.36753815689234
C            0.78451618964054       -0.38820488855829        2.91012997214360
C            0.16978819713942       -0.55832985085677        4.11363212794062
N           -0.01181408510749       -1.89525987950894        4.29155593924829