      -----------------------------------------------------------      
     |                   =====================                   |     
     |                           x T B                           |     
     |                   =====================                   |     
     |                         S. Grimme                         |     
     |          Mulliken Center for Theoretical Chemistry        |     
     |                    University of Bonn                     |     
      -----------------------------------------------------------      

   * xtb version 6.7.1 (edcfbbe) compiled by 'conda@3ef47c1a292c' on 2024-11-25

   xtb is free software: you can redistribute it and/or modify it under
   the terms of the GNU Lesser General Public License as published by
   the Free Software Foundation, either version 3 of the License, or
   (at your option) any later version.
   
   xtb is distributed in the hope that it will be useful,
   but WITHOUT ANY WARRANTY; without even the implied warranty of
   MERCHANTABILITY or FITNESS FOR A PARTICULAR PURPOSE.  See the
   GNU Lesser General Public License for more details.
   
   Cite this work as:
   * C. Bannwarth, E. Caldeweyher, S. Ehlert, A. Hansen, P. Pracht,
     J. Seibert, S. Spicher, S. Grimme, WIREs Comput. Mol. Sci., 2020, 11,
     e01493. DOI: 10.1002/wcms.1493
   
   for GFN2-xTB:
   * C. Bannwarth, S. Ehlert and S. Grimme., J. Chem. Theory Comput., 2019,
     15, 1652-1671. DOI: 10.1021/acs.jctc.8b01176
   for GFN1-xTB:
   * S. Grimme, C. Bannwarth, P. Shushkov, J. Chem. Theory Comput., 2017,
     13, 1989-2009. DOI: 10.1021/acs.jctc.7b00118
   for GFN0-xTB:
   * P. Pracht, E. Caldeweyher, S. Ehlert, S. Grimme, ChemRxiv, 2019, preprint.
     DOI: 10.26434/chemrxiv.8326202.v1
   for GFN-FF:
   * S. Spicher and S. Grimme, Angew. Chem. Int. Ed., 2020, 59, 15665-15673.
     DOI: 10.1002/anie.202004239
   
   for ALPB and GBSA implicit solvation:
   * S. Ehlert, M. Stahn, S. Spicher, S. Grimme, J. Chem. Theory Comput.,
     2021, 17, 4250-4261. DOI: 10.1021/acs.jctc.1c00471
   
   for ddCOSMO and CPCM-X implicit solvation:
   * M. Stahn, S. Ehlert, S. Grimme, J. Phys. Chem. A,
     2023, XX, XXXX-XXXX. DOI: 10.1021/acs.jpca.3c04382
   
   for DFT-D4:
   * E. Caldeweyher, C. Bannwarth and S. Grimme, J. Chem. Phys., 2017,
     147, 034112. DOI: 10.1063/1.4993215
   * E. Caldeweyher, S. Ehlert, A. Hansen, H. Neugebauer, S. Spicher,
     C. Bannwarth and S. Grimme, J. Chem. Phys., 2019, 150, 154122.
     DOI: 10.1063/1.5090222
   * E. Caldeweyher, J.-M. Mewes, S. Ehlert and S. Grimme, Phys. Chem. Chem. Phys.
     2020, 22, 8499-8512. DOI: 10.1039/D0CP00502A
   
   for sTDA-xTB:
   * S. Grimme and C. Bannwarth, J. Chem. Phys., 2016, 145, 054103.
     DOI: 10.1063/1.4959605
   
   in the mass-spec context:
   * V. Asgeirsson, C. Bauer and S. Grimme, Chem. Sci., 2017, 8, 4879.
     DOI: 10.1039/c7sc00601b
   * J. Koopman and S. Grimme, ACS Omega 2019, 4, 12, 15120-15133.
     DOI: 10.1021/acsomega.9b02011
   
   for metadynamics refer to:
   * S. Grimme, J. Chem. Theory Comput., 2019, 155, 2847-2862
     DOI: 10.1021/acs.jctc.9b00143
   
   for SPH calculations refer to:
   * S. Spicher and S. Grimme, J. Chem. Theory Comput., 2021, 17, 1701-1714
     DOI: 10.1021/acs.jctc.0c01306
   
   for ONIOM refer to:
   * C. Plett, A. Katbashev, S. Ehlert, S. Grimme, M. Bursch,
     Phys. Chem. Chem. Phys., 2023, 25, 17860-17868. DOI: 10.1039/D3CP02178E
   
   for DIPRO refer to:
   * J. Kohn, N. Gildemeister, S. Grimme, D. Fazzi, A. Hansen,
     J. Chem. Phys., 2023, just accepted.
   
   for PTB refer to:
   * S. Grimme, M. Mueller, A. Hansen, J. Chem. Phys., 2023, 158, 124111.
     DOI: 10.1063/5.0137838
   
   with help from (in alphabetical order)
   P. Atkinson, C. Bannwarth, F. Bohle, G. Brandenburg, E. Caldeweyher
   M. Checinski, S. Dohm, S. Ehlert, S. Ehrlich, I. Gerasimov, C. Hölzer
   A. Katbashev, J. Kohn, J. Koopman, C. Lavigne, S. Lehtola, F. März, M. Müller,
   F. Musil, H. Neugebauer, J. Pisarek, C. Plett, P. Pracht, F. Pultar,
   J. Seibert, P. Shushkov, S. Spicher, M. Stahn, M. Steiner, T. Strunk,
   J. Stückrath, T. Rose, and J. Unsleber
   
 * started run on 2024/12/20 at 02:15:04.615     
   ID    Z sym.   atoms
    1    6 C      1, 2, 4-7
    2    7 N      3
    3    1 H      8-23

           -------------------------------------------------
          |                Calculation Setup                |
           -------------------------------------------------

          program call               : xtb C0319.xyz --opt --namespace C0319 --charge +1
          calculation namespace      : C0319
          coordinate file            : C0319.xyz
          omp threads                :                     8


           -------------------------------------------------
          |                 G F N 2 - x T B                 |
           -------------------------------------------------

        Reference                      10.1021/acs.jctc.8b01176
      * Hamiltonian:
        H0-scaling (s, p, d)           1.850000    2.230000    2.230000
        zeta-weighting                 0.500000
      * Dispersion:
        s8                             2.700000
        a1                             0.520000
        a2                             5.000000
        s9                             5.000000
      * Repulsion:
        kExp                           1.500000    1.000000
        rExp                           1.000000
      * Coulomb:
        alpha                          2.000000
        third order                    shell-resolved
        anisotropic                    true
        a3                             3.000000
        a5                             4.000000
        cn-shift                       1.200000
        cn-exp                         4.000000
        max-rad                        5.000000


          ...................................................
          :                      SETUP                      :
          :.................................................:
          :  # basis functions                  44          :
          :  # atomic orbitals                  44          :
          :  # shells                           30          :
          :  # electrons                        44          :
          :  max. iterations                   250          :
          :  Hamiltonian                  GFN2-xTB          :
          :  restarted?                      false          :
          :  GBSA solvation                  false          :
          :  PC potential                    false          :
          :  electronic temp.          300.0000000     K    :
          :  accuracy                    1.0000000          :
          :  -> integral cutoff          0.2500000E+02      :
          :  -> integral neglect         0.1000000E-07      :
          :  -> SCF convergence          0.1000000E-05 Eh   :
          :  -> wf. convergence          0.1000000E-03 e    :
          :  Broyden damping             0.4000000          :
          :  net charge                          1          :
          :  unpaired electrons                  0          :
          ...................................................

 iter      E             dE          RMSdq      gap      omega  full diag
   1    -23.7327346 -0.237327E+02  0.269E+00    9.81       0.0  T
   2    -23.8306932 -0.979586E-01  0.213E+00    8.42       1.0  T
   3    -23.8330517 -0.235850E-02  0.133E+00    8.49       1.0  T
   4    -23.8333480 -0.296326E-03  0.174E-01    8.39       1.0  T
   5    -23.8334755 -0.127505E-03  0.717E-02    8.41       1.0  T
   6    -23.8334774 -0.190394E-05  0.341E-02    8.41       1.0  T
   7    -23.8334797 -0.225744E-05  0.226E-03    8.41       9.2  T
   8    -23.8334797 -0.119509E-07  0.862E-04    8.41      24.2  T
   9    -23.8334797 -0.120486E-08  0.212E-04    8.41      98.3  T

   *** convergence criteria satisfied after 9 iterations ***

         #    Occupation            Energy/Eh            Energy/eV
      -------------------------------------------------------------
         1        2.0000           -0.8536598             -23.2293
       ...           ...                  ...                  ...
        16        2.0000           -0.6459576             -17.5774
        17        2.0000           -0.6452602             -17.5584
        18        2.0000           -0.6349338             -17.2774
        19        2.0000           -0.6168562             -16.7855
        20        2.0000           -0.6131022             -16.6834
        21        2.0000           -0.5989924             -16.2994
        22        2.0000           -0.5984871             -16.2857 (HOMO)
        23                         -0.2893542              -7.8737 (LUMO)
        24                         -0.2064459              -5.6177
        25                         -0.2049637              -5.5773
        26                         -0.1931610              -5.2562
        27                         -0.0832023              -2.2641
       ...                                ...                  ...
        44                          0.1251693               3.4060
      -------------------------------------------------------------
                  HL-Gap            0.3091329 Eh            8.4119 eV
             Fermi-level           -0.4439207 Eh          -12.0797 eV

 SCC (total)                   0 d,  0 h,  0 min,  0.009 sec
 SCC setup                      ...        0 min,  0.000 sec (  1.303%)
 Dispersion                     ...        0 min,  0.000 sec (  1.704%)
 classical contributions        ...        0 min,  0.000 sec (  0.476%)
 integral evaluation            ...        0 min,  0.001 sec (  6.999%)
 iterations                     ...        0 min,  0.006 sec ( 71.139%)
 molecular gradient             ...        0 min,  0.001 sec ( 17.184%)
 printout                       ...        0 min,  0.000 sec (  1.021%)

         :::::::::::::::::::::::::::::::::::::::::::::::::::::
         ::                     SUMMARY                     ::
         :::::::::::::::::::::::::::::::::::::::::::::::::::::
         :: total energy             -23.521406225081 Eh    ::
         :: gradient norm              0.054661419056 Eh/a0 ::
         :: HOMO-LUMO gap              8.411935146567 eV    ::
         ::.................................................::
         :: SCC energy               -23.833370360225 Eh    ::
         :: -> isotropic ES            0.084004992436 Eh    ::
         :: -> anisotropic ES         -0.008610659357 Eh    ::
         :: -> anisotropic XC          0.018749309896 Eh    ::
         :: -> dispersion             -0.014157544038 Eh    ::
         :: repulsion energy           0.311964135145 Eh    ::
         :: add. restraining           0.000000000000 Eh    ::
         :: total charge               1.000000000000 e     ::
         :::::::::::::::::::::::::::::::::::::::::::::::::::::

      ----------------------------------------------------------- 
     |                   =====================                   |
     |                        A N C O P T                        |
     |                   =====================                   |
     |               Approximate Normal Coordinate               |
     |                Rational Function Optimizer                |
      ----------------------------------------------------------- 
      ----------------------------------------------------------- 
     |                   =====================                   |
     |                        A N C O P T                        |
     |                   =====================                   |
     |               Approximate Normal Coordinate               |
     |                Rational Function Optimizer                |
      ----------------------------------------------------------- 

          ...................................................
          :                      SETUP                      :
          :.................................................:
          :   optimization level            normal          :
          :   max. optcycles                   200          :
          :   ANC micro-cycles                  20          :
          :   degrees of freedom                63          :
          :.................................................:
          :   RF solver                   davidson          :
          :   write xtbopt.log                true          :
          :   linear?                        false          :
          :   energy convergence         0.5000000E-05 Eh   :
          :   grad. convergence          0.1000000E-02 Eh/α :
          :   maxmium RF displ.          1.0000000          :
          :   Hlow (freq-cutoff)         0.1000000E-01      :
          :   Hmax (freq-cutoff)         5.0000000          :
          :   S6 in model hess.         20.0000000          :
          ...................................................

generating ANC from exact Hessian ...
Using Lindh-Hessian (1995)
 Shifting diagonal of input Hessian by    8.5566304085502327E-003
 Lowest  eigenvalues of input Hessian
    0.000000    0.000000    0.000000    0.000000    0.000000    0.000000
    0.010000    0.013456    0.014360    0.016637    0.017027    0.017249
    0.017309    0.017755    0.018045    0.018499    0.021065    0.024634
 Highest eigenvalues
    1.131469    1.166679    1.194307    1.230115    1.237048    1.250504


........................................................................
.............................. CYCLE    1 ..............................
........................................................................

 iter      E             dE          RMSdq      gap      omega  full diag
   1    -23.8334797 -0.238335E+02  0.415E-05    8.41       0.0  T
   2    -23.8334797 -0.564881E-11  0.225E-05    8.41     928.5  T
   3    -23.8334797 -0.230926E-12  0.930E-06    8.41    2242.8  T
     SCC iter.                  ...        0 min,  0.002 sec
     gradient                   ...        0 min,  0.001 sec
 * total energy  :   -23.5214062 Eh     change       -0.2841816E-10 Eh
   gradient norm :     0.0546617 Eh/α   predicted     0.0000000E+00 (-100.00%)
   displ. norm   :     0.2371910 α      lambda       -0.8314447E-02
   maximum displ.:     0.1707136 α      in ANC's #15, #42, #6, ...

........................................................................
.............................. CYCLE    2 ..............................
........................................................................

 iter      E             dE          RMSdq      gap      omega  full diag
   1    -23.8584536 -0.238585E+02  0.190E-01    9.19       0.0  T
   2    -23.8586518 -0.198225E-03  0.108E-01    9.16       1.0  T
   3    -23.8586551 -0.335217E-05  0.551E-02    9.16       1.0  T
   4    -23.8586558 -0.661815E-06  0.501E-03    9.16       4.2  T
   5    -23.8586558 -0.310618E-08  0.174E-03    9.16      12.0  T
   6    -23.8586558 -0.186658E-08  0.254E-04    9.16      82.2  T
   7    -23.8586558 -0.548621E-09  0.109E-04    9.16     192.2  T
     SCC iter.                  ...        0 min,  0.003 sec
     gradient                   ...        0 min,  0.001 sec
 * total energy  :   -23.5272470 Eh     change       -0.5840731E-02 Eh
   gradient norm :     0.0273669 Eh/α   predicted    -0.4391180E-02 ( -24.82%)
   displ. norm   :     0.1614456 α      lambda       -0.2602334E-02
   maximum displ.:     0.1108140 α      in ANC's #15, #42, #12, ...

........................................................................
.............................. CYCLE    3 ..............................
........................................................................

 iter      E             dE          RMSdq      gap      omega  full diag
   1    -23.8694441 -0.238694E+02  0.124E-01    9.79       0.0  T
   2    -23.8695686 -0.124577E-03  0.731E-02    9.75       1.0  T
   3    -23.8695697 -0.107598E-05  0.416E-02    9.75       1.0  T
   4    -23.8695699 -0.227709E-06  0.303E-03    9.75       6.9  T
   5    -23.8695700 -0.118230E-07  0.158E-03    9.75      13.2  T
   6    -23.8695700 -0.392007E-08  0.196E-04    9.75     106.4  T
   7    -23.8695700 -0.950671E-10  0.749E-05    9.75     278.5  T
     SCC iter.                  ...        0 min,  0.003 sec
     gradient                   ...        0 min,  0.001 sec
 * total energy  :   -23.5284869 Eh     change       -0.1239948E-02 Eh
   gradient norm :     0.0036010 Eh/α   predicted    -0.1335307E-02 (   7.69%)
   displ. norm   :     0.0278145 α      lambda       -0.4933097E-04
   maximum displ.:     0.0121884 α      in ANC's #6, #15, #4, ...

........................................................................
.............................. CYCLE    4 ..............................
........................................................................

 iter      E             dE          RMSdq      gap      omega  full diag
   1    -23.8673293 -0.238673E+02  0.144E-02    9.73       0.0  T
   2    -23.8673298 -0.444279E-06  0.829E-03    9.73       2.5  T
   3    -23.8673298 -0.112256E-07  0.266E-03    9.73       7.8  T
   4    -23.8673298 -0.108669E-07  0.486E-04    9.73      42.9  T
   5    -23.8673298 -0.124948E-08  0.261E-04    9.73      79.9  T
     SCC iter.                  ...        0 min,  0.002 sec
     gradient                   ...        0 min,  0.001 sec
 * total energy  :   -23.5285175 Eh     change       -0.3063382E-04 Eh
   gradient norm :     0.0014198 Eh/α   predicted    -0.2480010E-04 ( -19.04%)
   displ. norm   :     0.0399978 α      lambda       -0.1227895E-04
   maximum displ.:     0.0293003 α      in ANC's #4, #6, #11, ...

........................................................................
.............................. CYCLE    5 ..............................
........................................................................

 iter      E             dE          RMSdq      gap      omega  full diag
   1    -23.8660585 -0.238661E+02  0.121E-02    9.74       0.0  T
   2    -23.8660587 -0.216710E-06  0.697E-03    9.74       3.0  T
   3    -23.8660587  0.266810E-08  0.202E-03    9.74      10.3  T
   4    -23.8660587 -0.174867E-07  0.324E-04    9.74      64.3  T
   5    -23.8660587 -0.490658E-09  0.169E-04    9.74     123.0  T
     SCC iter.                  ...        0 min,  0.002 sec
     gradient                   ...        0 min,  0.001 sec
 * total energy  :   -23.5285277 Eh     change       -0.1021164E-04 Eh
   gradient norm :     0.0010692 Eh/α   predicted    -0.6151782E-05 ( -39.76%)
   displ. norm   :     0.0369177 α      lambda       -0.6167691E-05
   maximum displ.:     0.0257955 α      in ANC's #4, #6, #3, ...

........................................................................
.............................. CYCLE    6 ..............................
........................................................................

 iter      E             dE          RMSdq      gap      omega  full diag
   1    -23.8663184 -0.238663E+02  0.863E-03    9.76       0.0  T
   2    -23.8663185 -0.373984E-07  0.513E-03    9.76       4.1  T
   3    -23.8663185  0.101730E-08  0.827E-04    9.76      25.2  T
   4    -23.8663185 -0.498342E-08  0.182E-04    9.76     114.3  T
     SCC iter.                  ...        0 min,  0.002 sec
     gradient                   ...        0 min,  0.001 sec
 * total energy  :   -23.5285350 Eh     change       -0.7226200E-05 Eh
   gradient norm :     0.0009724 Eh/α   predicted    -0.3086802E-05 ( -57.28%)
   displ. norm   :     0.0629996 α      lambda       -0.7450191E-05
   maximum displ.:     0.0431206 α      in ANC's #4, #6, #3, ...

........................................................................
.............................. CYCLE    7 ..............................
........................................................................

 iter      E             dE          RMSdq      gap      omega  full diag
   1    -23.8668611 -0.238669E+02  0.136E-02    9.76       0.0  T
   2    -23.8668611 -0.415919E-07  0.820E-03    9.76       2.5  T
   3    -23.8668611 -0.387658E-08  0.570E-04    9.76      36.6  T
   4    -23.8668611 -0.194846E-08  0.230E-04    9.76      90.7  T
     SCC iter.                  ...        0 min,  0.002 sec
     gradient                   ...        0 min,  0.001 sec
 * total energy  :   -23.5285404 Eh     change       -0.5396057E-05 Eh
   gradient norm :     0.0007032 Eh/α   predicted    -0.3739382E-05 ( -30.70%)
   displ. norm   :     0.0612256 α      lambda        0.8153399E-05
   maximum displ.:     0.0421268 α      in ANC's #4, #6, #3, ...

........................................................................
.............................. CYCLE    8 ..............................
........................................................................

 iter      E             dE          RMSdq      gap      omega  full diag
   1    -23.8672729 -0.238673E+02  0.133E-02    9.75       0.0  T
   2    -23.8672730 -0.437614E-07  0.800E-03    9.76       2.6  T
   3    -23.8672730 -0.345909E-08  0.583E-04    9.76      35.8  T
   4    -23.8672730 -0.217151E-08  0.228E-04    9.76      91.4  T
     SCC iter.                  ...        0 min,  0.002 sec
     gradient                   ...        0 min,  0.001 sec
 * total energy  :   -23.5285343 Eh     change        0.6111582E-05 Eh
   gradient norm :     0.0015628 Eh/α   predicted     0.4078951E-05 ( -33.26%)
   displ. norm   :     0.0542833 α      lambda       -0.9138893E-05
   maximum displ.:     0.0391669 α      in ANC's #4, #6, #3, ...

........................................................................
.............................. CYCLE    9 ..............................
........................................................................

 iter      E             dE          RMSdq      gap      omega  full diag
   1    -23.8669509 -0.238670E+02  0.128E-02    9.75       0.0  T
   2    -23.8669509 -0.502087E-07  0.767E-03    9.75       2.7  T
   3    -23.8669509 -0.534824E-08  0.622E-04    9.75      33.5  T
   4    -23.8669509 -0.128984E-08  0.272E-04    9.75      76.8  T
     SCC iter.                  ...        0 min,  0.002 sec
     gradient                   ...        0 min,  0.002 sec
 * total energy  :   -23.5285409 Eh     change       -0.6630083E-05 Eh
   gradient norm :     0.0002608 Eh/α   predicted    -0.4578523E-05 ( -30.94%)
   displ. norm   :     0.0068518 α      lambda       -0.2812636E-06
   maximum displ.:     0.0047712 α      in ANC's #4, #6, #9, ...

........................................................................
.............................. CYCLE   10 ..............................
........................................................................

 iter      E             dE          RMSdq      gap      omega  full diag
   1    -23.8668862 -0.238669E+02  0.260E-03    9.75       0.0  T
   2    -23.8668862 -0.329552E-08  0.150E-03    9.75      13.9  T
   3    -23.8668862 -0.950493E-10  0.235E-04    9.75      88.9  T
   4    -23.8668862 -0.508621E-09  0.773E-05    9.75     269.9  T
     SCC iter.                  ...        0 min,  0.002 sec
     gradient                   ...        0 min,  0.001 sec
 * total energy  :   -23.5285410 Eh     change       -0.1380953E-06 Eh
   gradient norm :     0.0001369 Eh/α   predicted    -0.1430258E-06 (   3.57%)
   displ. norm   :     0.0033849 α      lambda       -0.6890090E-07
   maximum displ.:     0.0023321 α      in ANC's #6, #4, #3, ...

   *** GEOMETRY OPTIMIZATION CONVERGED AFTER 10 ITERATIONS ***

------------------------------------------------------------------------
 total energy gain   :        -0.0071348 Eh       -4.4772 kcal/mol
 total RMSD          :         0.0897386 a0        0.0475 Å
 total power (kW/mol):        -1.8732424 (step) -266.3154 (real)
------------------------------------------------------------------------

 ANCopt (total)                0 d,  0 h,  0 min,  0.070 sec
 optimizer setup                ...        0 min,  0.000 sec (  0.088%)
 model hessian                  ...        0 min,  0.027 sec ( 37.843%)
 ANC generation                 ...        0 min,  0.000 sec (  0.606%)
 coordinate transformation      ...        0 min,  0.000 sec (  0.091%)
 single point calculation       ...        0 min,  0.041 sec ( 58.773%)
 optimization log               ...        0 min,  0.001 sec (  0.927%)
 hessian update                 ...        0 min,  0.000 sec (  0.185%)
 rational function              ...        0 min,  0.001 sec (  0.945%)

================
 final structure:
================
23
 xtb: 6.7.1 (edcfbbe)
C            0.96127056494262       -0.14327760191588        0.07043740014657
C            0.45464001013458        1.29486649484577        0.04873094216243
N            0.96948080973814        2.08620693279762       -1.14613891631240
C            0.52131995769018        1.51845754220340       -2.43027685870229
C            0.49946641947003        3.48389978786501       -1.06002295570030
C            2.44634920228045        2.10911394135800       -1.13165313679117
C           -1.06723085833445        1.28913585687706        0.14506543708572
H            0.56728890448667       -0.72718684160568       -0.75646287733541
H            0.60660414343671       -0.60780129639834        0.98684860364049
H            2.04387448650131       -0.21549800281384        0.08172964612978
H            0.85568382593553        1.81721960265794        0.92363156948255
H           -0.56401492694989        1.52153669102365       -2.49106259089784
H            0.91356302621337        2.11667743163370       -3.25083484977621
H            0.88301526359770        0.49971749645052       -2.54430078417985
H            0.75134023862331        3.90894688533855       -0.09011238142652
H            0.97586528357239        4.08190198930452       -1.83494638682537
H           -0.57583412935533        3.54064139629503       -1.20539562821588
H            2.81016611865155        2.45511053977956       -0.16586040541114
H            2.85107764965230        1.12073775305373       -1.33148184982780
H            2.81257112492913        2.78491910424612       -1.90252128863249
H           -1.34141605381107        0.76778437866778        1.05851775956161
H           -1.49555032644425        2.28384423003179        0.21194037855895
H           -1.52623073496099        0.75113568830397       -0.67944082673342

 Bond Distances (Angstroems)
 ---------------------------
C1-C2=1.5249         C1-H8=1.0862         C1-H9=1.0869         C1-H10=1.0851        C2-C1=1.5249         C2-N3=1.5228         
C2-C7=1.5249         C2-H11=1.0951        N3-C2=1.5228         N3-C4=1.4738         N3-C5=1.4771         N3-C6=1.4771         
C4-N3=1.4738         C4-H12=1.0870        C4-H13=1.0886        C4-H14=1.0870        C5-N3=1.4771         C5-H15=1.0885        
C5-H16=1.0886        C5-H17=1.0866        C6-N3=1.4771         C6-H18=1.0885        C6-H19=1.0866        C6-H20=1.0886        
C7-C2=1.5249         C7-H21=1.0869        C7-H22=1.0851        C7-H23=1.0862        H8-C1=1.0862         H9-C1=1.0869         
H10-C1=1.0851        H11-C2=1.0951        H12-C4=1.0870        H13-C4=1.0886        H14-C4=1.0870        H15-C5=1.0885        
H16-C5=1.0886        H17-C5=1.0866        H18-C6=1.0885        H19-C6=1.0866        H20-C6=1.0886        H21-C7=1.0869        
H22-C7=1.0851        H23-C7=1.0862        
 C  H  Rav=1.0876 sigma=0.0022  Rmin=1.0851  Rmax=1.0951    16
 C  C  Rav=1.5249 sigma=0.0000  Rmin=1.5249  Rmax=1.5249     2
 N  C  Rav=1.4877 sigma=0.0203  Rmin=1.4738  Rmax=1.5228     4

 selected bond angles (degree)
 --------------------
H8-C1-C2=112.06                H9-C1-C2=107.86                H9-C1-H8=107.08                H10-C1-C2=113.23               
H10-C1-H8=109.51               H10-C1-H9=106.76               N3-C2-C1=112.89                C7-C2-C1=109.09                
C7-C2-N3=112.89                H11-C2-C1=108.47               H11-C2-N3=104.79               H11-C2-C7=108.47               
C4-N3-C2=112.37                C5-N3-C2=109.78                C5-N3-C4=108.57                C6-N3-C2=109.78                
C6-N3-C4=108.57                C6-N3-C5=107.63                H12-C4-N3=110.56               H13-C4-N3=109.60               
H13-C4-H12=108.42              H14-C4-N3=110.56               H14-C4-H12=109.21              H14-C4-H13=108.42              
H15-C5-N3=110.35               H16-C5-N3=109.82               H16-C5-H15=108.57              H17-C5-N3=110.89               
H17-C5-H15=109.14              H17-C5-H16=108.01              H18-C6-N3=110.35               H19-C6-N3=110.89               
H19-C6-H18=109.14              H20-C6-N3=109.82               H20-C6-H18=108.57              H20-C6-H19=108.01              
H21-C7-C2=107.86               H22-C7-C2=113.23               H22-C7-H21=106.76              H23-C7-C2=112.06               
H23-C7-H21=107.08              H23-C7-H22=109.51              

 selected dihedral angles (degree)
 ---------------------------------
N3-C2-C1-H8=293.57            N3-C2-C1-H9=175.95            N3-C2-C1-H10= 58.05           C7-C2-C1-H8= 59.93            
C7-C2-C1-H9=302.32            C7-C2-C1-H10=184.42           H11-C2-C1-H8=177.91           H11-C2-C1-H9= 60.29           
H11-C2-C1-H10=302.39          C4-N3-C2-C1= 62.15            C4-N3-C2-C7=297.85            C4-N3-C2-H11=180.00           
C5-N3-C2-C1=183.09            C5-N3-C2-C7= 58.78            C5-N3-C2-H11=300.94           C6-N3-C2-C1=301.22            
C6-N3-C2-C7=176.91            C6-N3-C2-H11= 59.06           H12-C4-N3-C2= 60.53           H12-C4-N3-C5=298.91           
H12-C4-N3-C6=182.16           H13-C4-N3-C2=180.00           H13-C4-N3-C5= 58.37           H13-C4-N3-C6=301.63           
H14-C4-N3-C2=299.47           H14-C4-N3-C5=177.84           H14-C4-N3-C6= 61.09           H15-C5-N3-C2= 52.61           
H15-C5-N3-C4=175.82           H15-C5-N3-C6=293.17           H16-C5-N3-C2=172.27           H16-C5-N3-C4=295.47           
H16-C5-N3-C6= 52.82           H17-C5-N3-C2=291.56           H17-C5-N3-C4= 54.76           H17-C5-N3-C6=172.11           
H18-C6-N3-C2=307.39           H18-C6-N3-C4=184.18           H18-C6-N3-C5= 66.83           H19-C6-N3-C2= 68.44           
H19-C6-N3-C4=305.24           H19-C6-N3-C5=187.89           H20-C6-N3-C2=187.73           H20-C6-N3-C4= 64.53           
H20-C6-N3-C5=307.18           H21-C7-C2-C1= 57.68           H21-C7-C2-N3=184.05           H21-C7-C2-H11=299.71          
H22-C7-C2-C1=175.58           H22-C7-C2-N3=301.95           H22-C7-C2-H11= 57.61          H23-C7-C2-C1=300.07           
H23-C7-C2-N3= 66.43           H23-C7-C2-H11=182.09          
           -------------------------------------------------
          |                Final Singlepoint                |
           -------------------------------------------------

          ...................................................
          :                      SETUP                      :
          :.................................................:
          :  # basis functions                  44          :
          :  # atomic orbitals                  44          :
          :  # shells                           30          :
          :  # electrons                        44          :
          :  max. iterations                   250          :
          :  Hamiltonian                  GFN2-xTB          :
          :  restarted?                      false          :
          :  GBSA solvation                  false          :
          :  PC potential                    false          :
          :  electronic temp.          300.0000000     K    :
          :  accuracy                    1.0000000          :
          :  -> integral cutoff          0.2500000E+02      :
          :  -> integral neglect         0.1000000E-07      :
          :  -> SCF convergence          0.1000000E-05 Eh   :
          :  -> wf. convergence          0.1000000E-03 e    :
          :  Broyden damping             0.4000000          :
          :  net charge                          1          :
          :  unpaired electrons                  0          :
          ...................................................

 iter      E             dE          RMSdq      gap      omega  full diag
   1    -23.8668862 -0.238669E+02  0.279E-05    9.75       0.0  T
   2    -23.8668862 -0.106226E-11  0.154E-05    9.75    1349.8  T
   3    -23.8668862  0.110134E-12  0.503E-06    9.75    4145.9  T

   *** convergence criteria satisfied after 3 iterations ***

         #    Occupation            Energy/Eh            Energy/eV
      -------------------------------------------------------------
         1        2.0000           -0.8681057             -23.6224
       ...           ...                  ...                  ...
        16        2.0000           -0.6472805             -17.6134
        17        2.0000           -0.6459295             -17.5766
        18        2.0000           -0.6357545             -17.2998
        19        2.0000           -0.6187093             -16.8359
        20        2.0000           -0.6140029             -16.7079
        21        2.0000           -0.6014288             -16.3657
        22        2.0000           -0.6009162             -16.3518 (HOMO)
        23                         -0.2425087              -6.5990 (LUMO)
        24                         -0.1691815              -4.6037
        25                         -0.1530725              -4.1653
        26                         -0.1470707              -4.0020
        27                         -0.0739000              -2.0109
       ...                                ...                  ...
        44                          0.1369150               3.7256
      -------------------------------------------------------------
                  HL-Gap            0.3584075 Eh            9.7528 eV
             Fermi-level           -0.4217124 Eh          -11.4754 eV

 SCC (total)                   0 d,  0 h,  0 min,  0.003 sec
 SCC setup                      ...        0 min,  0.000 sec (  1.487%)
 Dispersion                     ...        0 min,  0.000 sec (  1.989%)
 classical contributions        ...        0 min,  0.000 sec (  0.405%)
 integral evaluation            ...        0 min,  0.000 sec ( 12.784%)
 iterations                     ...        0 min,  0.001 sec ( 38.702%)
 molecular gradient             ...        0 min,  0.001 sec ( 42.349%)
 printout                       ...        0 min,  0.000 sec (  1.871%)

         :::::::::::::::::::::::::::::::::::::::::::::::::::::
         ::                     SUMMARY                     ::
         :::::::::::::::::::::::::::::::::::::::::::::::::::::
         :: total energy             -23.528541028606 Eh    ::
         :: gradient norm              0.000136942389 Eh/a0 ::
         :: HOMO-LUMO gap              9.752765463506 eV    ::
         ::.................................................::
         :: SCC energy               -23.866784828058 Eh    ::
         :: -> isotropic ES            0.085088695083 Eh    ::
         :: -> anisotropic ES         -0.008592216297 Eh    ::
         :: -> anisotropic XC          0.017204814469 Eh    ::
         :: -> dispersion             -0.014373526262 Eh    ::
         :: repulsion energy           0.338243799452 Eh    ::
         :: add. restraining           0.000000000000 Eh    ::
         :: total charge               1.000000000000 e     ::
         :::::::::::::::::::::::::::::::::::::::::::::::::::::

           -------------------------------------------------
          |                Property Printout                |
           -------------------------------------------------

    * Orbital Energies and Occupations

         #    Occupation            Energy/Eh            Energy/eV
      -------------------------------------------------------------
         1        2.0000           -0.8681057             -23.6224
       ...           ...                  ...                  ...
        10        2.0000           -0.7072023             -19.2440
        11        2.0000           -0.6818597             -18.5543
        12        2.0000           -0.6708087             -18.2536
        13        2.0000           -0.6590347             -17.9332
        14        2.0000           -0.6509953             -17.7145
        15        2.0000           -0.6481481             -17.6370
        16        2.0000           -0.6472805             -17.6134
        17        2.0000           -0.6459295             -17.5766
        18        2.0000           -0.6357545             -17.2998
        19        2.0000           -0.6187093             -16.8359
        20        2.0000           -0.6140029             -16.7079
        21        2.0000           -0.6014288             -16.3657
        22        2.0000           -0.6009162             -16.3518 (HOMO)
        23                         -0.2425087              -6.5990 (LUMO)
        24                         -0.1691815              -4.6037
        25                         -0.1530725              -4.1653
        26                         -0.1470707              -4.0020
        27                         -0.0739000              -2.0109
        28                         -0.0665613              -1.8112
        29                         -0.0411910              -1.1209
        30                         -0.0305498              -0.8313
        31                          0.0001404               0.0038
        32                          0.0168004               0.4572
        33                          0.0297302               0.8090
       ...                                ...                  ...
        44                          0.1369150               3.7256
      -------------------------------------------------------------
                  HL-Gap            0.3584075 Eh            9.7528 eV
             Fermi-level           -0.4217124 Eh          -11.4754 eV

     #   Z          covCN         q      C6AA      α(0)
     1   6 C        3.756    -0.135    23.145     6.860
     2   6 C        3.795     0.017    20.292     6.414
     3   7 N        3.619     0.132    18.995     6.473
     4   6 C        3.720    -0.096    22.450     6.767
     5   6 C        3.726    -0.097    22.451     6.765
     6   6 C        3.726    -0.097    22.451     6.765
     7   6 C        3.756    -0.135    23.145     6.860
     8   1 H        0.925     0.068     2.111     2.272
     9   1 H        0.925     0.087     1.908     2.160
    10   1 H        0.925     0.064     2.150     2.293
    11   1 H        0.924     0.076     2.021     2.223
    12   1 H        0.925     0.101     1.773     2.082
    13   1 H        0.925     0.097     1.811     2.104
    14   1 H        0.925     0.101     1.773     2.082
    15   1 H        0.925     0.097     1.811     2.105
    16   1 H        0.925     0.098     1.803     2.100
    17   1 H        0.925     0.103     1.761     2.075
    18   1 H        0.925     0.097     1.811     2.105
    19   1 H        0.925     0.103     1.761     2.075
    20   1 H        0.925     0.098     1.803     2.100
    21   1 H        0.925     0.087     1.908     2.160
    22   1 H        0.925     0.064     2.150     2.293
    23   1 H        0.925     0.068     2.111     2.272

 Mol. C6AA /au·bohr⁶  :       2989.700349
 Mol. C8AA /au·bohr⁸  :      62127.918514
 Mol. α(0) /au        :         81.407516


Wiberg/Mayer (AO) data.
largest (>0.10) Wiberg bond orders for each atom

 ---------------------------------------------------------------------------
     #   Z sym  total        # sym  WBO       # sym  WBO       # sym  WBO
 ---------------------------------------------------------------------------
     1   6 C    3.982 --     2 C    1.013     8 H    0.979    10 H    0.978
                             9 H    0.972
     2   6 C    3.931 --     7 C    1.013     1 C    1.013    11 H    0.960
                             3 N    0.890
     3   7 N    3.809 --     4 C    0.960     5 C    0.960     6 C    0.960
                             2 C    0.890
     4   6 C    3.927 --    13 H    0.974    12 H    0.972    14 H    0.972
                             3 N    0.960
     5   6 C    3.928 --    15 H    0.975    16 H    0.973    17 H    0.971
                             3 N    0.960
     6   6 C    3.928 --    18 H    0.975    20 H    0.973    19 H    0.971
                             3 N    0.960
     7   6 C    3.982 --     2 C    1.013    23 H    0.979    22 H    0.978
                            21 H    0.972
     8   1 H    0.995 --     1 C    0.979
     9   1 H    0.992 --     1 C    0.972
    10   1 H    0.996 --     1 C    0.978
    11   1 H    0.994 --     2 C    0.960
    12   1 H    0.990 --     4 C    0.972
    13   1 H    0.991 --     4 C    0.974
    14   1 H    0.990 --     4 C    0.972
    15   1 H    0.991 --     5 C    0.975
    16   1 H    0.990 --     5 C    0.973
    17   1 H    0.989 --     5 C    0.971
    18   1 H    0.991 --     6 C    0.975
    19   1 H    0.989 --     6 C    0.971
    20   1 H    0.990 --     6 C    0.973
    21   1 H    0.992 --     7 C    0.972
    22   1 H    0.996 --     7 C    0.978
    23   1 H    0.995 --     7 C    0.979
 ---------------------------------------------------------------------------

Topologies differ in total number of bonds
Writing topology from bond orders to xtbtopo.mol

molecular dipole:
                 x           y           z       tot (Debye)
 q only:        1.623       3.636      -1.971
   full:        1.663       3.693      -1.976      11.453
molecular quadrupole (traceless):
                xx          xy          yy          xz          yz          zz
 q only:       -5.857       9.426      10.563      -5.991     -12.420      -4.706
  q+dip:       -6.534      10.134      10.546      -5.952     -12.469      -4.012
   full:       -6.294       9.953      10.660      -5.998     -12.496      -4.365

           -------------------------------------------------
          |                Geometry Summary                 |
           -------------------------------------------------

      molecular mass/u    :      102.1981706
   center of mass at/Å    :        0.6855495       1.6659470      -0.7973328
  moments of inertia/u·Å² :        0.1593680E+03   0.2212270E+03   0.2680134E+03
rotational constants/cm⁻¹ :        0.1057780E+00   0.7620059E-01   0.6289848E-01

 * 22 selected distances

     #   Z          #   Z                                           value/Å
     1   6 C        2   6 C                                       1.5249277 (max)
     2   6 C        3   7 N                                       1.5228247
     3   7 N        4   6 C                                       1.4738379
     3   7 N        5   6 C                                       1.4771172
     3   7 N        6   6 C                                       1.4771172
     2   6 C        7   6 C                                       1.5249277
     1   6 C        8   1 H                                       1.0862485
     1   6 C        9   1 H                                       1.0869132
     1   6 C       10   1 H                                       1.0850690 (min)
     2   6 C       11   1 H                                       1.0950526
     4   6 C       12   1 H                                       1.0870402
     4   6 C       13   1 H                                       1.0885942
     4   6 C       14   1 H                                       1.0870402
     5   6 C       15   1 H                                       1.0885000
     5   6 C       16   1 H                                       1.0886088
     5   6 C       17   1 H                                       1.0865654
     6   6 C       18   1 H                                       1.0885000
     6   6 C       19   1 H                                       1.0865654
     6   6 C       20   1 H                                       1.0886088
     7   6 C       21   1 H                                       1.0869132
     7   6 C       22   1 H                                       1.0850690
     7   6 C       23   1 H                                       1.0862485

 * 3 distinct bonds (by element types)

   Z      Z             #   av. dist./Å        max./Å        min./Å
   1 H    6 C          16     1.0875961     1.0950526     1.0850690
   6 C    6 C           2     1.5249277     1.5249277     1.5249277
   6 C    7 N           4     1.4877243     1.5228247     1.4738379


optimized geometry written to: xtbopt.xyz


           -------------------------------------------------
          | TOTAL ENERGY              -23.528541028606 Eh   |
          | GRADIENT NORM               0.000136942389 Eh/α |
          | HOMO-LUMO GAP               9.752765463506 eV   |
           -------------------------------------------------

------------------------------------------------------------------------
 * finished run on 2024/12/20 at 02:15:04.714     
------------------------------------------------------------------------
 total:
 * wall-time:     0 d,  0 h,  0 min,  0.099 sec
 *  cpu-time:     0 d,  0 h,  0 min,  0.775 sec
 * ratio c/w:     7.842 speedup
 SCF:
 * wall-time:     0 d,  0 h,  0 min,  0.009 sec
 *  cpu-time:     0 d,  0 h,  0 min,  0.068 sec
 * ratio c/w:     7.892 speedup
 ANC optimizer:
 * wall-time:     0 d,  0 h,  0 min,  0.075 sec
 *  cpu-time:     0 d,  0 h,  0 min,  0.596 sec
 * ratio c/w:     7.989 speedup

