      -----------------------------------------------------------      
     |                   =====================                   |     
     |                           x T B                           |     
     |                   =====================                   |     
     |                         S. Grimme                         |     
     |          Mulliken Center for Theoretical Chemistry        |     
     |                    University of Bonn                     |     
      -----------------------------------------------------------      

   * xtb version 6.7.1 (edcfbbe) compiled by 'conda@3ef47c1a292c' on 2024-11-25

   xtb is free software: you can redistribute it and/or modify it under
   the terms of the GNU Lesser General Public License as published by
   the Free Software Foundation, either version 3 of the License, or
   (at your option) any later version.
   
   xtb is distributed in the hope that it will be useful,
   but WITHOUT ANY WARRANTY; without even the implied warranty of
   MERCHANTABILITY or FITNESS FOR A PARTICULAR PURPOSE.  See the
   GNU Lesser General Public License for more details.
   
   Cite this work as:
   * C. Bannwarth, E. Caldeweyher, S. Ehlert, A. Hansen, P. Pracht,
     J. Seibert, S. Spicher, S. Grimme, WIREs Comput. Mol. Sci., 2020, 11,
     e01493. DOI: 10.1002/wcms.1493
   
   for GFN2-xTB:
   * C. Bannwarth, S. Ehlert and S. Grimme., J. Chem. Theory Comput., 2019,
     15, 1652-1671. DOI: 10.1021/acs.jctc.8b01176
   for GFN1-xTB:
   * S. Grimme, C. Bannwarth, P. Shushkov, J. Chem. Theory Comput., 2017,
     13, 1989-2009. DOI: 10.1021/acs.jctc.7b00118
   for GFN0-xTB:
   * P. Pracht, E. Caldeweyher, S. Ehlert, S. Grimme, ChemRxiv, 2019, preprint.
     DOI: 10.26434/chemrxiv.8326202.v1
   for GFN-FF:
   * S. Spicher and S. Grimme, Angew. Chem. Int. Ed., 2020, 59, 15665-15673.
     DOI: 10.1002/anie.202004239
   
   for ALPB and GBSA implicit solvation:
   * S. Ehlert, M. Stahn, S. Spicher, S. Grimme, J. Chem. Theory Comput.,
     2021, 17, 4250-4261. DOI: 10.1021/acs.jctc.1c00471
   
   for ddCOSMO and CPCM-X implicit solvation:
   * M. Stahn, S. Ehlert, S. Grimme, J. Phys. Chem. A,
     2023, XX, XXXX-XXXX. DOI: 10.1021/acs.jpca.3c04382
   
   for DFT-D4:
   * E. Caldeweyher, C. Bannwarth and S. Grimme, J. Chem. Phys., 2017,
     147, 034112. DOI: 10.1063/1.4993215
   * E. Caldeweyher, S. Ehlert, A. Hansen, H. Neugebauer, S. Spicher,
     C. Bannwarth and S. Grimme, J. Chem. Phys., 2019, 150, 154122.
     DOI: 10.1063/1.5090222
   * E. Caldeweyher, J.-M. Mewes, S. Ehlert and S. Grimme, Phys. Chem. Chem. Phys.
     2020, 22, 8499-8512. DOI: 10.1039/D0CP00502A
   
   for sTDA-xTB:
   * S. Grimme and C. Bannwarth, J. Chem. Phys., 2016, 145, 054103.
     DOI: 10.1063/1.4959605
   
   in the mass-spec context:
   * V. Asgeirsson, C. Bauer and S. Grimme, Chem. Sci., 2017, 8, 4879.
     DOI: 10.1039/c7sc00601b
   * J. Koopman and S. Grimme, ACS Omega 2019, 4, 12, 15120-15133.
     DOI: 10.1021/acsomega.9b02011
   
   for metadynamics refer to:
   * S. Grimme, J. Chem. Theory Comput., 2019, 155, 2847-2862
     DOI: 10.1021/acs.jctc.9b00143
   
   for SPH calculations refer to:
   * S. Spicher and S. Grimme, J. Chem. Theory Comput., 2021, 17, 1701-1714
     DOI: 10.1021/acs.jctc.0c01306
   
   for ONIOM refer to:
   * C. Plett, A. Katbashev, S. Ehlert, S. Grimme, M. Bursch,
     Phys. Chem. Chem. Phys., 2023, 25, 17860-17868. DOI: 10.1039/D3CP02178E
   
   for DIPRO refer to:
   * J. Kohn, N. Gildemeister, S. Grimme, D. Fazzi, A. Hansen,
     J. Chem. Phys., 2023, just accepted.
   
   for PTB refer to:
   * S. Grimme, M. Mueller, A. Hansen, J. Chem. Phys., 2023, 158, 124111.
     DOI: 10.1063/5.0137838
   
   with help from (in alphabetical order)
   P. Atkinson, C. Bannwarth, F. Bohle, G. Brandenburg, E. Caldeweyher
   M. Checinski, S. Dohm, S. Ehlert, S. Ehrlich, I. Gerasimov, C. Hölzer
   A. Katbashev, J. Kohn, J. Koopman, C. Lavigne, S. Lehtola, F. März, M. Müller,
   F. Musil, H. Neugebauer, J. Pisarek, C. Plett, P. Pracht, F. Pultar,
   J. Seibert, P. Shushkov, S. Spicher, M. Stahn, M. Steiner, T. Strunk,
   J. Stückrath, T. Rose, and J. Unsleber
   
 * started run on 2024/12/20 at 06:41:17.131     
   ID    Z sym.   atoms
    1    6 C      1-3, 5-10
    2    7 N      4, 12
    3    8 O      11
    4    1 H      13-25

           -------------------------------------------------
          |                Calculation Setup                |
           -------------------------------------------------

          program call               : xtb C0347.xyz --opt --namespace C0347 --charge +1
          calculation namespace      : C0347
          coordinate file            : C0347.xyz
          omp threads                :                     8


           -------------------------------------------------
          |                 G F N 2 - x T B                 |
           -------------------------------------------------

        Reference                      10.1021/acs.jctc.8b01176
      * Hamiltonian:
        H0-scaling (s, p, d)           1.850000    2.230000    2.230000
        zeta-weighting                 0.500000
      * Dispersion:
        s8                             2.700000
        a1                             0.520000
        a2                             5.000000
        s9                             5.000000
      * Repulsion:
        kExp                           1.500000    1.000000
        rExp                           1.000000
      * Coulomb:
        alpha                          2.000000
        third order                    shell-resolved
        anisotropic                    true
        a3                             3.000000
        a5                             4.000000
        cn-shift                       1.200000
        cn-exp                         4.000000
        max-rad                        5.000000


          ...................................................
          :                      SETUP                      :
          :.................................................:
          :  # basis functions                  61          :
          :  # atomic orbitals                  61          :
          :  # shells                           37          :
          :  # electrons                        64          :
          :  max. iterations                   250          :
          :  Hamiltonian                  GFN2-xTB          :
          :  restarted?                      false          :
          :  GBSA solvation                  false          :
          :  PC potential                    false          :
          :  electronic temp.          300.0000000     K    :
          :  accuracy                    1.0000000          :
          :  -> integral cutoff          0.2500000E+02      :
          :  -> integral neglect         0.1000000E-07      :
          :  -> SCF convergence          0.1000000E-05 Eh   :
          :  -> wf. convergence          0.1000000E-03 e    :
          :  Broyden damping             0.4000000          :
          :  net charge                          1          :
          :  unpaired electrons                  0          :
          ...................................................

 iter      E             dE          RMSdq      gap      omega  full diag
   1    -35.7487908 -0.357488E+02  0.442E+00    3.00       0.0  T
   2    -35.8845455 -0.135755E+00  0.287E+00    1.61       1.0  T
   3    -35.9016236 -0.170781E-01  0.158E+00    2.04       1.0  T
   4    -35.9005228  0.110079E-02  0.675E-01    1.86       1.0  T
   5    -35.9106674 -0.101446E-01  0.104E-01    1.98       1.0  T
   6    -35.9107327 -0.653586E-04  0.490E-02    2.00       1.0  T
   7    -35.9107349 -0.213042E-05  0.251E-02    2.00       1.0  T
   8    -35.9107389 -0.401635E-05  0.683E-03    2.00       2.9  T
   9    -35.9107393 -0.446494E-06  0.333E-03    2.00       6.0  T
  10    -35.9107394 -0.612284E-07  0.142E-03    2.00      14.1  T
  11    -35.9107394 -0.703087E-08  0.649E-04    2.00      30.8  T
  12    -35.9107394 -0.362415E-08  0.253E-04    2.00      79.0  T

   *** convergence criteria satisfied after 12 iterations ***

         #    Occupation            Energy/Eh            Energy/eV
      -------------------------------------------------------------
         1        2.0000           -0.8820340             -24.0014
       ...           ...                  ...                  ...
        26        2.0000           -0.6224215             -16.9369
        27        2.0000           -0.6164471             -16.7744
        28        2.0000           -0.5982094             -16.2781
        29        2.0000           -0.5837857             -15.8856
        30        2.0000           -0.5773757             -15.7112
        31        2.0000           -0.5609000             -15.2629
        32        2.0000           -0.5429335             -14.7740 (HOMO)
        33                         -0.4695040             -12.7759 (LUMO)
        34                         -0.4463406             -12.1455
        35                         -0.3624119              -9.8617
        36                         -0.2978112              -8.1039
        37                         -0.2118643              -5.7651
       ...                                ...                  ...
        61                          0.4901069              13.3365
      -------------------------------------------------------------
                  HL-Gap            0.0734295 Eh            1.9981 eV
             Fermi-level           -0.5062188 Eh          -13.7749 eV

 SCC (total)                   0 d,  0 h,  0 min,  0.013 sec
 SCC setup                      ...        0 min,  0.000 sec (  0.772%)
 Dispersion                     ...        0 min,  0.000 sec (  1.466%)
 classical contributions        ...        0 min,  0.000 sec (  0.308%)
 integral evaluation            ...        0 min,  0.001 sec (  6.877%)
 iterations                     ...        0 min,  0.010 sec ( 73.666%)
 molecular gradient             ...        0 min,  0.002 sec ( 16.087%)
 printout                       ...        0 min,  0.000 sec (  0.712%)

         :::::::::::::::::::::::::::::::::::::::::::::::::::::
         ::                     SUMMARY                     ::
         :::::::::::::::::::::::::::::::::::::::::::::::::::::
         :: total energy             -35.403027417079 Eh    ::
         :: gradient norm              0.060456255909 Eh/a0 ::
         :: HOMO-LUMO gap              1.998117824046 eV    ::
         ::.................................................::
         :: SCC energy               -35.910566210629 Eh    ::
         :: -> isotropic ES            0.121096229569 Eh    ::
         :: -> anisotropic ES         -0.011630702737 Eh    ::
         :: -> anisotropic XC          0.021543542119 Eh    ::
         :: -> dispersion             -0.019432617071 Eh    ::
         :: repulsion energy           0.507538793550 Eh    ::
         :: add. restraining           0.000000000000 Eh    ::
         :: total charge               1.000000000000 e     ::
         :::::::::::::::::::::::::::::::::::::::::::::::::::::

      ----------------------------------------------------------- 
     |                   =====================                   |
     |                        A N C O P T                        |
     |                   =====================                   |
     |               Approximate Normal Coordinate               |
     |                Rational Function Optimizer                |
      ----------------------------------------------------------- 
      ----------------------------------------------------------- 
     |                   =====================                   |
     |                        A N C O P T                        |
     |                   =====================                   |
     |               Approximate Normal Coordinate               |
     |                Rational Function Optimizer                |
      ----------------------------------------------------------- 

          ...................................................
          :                      SETUP                      :
          :.................................................:
          :   optimization level            normal          :
          :   max. optcycles                   200          :
          :   ANC micro-cycles                  20          :
          :   degrees of freedom                69          :
          :.................................................:
          :   RF solver                   davidson          :
          :   write xtbopt.log                true          :
          :   linear?                        false          :
          :   energy convergence         0.5000000E-05 Eh   :
          :   grad. convergence          0.1000000E-02 Eh/α :
          :   maxmium RF displ.          1.0000000          :
          :   Hlow (freq-cutoff)         0.1000000E-01      :
          :   Hmax (freq-cutoff)         5.0000000          :
          :   S6 in model hess.         20.0000000          :
          ...................................................

generating ANC from exact Hessian ...
Using Lindh-Hessian (1995)
 Shifting diagonal of input Hessian by    8.9976944824538066E-003
 Lowest  eigenvalues of input Hessian
    0.000000    0.000000    0.000000    0.000000    0.000000    0.000000
    0.010000    0.010504    0.011997    0.013676    0.014412    0.016889
    0.018825    0.021440    0.025906    0.026514    0.029610    0.033258
 Highest eigenvalues
    1.620496    1.854677    1.938362    2.054326    2.102313    2.328896


........................................................................
.............................. CYCLE    1 ..............................
........................................................................

 iter      E             dE          RMSdq      gap      omega  full diag
   1    -35.9107394 -0.359107E+02  0.791E-05    2.00       0.0  T
   2    -35.9107394 -0.406217E-10  0.411E-05    2.00     487.2  T
   3    -35.9107394 -0.133298E-10  0.240E-05    2.00     834.2  T
     SCC iter.                  ...        0 min,  0.002 sec
     gradient                   ...        0 min,  0.002 sec
 * total energy  :   -35.4030274 Eh     change       -0.6667804E-09 Eh
   gradient norm :     0.0604578 Eh/α   predicted     0.0000000E+00 (-100.00%)
   displ. norm   :     0.1656023 α      lambda       -0.5029482E-02
   maximum displ.:     0.0497128 α      in ANC's #23, #18, #39, ...

........................................................................
.............................. CYCLE    2 ..............................
........................................................................

 iter      E             dE          RMSdq      gap      omega  full diag
   1    -35.9328195 -0.359328E+02  0.156E-01    2.07       0.0  T
   2    -35.9329174 -0.978425E-04  0.964E-02    2.09       1.0  T
   3    -35.9329177 -0.377431E-06  0.461E-02    2.10       1.0  T
   4    -35.9329283 -0.105210E-04  0.191E-02    2.10       1.0  T
   5    -35.9329358 -0.755335E-05  0.268E-03    2.10       7.5  T
   6    -35.9329358 -0.134613E-07  0.144E-03    2.10      13.9  T
   7    -35.9329358 -0.874739E-08  0.453E-04    2.10      44.2  T
   8    -35.9329358 -0.178690E-08  0.167E-04    2.10     119.5  T
     SCC iter.                  ...        0 min,  0.005 sec
     gradient                   ...        0 min,  0.002 sec
 * total energy  :   -35.4063416 Eh     change       -0.3314206E-02 Eh
   gradient norm :     0.0273963 Eh/α   predicted    -0.2584059E-02 ( -22.03%)
   displ. norm   :     0.1374659 α      lambda       -0.1538537E-02
   maximum displ.:     0.0546507 α      in ANC's #2, #1, #24, ...

........................................................................
.............................. CYCLE    3 ..............................
........................................................................

 iter      E             dE          RMSdq      gap      omega  full diag
   1    -35.9441731 -0.359442E+02  0.942E-02    2.14       0.0  T
   2    -35.9442306 -0.575016E-04  0.619E-02    2.15       1.0  T
   3    -35.9442368 -0.613033E-05  0.305E-02    2.17       1.0  T
   4    -35.9442377 -0.907636E-06  0.145E-02    2.16       1.4  T
   5    -35.9442412 -0.358385E-05  0.184E-03    2.17      10.9  T
   6    -35.9442413 -0.153934E-07  0.105E-03    2.17      19.0  T
   7    -35.9442413 -0.572904E-08  0.340E-04    2.17      58.8  T
   8    -35.9442413 -0.927663E-09  0.117E-04    2.17     171.5  T
     SCC iter.                  ...        0 min,  0.005 sec
     gradient                   ...        0 min,  0.002 sec
 * total energy  :   -35.4072158 Eh     change       -0.8742087E-03 Eh
   gradient norm :     0.0086682 Eh/α   predicted    -0.7841987E-03 ( -10.30%)
   displ. norm   :     0.1019197 α      lambda       -0.2857294E-03
   maximum displ.:     0.0605735 α      in ANC's #2, #1, #27, ...

........................................................................
.............................. CYCLE    4 ..............................
........................................................................

 iter      E             dE          RMSdq      gap      omega  full diag
   1    -35.9432088 -0.359432E+02  0.481E-02    2.17       0.0  T
   2    -35.9432123 -0.352195E-05  0.288E-02    2.17       1.0  T
   3    -35.9432113  0.105325E-05  0.106E-02    2.18       1.9  T
   4    -35.9432129 -0.161978E-05  0.269E-03    2.18       7.4  T
   5    -35.9432130 -0.139116E-06  0.993E-04    2.18      20.1  T
   6    -35.9432130 -0.477606E-08  0.454E-04    2.17      44.1  T
     SCC iter.                  ...        0 min,  0.004 sec
     gradient                   ...        0 min,  0.002 sec
 * total energy  :   -35.4074243 Eh     change       -0.2085128E-03 Eh
   gradient norm :     0.0051195 Eh/α   predicted    -0.1443586E-03 ( -30.77%)
   displ. norm   :     0.1515078 α      lambda       -0.2239858E-03
   maximum displ.:     0.0957991 α      in ANC's #2, #1, #3, ...

........................................................................
.............................. CYCLE    5 ..............................
........................................................................

 iter      E             dE          RMSdq      gap      omega  full diag
   1    -35.9411353 -0.359411E+02  0.621E-02    2.17       0.0  T
   2    -35.9411398 -0.446251E-05  0.363E-02    2.17       1.0  T
   3    -35.9411390  0.843789E-06  0.115E-02    2.18       1.7  T
   4    -35.9411404 -0.147584E-05  0.263E-03    2.17       7.6  T
   5    -35.9411406 -0.120965E-06  0.123E-03    2.17      16.2  T
   6    -35.9411406 -0.113579E-07  0.515E-04    2.17      38.8  T
   7    -35.9411406 -0.130080E-08  0.168E-04    2.17     119.1  T
     SCC iter.                  ...        0 min,  0.004 sec
     gradient                   ...        0 min,  0.002 sec
 * total energy  :   -35.4075704 Eh     change       -0.1460136E-03 Eh
   gradient norm :     0.0043955 Eh/α   predicted    -0.1145654E-03 ( -21.54%)
   displ. norm   :     0.1102184 α      lambda       -0.8332878E-04
   maximum displ.:     0.0700225 α      in ANC's #2, #1, #3, ...

........................................................................
.............................. CYCLE    6 ..............................
........................................................................

 iter      E             dE          RMSdq      gap      omega  full diag
   1    -35.9407363 -0.359407E+02  0.427E-02    2.17       0.0  T
   2    -35.9407381 -0.183393E-05  0.248E-02    2.16       1.0  T
   3    -35.9407378  0.263660E-06  0.738E-03    2.17       2.7  T
   4    -35.9407383 -0.489985E-06  0.164E-03    2.17      12.2  T
   5    -35.9407384 -0.497301E-07  0.717E-04    2.17      27.9  T
   6    -35.9407384 -0.236532E-08  0.303E-04    2.17      65.9  T
     SCC iter.                  ...        0 min,  0.004 sec
     gradient                   ...        0 min,  0.002 sec
 * total energy  :   -35.4076347 Eh     change       -0.6434936E-04 Eh
   gradient norm :     0.0041438 Eh/α   predicted    -0.4217111E-04 ( -34.47%)
   displ. norm   :     0.1385620 α      lambda       -0.8732392E-04
   maximum displ.:     0.0868609 α      in ANC's #1, #2, #3, ...

........................................................................
.............................. CYCLE    7 ..............................
........................................................................

 iter      E             dE          RMSdq      gap      omega  full diag
   1    -35.9412827 -0.359413E+02  0.521E-02    2.17       0.0  T
   2    -35.9412849 -0.214937E-05  0.302E-02    2.16       1.0  T
   3    -35.9412843  0.537277E-06  0.871E-03    2.16       2.3  T
   4    -35.9412852 -0.856560E-06  0.186E-03    2.16      10.7  T
   5    -35.9412852 -0.640105E-07  0.808E-04    2.16      24.8  T
   6    -35.9412852 -0.148138E-08  0.332E-04    2.16      60.2  T
     SCC iter.                  ...        0 min,  0.004 sec
     gradient                   ...        0 min,  0.002 sec
 * total energy  :   -35.4076999 Eh     change       -0.6518604E-04 Eh
   gradient norm :     0.0030187 Eh/α   predicted    -0.4450512E-04 ( -31.73%)
   displ. norm   :     0.1367568 α      lambda       -0.6090197E-04
   maximum displ.:     0.0907923 α      in ANC's #1, #2, #3, ...

........................................................................
.............................. CYCLE    8 ..............................
........................................................................

 iter      E             dE          RMSdq      gap      omega  full diag
   1    -35.9421409 -0.359421E+02  0.488E-02    2.16       0.0  T
   2    -35.9421423 -0.134238E-05  0.284E-02    2.16       1.0  T
   3    -35.9421415  0.790925E-06  0.803E-03    2.16       2.5  T
   4    -35.9421425 -0.106257E-05  0.171E-03    2.16      11.7  T
   5    -35.9421426 -0.585591E-07  0.724E-04    2.16      27.6  T
   6    -35.9421426 -0.102523E-08  0.283E-04    2.16      70.7  T
     SCC iter.                  ...        0 min,  0.004 sec
     gradient                   ...        0 min,  0.002 sec
 * total energy  :   -35.4077450 Eh     change       -0.4506576E-04 Eh
   gradient norm :     0.0023655 Eh/α   predicted    -0.3103351E-04 ( -31.14%)
   displ. norm   :     0.1178997 α      lambda       -0.3964989E-04
   maximum displ.:     0.0818778 α      in ANC's #1, #2, #3, ...

........................................................................
.............................. CYCLE    9 ..............................
........................................................................

 iter      E             dE          RMSdq      gap      omega  full diag
   1    -35.9428300 -0.359428E+02  0.393E-02    2.16       0.0  T
   2    -35.9428305 -0.509081E-06  0.231E-02    2.16       1.0  T
   3    -35.9428295  0.973435E-06  0.690E-03    2.16       2.9  T
   4    -35.9428307 -0.119264E-05  0.111E-03    2.16      18.1  T
   5    -35.9428307 -0.179150E-07  0.541E-04    2.16      37.0  T
   6    -35.9428307 -0.530555E-09  0.209E-04    2.16      95.8  T
     SCC iter.                  ...        0 min,  0.004 sec
     gradient                   ...        0 min,  0.002 sec
 * total energy  :   -35.4077757 Eh     change       -0.3077280E-04 Eh
   gradient norm :     0.0022895 Eh/α   predicted    -0.2010134E-04 ( -34.68%)
   displ. norm   :     0.1112669 α      lambda       -0.3276343E-04
   maximum displ.:     0.0790730 α      in ANC's #1, #2, #4, ...

........................................................................
.............................. CYCLE   10 ..............................
........................................................................

 iter      E             dE          RMSdq      gap      omega  full diag
   1    -35.9431607 -0.359432E+02  0.359E-02    2.16       0.0  T
   2    -35.9431610 -0.272264E-06  0.211E-02    2.16       1.0  T
   3    -35.9431599  0.105113E-05  0.661E-03    2.16       3.0  T
   4    -35.9431612 -0.125584E-05  0.735E-04    2.16      27.2  T
   5    -35.9431612 -0.254848E-08  0.429E-04    2.16      46.6  T
   6    -35.9431612 -0.315815E-09  0.163E-04    2.16     122.8  T
     SCC iter.                  ...        0 min,  0.004 sec
     gradient                   ...        0 min,  0.002 sec
 * total energy  :   -35.4078017 Eh     change       -0.2594675E-04 Eh
   gradient norm :     0.0022663 Eh/α   predicted    -0.1659508E-04 ( -36.04%)
   displ. norm   :     0.1056033 α      lambda       -0.2790405E-04
   maximum displ.:     0.0763431 α      in ANC's #1, #2, #4, ...

........................................................................
.............................. CYCLE   11 ..............................
........................................................................

 iter      E             dE          RMSdq      gap      omega  full diag
   1    -35.9431366 -0.359431E+02  0.338E-02    2.16       0.0  T
   2    -35.9431368 -0.189835E-06  0.199E-02    2.16       1.0  T
   3    -35.9431360  0.771281E-06  0.563E-03    2.16       3.5  T
   4    -35.9431370 -0.922889E-06  0.656E-04    2.16      30.5  T
   5    -35.9431370 -0.110893E-08  0.392E-04    2.16      51.1  T
     SCC iter.                  ...        0 min,  0.003 sec
     gradient                   ...        0 min,  0.002 sec
 * total energy  :   -35.4078237 Eh     change       -0.2198382E-04 Eh
   gradient norm :     0.0019327 Eh/α   predicted    -0.1410900E-04 ( -35.82%)
   displ. norm   :     0.1443872 α      lambda       -0.2290988E-04
   maximum displ.:     0.1056841 α      in ANC's #1, #4, #2, ...

........................................................................
.............................. CYCLE   12 ..............................
........................................................................

 iter      E             dE          RMSdq      gap      omega  full diag
   1    -35.9427378 -0.359427E+02  0.469E-02    2.16       0.0  T
   2    -35.9427382 -0.403748E-06  0.275E-02    2.16       1.0  T
   3    -35.9427373  0.863871E-06  0.631E-03    2.16       3.2  T
   4    -35.9427384 -0.107695E-05  0.105E-03    2.16      19.1  T
   5    -35.9427384 -0.602991E-08  0.611E-04    2.16      32.7  T
   6    -35.9427384 -0.115040E-08  0.193E-04    2.16     103.8  T
     SCC iter.                  ...        0 min,  0.004 sec
     gradient                   ...        0 min,  0.002 sec
 * total energy  :   -35.4078476 Eh     change       -0.2393750E-04 Eh
   gradient norm :     0.0016919 Eh/α   predicted    -0.1156374E-04 ( -51.69%)
   displ. norm   :     0.0913737 α      lambda       -0.1536177E-04
   maximum displ.:     0.0690660 α      in ANC's #1, #4, #5, ...

........................................................................
.............................. CYCLE   13 ..............................
........................................................................

 iter      E             dE          RMSdq      gap      omega  full diag
   1    -35.9426064 -0.359426E+02  0.301E-02    2.16       0.0  T
   2    -35.9426066 -0.266354E-06  0.177E-02    2.16       1.1  T
   3    -35.9426066  0.390912E-07  0.237E-03    2.16       8.4  T
   4    -35.9426067 -0.938202E-07  0.786E-04    2.16      25.5  T
   5    -35.9426067 -0.470778E-08  0.441E-04    2.16      45.3  T
     SCC iter.                  ...        0 min,  0.003 sec
     gradient                   ...        0 min,  0.002 sec
 * total energy  :   -35.4078670 Eh     change       -0.1937277E-04 Eh
   gradient norm :     0.0015793 Eh/α   predicted    -0.7715463E-05 ( -60.17%)
   displ. norm   :     0.1322809 α      lambda       -0.2339326E-04
   maximum displ.:     0.1001047 α      in ANC's #1, #4, #5, ...

........................................................................
.............................. CYCLE   14 ..............................
........................................................................

 iter      E             dE          RMSdq      gap      omega  full diag
   1    -35.9423223 -0.359423E+02  0.457E-02    2.16       0.0  T
   2    -35.9423229 -0.553922E-06  0.268E-02    2.17       1.0  T
   3    -35.9423229  0.969334E-08  0.306E-03    2.17       6.5  T
   4    -35.9423230 -0.132240E-06  0.107E-03    2.17      18.7  T
   5    -35.9423230 -0.298895E-08  0.558E-04    2.17      35.8  T
   6    -35.9423230 -0.192634E-08  0.207E-04    2.17      96.5  T
     SCC iter.                  ...        0 min,  0.004 sec
     gradient                   ...        0 min,  0.002 sec
 * total energy  :   -35.4078923 Eh     change       -0.2530310E-04 Eh
   gradient norm :     0.0017191 Eh/α   predicted    -0.1178927E-04 ( -53.41%)
   displ. norm   :     0.0998129 α      lambda       -0.1222912E-04
   maximum displ.:     0.0803512 α      in ANC's #1, #4, #5, ...

........................................................................
.............................. CYCLE   15 ..............................
........................................................................

 iter      E             dE          RMSdq      gap      omega  full diag
   1    -35.9426914 -0.359427E+02  0.324E-02    2.16       0.0  T
   2    -35.9426923 -0.905973E-06  0.192E-02    2.17       1.0  T
   3    -35.9426922  0.274628E-07  0.381E-03    2.17       5.2  T
   4    -35.9426924 -0.124190E-06  0.771E-04    2.17      25.9  T
   5    -35.9426924 -0.119634E-08  0.436E-04    2.17      45.8  T
     SCC iter.                  ...        0 min,  0.003 sec
     gradient                   ...        0 min,  0.002 sec
 * total energy  :   -35.4079034 Eh     change       -0.1114413E-04 Eh
   gradient norm :     0.0017401 Eh/α   predicted    -0.6145954E-05 ( -44.85%)
   displ. norm   :     0.0800940 α      lambda       -0.8373047E-05
   maximum displ.:     0.0639468 α      in ANC's #1, #4, #5, ...

........................................................................
.............................. CYCLE   16 ..............................
........................................................................

 iter      E             dE          RMSdq      gap      omega  full diag
   1    -35.9423178 -0.359423E+02  0.305E-02    2.17       0.0  T
   2    -35.9423182 -0.406409E-06  0.179E-02    2.17       1.1  T
   3    -35.9423178  0.317819E-06  0.449E-03    2.17       4.5  T
   4    -35.9423183 -0.407032E-06  0.994E-04    2.17      20.1  T
   5    -35.9423183 -0.200112E-07  0.437E-04    2.17      45.7  T
     SCC iter.                  ...        0 min,  0.003 sec
     gradient                   ...        0 min,  0.002 sec
 * total energy  :   -35.4079091 Eh     change       -0.5674336E-05 Eh
   gradient norm :     0.0020101 Eh/α   predicted    -0.4204740E-05 ( -25.90%)
   displ. norm   :     0.0163290 α      lambda       -0.4237134E-05
   maximum displ.:     0.0148972 α      in ANC's #1, #3, #4, ...

........................................................................
.............................. CYCLE   17 ..............................
........................................................................

 iter      E             dE          RMSdq      gap      omega  full diag
   1    -35.9426271 -0.359426E+02  0.456E-03    2.17       0.0  T
   2    -35.9426272 -0.335219E-07  0.272E-03    2.17       7.4  T
   3    -35.9426272  0.161817E-08  0.902E-04    2.17      22.2  T
   4    -35.9426272 -0.560339E-08  0.194E-04    2.17     103.2  T
     SCC iter.                  ...        0 min,  0.002 sec
     gradient                   ...        0 min,  0.002 sec
 * total energy  :   -35.4079127 Eh     change       -0.3605144E-05 Eh
   gradient norm :     0.0010825 Eh/α   predicted    -0.2122150E-05 ( -41.14%)
   displ. norm   :     0.0611137 α      lambda       -0.7306816E-05
   maximum displ.:     0.0552975 α      in ANC's #1, #3, #8, ...

........................................................................
.............................. CYCLE   18 ..............................
........................................................................

 iter      E             dE          RMSdq      gap      omega  full diag
   1    -35.9432534 -0.359433E+02  0.175E-02    2.17       0.0  T
   2    -35.9432536 -0.164100E-06  0.104E-02    2.17       1.9  T
   3    -35.9432535  0.881163E-07  0.269E-03    2.17       7.4  T
   4    -35.9432536 -0.131873E-06  0.637E-04    2.17      31.4  T
   5    -35.9432536 -0.428040E-08  0.346E-04    2.17      57.8  T
     SCC iter.                  ...        0 min,  0.003 sec
     gradient                   ...        0 min,  0.002 sec
 * total energy  :   -35.4079182 Eh     change       -0.5454136E-05 Eh
   gradient norm :     0.0015475 Eh/α   predicted    -0.3662448E-05 ( -32.85%)
   displ. norm   :     0.0245864 α      lambda       -0.1572921E-05
   maximum displ.:     0.0209526 α      in ANC's #1, #3, #5, ...

........................................................................
.............................. CYCLE   19 ..............................
........................................................................

 iter      E             dE          RMSdq      gap      omega  full diag
   1    -35.9430871 -0.359431E+02  0.809E-03    2.17       0.0  T
   2    -35.9430872 -0.606959E-07  0.468E-03    2.17       4.3  T
   3    -35.9430872  0.108808E-07  0.135E-03    2.17      14.8  T
   4    -35.9430872 -0.168681E-07  0.308E-04    2.17      65.0  T
   5    -35.9430872 -0.227585E-08  0.111E-04    2.17     180.1  T
     SCC iter.                  ...        0 min,  0.003 sec
     gradient                   ...        0 min,  0.002 sec
 * total energy  :   -35.4079202 Eh     change       -0.2008358E-05 Eh
   gradient norm :     0.0008839 Eh/α   predicted    -0.7900742E-06 ( -60.66%)
   displ. norm   :     0.0278313 α      lambda       -0.1734237E-05
   maximum displ.:     0.0219746 α      in ANC's #1, #2, #3, ...

   *** GEOMETRY OPTIMIZATION CONVERGED AFTER 19 ITERATIONS ***

------------------------------------------------------------------------
 total energy gain   :        -0.0048927 Eh       -3.0702 kcal/mol
 total RMSD          :         0.3070692 a0        0.1625 Å
 total power (kW/mol):        -0.6761001 (step)  -92.8184 (real)
------------------------------------------------------------------------

 ANCopt (total)                0 d,  0 h,  0 min,  0.138 sec
 optimizer setup                ...        0 min,  0.000 sec (  0.053%)
 model hessian                  ...        0 min,  0.009 sec (  6.459%)
 ANC generation                 ...        0 min,  0.000 sec (  0.296%)
 coordinate transformation      ...        0 min,  0.000 sec (  0.093%)
 single point calculation       ...        0 min,  0.125 sec ( 90.566%)
 optimization log               ...        0 min,  0.001 sec (  0.945%)
 hessian update                 ...        0 min,  0.000 sec (  0.196%)
 rational function              ...        0 min,  0.001 sec (  0.892%)

================
 final structure:
================
25
 xtb: 6.7.1 (edcfbbe)
C            1.88575477594268        0.32101806313035        0.36303867431406
C            0.60052060837396       -0.24621688351772        0.94959867010254
C            0.27379958330186        0.32934709732723        2.33619045884389
N            0.00655451865496        1.75404812154415        2.24611514496875
C           -1.19854518278580        2.16896441345634        1.83945328018136
C           -1.46039339835694        3.50752831435467        1.62939778774724
C           -0.44846237446901        4.43438006660010        1.83190400861157
C            0.79357789816992        3.99146617037183        2.28649808578780
C            0.98666790428385        2.63469791303998        2.47859136172652
C            1.92378972889025        4.99851465130606        2.40359461800482
O            2.04579280346043        5.84610155540146        1.55874868111881
N            2.74700512820155        4.82891101437769        3.45419513551527
H            1.81226828583365        1.39263982583430        0.18524756757679
H            2.09033676423610       -0.15622138267482       -0.59068007011318
H            2.73145339219914        0.12827693736262        1.01876746189437
H           -0.23262479459405       -0.05708627416286        0.27039224915923
H            0.69961068067501       -1.32576864258315        1.06241029052094
H           -0.60567540106910       -0.17092672734630        2.74602229101492
H            1.11736540584874        0.16581437448742        3.00875225647028
H           -1.95112742216702        1.41185131687709        1.67444679233062
H           -2.43828980085559        3.81602411198393        1.29609945164405
H           -0.59492326203534        5.48619406500323        1.63681657389474
H            1.94094416664470        2.24020277239290        2.79709408968874
H            2.54019718337143        4.22270775949470        4.22839276290394
H            3.48676280824522        5.50473136593846        3.57434237609146

 Bond Distances (Angstroems)
 ---------------------------
C1-C2=1.5224         C1-H13=1.0888        C1-H14=1.0859        C1-H15=1.0874        C2-C1=1.5224         C2-C3=1.5364         
C2-H16=1.0914        C2-H17=1.0899        C3-C2=1.5364         C3-N4=1.4523         C3-H18=1.0917        C3-H19=1.0912        
N4-C3=1.4523         N4-C5=1.3378         N4-C9=1.3380         C5-N4=1.3378         C5-C6=1.3800         C5-H20=1.0802        
C6-C5=1.3800         C6-C7=1.3871         C6-H21=1.0782        C7-C6=1.3871         C7-C8=1.3948         C7-H22=1.0797        
C8-C7=1.3948         C8-C9=1.3838         C8-C10=1.5183        C9-N4=1.3380         C9-C8=1.3838         C9-H23=1.0806        
C10-C8=1.5183        C10-O11=1.2029       C10-N12=1.3454       O11-C10=1.2029       N12-C10=1.3454       N12-H24=1.0048       
N12-H25=1.0092       H13-C1=1.0888        H14-C1=1.0859        H15-C1=1.0874        H16-C2=1.0914        H17-C2=1.0899        
H18-C3=1.0917        H19-C3=1.0912        H20-C5=1.0802        H21-C6=1.0782        H22-C7=1.0797        H23-C9=1.0806        
H24-N12=1.0048       H25-N12=1.0092       
 C  H  Rav=1.0859 sigma=0.0050  Rmin=1.0782  Rmax=1.0917    11
 C  C  Rav=1.4461 sigma=0.0692  Rmin=1.3800  Rmax=1.5364     7
 N  H  Rav=1.0070 sigma=0.0022  Rmin=1.0048  Rmax=1.0092     2
 N  C  Rav=1.3684 sigma=0.0486  Rmin=1.3378  Rmax=1.4523     4
 O  C  Rav=1.2029 sigma=0.0000  Rmin=1.2029  Rmax=1.2029     1

 selected bond angles (degree)
 --------------------
H13-C1-C2=111.88               H14-C1-C2=109.49               H14-C1-H13=107.57              H15-C1-C2=110.99               
H15-C1-H13=108.99              H15-C1-H14=107.77              C3-C2-C1=112.81                H16-C2-C1=109.88               
H16-C2-C3=109.53               H17-C2-C1=109.40               H17-C2-C3=107.28               H17-C2-H16=107.78              
N4-C3-C2=110.53                H18-C3-C2=109.78               H18-C3-N4=108.94               H19-C3-C2=109.62               
H19-C3-N4=109.12               H19-C3-H18=108.83              C5-N4-C3=119.26                C9-N4-C3=120.01                
C9-N4-C5=120.57                C6-C5-N4=121.20                H20-C5-N4=117.17               H20-C5-C6=121.63               
C7-C6-C5=119.17                H21-C6-C5=119.78               H21-C6-C7=121.04               C8-C7-C6=119.01                
H22-C7-C6=121.71               H22-C7-C8=119.28               C9-C8-C7=118.74                C10-C8-C7=118.51               
C10-C8-C9=122.39               C8-C9-N4=121.26                H23-C9-N4=117.25               H23-C9-C8=121.47               
O11-C10-C8=119.25              N12-C10-C8=115.60              N12-C10-O11=125.11             

 selected dihedral angles (degree)
 ---------------------------------
C3-C2-C1-H13=296.39           C3-C2-C1-H14=177.23           C3-C2-C1-H15= 58.37           H16-C2-C1-H13= 58.92          
H16-C2-C1-H14=299.76          H16-C2-C1-H15=180.91          H17-C2-C1-H13=177.07          H17-C2-C1-H14= 57.91          
H17-C2-C1-H15=299.06          N4-C3-C2-C1= 64.62            N4-C3-C2-H16=301.89           N4-C3-C2-H17=185.16           
H18-C3-C2-C1=184.82           H18-C3-C2-H16= 62.09          H18-C3-C2-H17=305.36          H19-C3-C2-C1=304.31           
H19-C3-C2-H16=181.58          H19-C3-C2-H17= 64.85          C5-N4-C3-C2= 80.28            C5-N4-C3-H18=319.57           
C5-N4-C3-H19=200.88           C9-N4-C3-C2=264.89            C9-N4-C3-H18=144.19           C9-N4-C3-H19= 25.50           
C6-C5-N4-C3=185.61            C6-C5-N4-C9=  0.97            H20-C5-N4-C3=  5.04           H20-C5-N4-C9=180.40           
C7-C6-C5-N4=  0.66            C7-C6-C5-H20=181.26           H21-C6-C5-N4=179.65           H21-C6-C5-H20=  0.25          
C8-C7-C6-C5=357.84            C8-C7-C6-H21=178.86           H22-C7-C6-C5=177.18           H22-C7-C6-H21=358.21          
C9-C8-C7-C6=  2.07            C9-C8-C7-H22=182.72           C10-C8-C7-C6=175.42           C10-C8-C7-H22=356.06          
C8-C9-N4-C3=174.27            C8-C9-N4-C5=358.95            H23-C9-N4-C3=355.83           H23-C9-N4-C5=180.50           
N4-C9-C8-C7=359.51            N4-C9-C8-C10=186.44           H23-C9-C8-C7=177.89           H23-C9-C8-C10=  4.82          
O11-C10-C8-C7=320.98          O11-C10-C8-C9=134.07          N12-C10-C8-C7=143.03          N12-C10-C8-C9=316.11          
           -------------------------------------------------
          |                Final Singlepoint                |
           -------------------------------------------------

          ...................................................
          :                      SETUP                      :
          :.................................................:
          :  # basis functions                  61          :
          :  # atomic orbitals                  61          :
          :  # shells                           37          :
          :  # electrons                        64          :
          :  max. iterations                   250          :
          :  Hamiltonian                  GFN2-xTB          :
          :  restarted?                      false          :
          :  GBSA solvation                  false          :
          :  PC potential                    false          :
          :  electronic temp.          300.0000000     K    :
          :  accuracy                    1.0000000          :
          :  -> integral cutoff          0.2500000E+02      :
          :  -> integral neglect         0.1000000E-07      :
          :  -> SCF convergence          0.1000000E-05 Eh   :
          :  -> wf. convergence          0.1000000E-03 e    :
          :  Broyden damping             0.4000000          :
          :  net charge                          1          :
          :  unpaired electrons                  0          :
          ...................................................

 iter      E             dE          RMSdq      gap      omega  full diag
   1    -35.9430872 -0.359431E+02  0.364E-05    2.17       0.0  T
   2    -35.9430872 -0.486011E-11  0.238E-05    2.17     842.0  T
   3    -35.9430872 -0.157740E-11  0.157E-05    2.17    1272.0  T

   *** convergence criteria satisfied after 3 iterations ***

         #    Occupation            Energy/Eh            Energy/eV
      -------------------------------------------------------------
         1        2.0000           -0.8858301             -24.1047
       ...           ...                  ...                  ...
        26        2.0000           -0.6230346             -16.9536
        27        2.0000           -0.6173380             -16.7986
        28        2.0000           -0.6005033             -16.3405
        29        2.0000           -0.5852022             -15.9242
        30        2.0000           -0.5801752             -15.7874
        31        2.0000           -0.5622392             -15.2993
        32        2.0000           -0.5439352             -14.8012 (HOMO)
        33                         -0.4640934             -12.6286 (LUMO)
        34                         -0.4390327             -11.9467
        35                         -0.3528600              -9.6018
        36                         -0.2986031              -8.1254
        37                         -0.1787277              -4.8634
       ...                                ...                  ...
        61                          0.5393381              14.6761
      -------------------------------------------------------------
                  HL-Gap            0.0798418 Eh            2.1726 eV
             Fermi-level           -0.5040143 Eh          -13.7149 eV

 SCC (total)                   0 d,  0 h,  0 min,  0.005 sec
 SCC setup                      ...        0 min,  0.000 sec (  1.088%)
 Dispersion                     ...        0 min,  0.000 sec (  1.707%)
 classical contributions        ...        0 min,  0.000 sec (  0.307%)
 integral evaluation            ...        0 min,  0.001 sec ( 13.846%)
 iterations                     ...        0 min,  0.002 sec ( 38.665%)
 molecular gradient             ...        0 min,  0.002 sec ( 42.692%)
 printout                       ...        0 min,  0.000 sec (  1.415%)

         :::::::::::::::::::::::::::::::::::::::::::::::::::::
         ::                     SUMMARY                     ::
         :::::::::::::::::::::::::::::::::::::::::::::::::::::
         :: total energy             -35.407920162530 Eh    ::
         :: gradient norm              0.000885140624 Eh/a0 ::
         :: HOMO-LUMO gap              2.172606091682 eV    ::
         ::.................................................::
         :: SCC energy               -35.942890301638 Eh    ::
         :: -> isotropic ES            0.119489225238 Eh    ::
         :: -> anisotropic ES         -0.011040232465 Eh    ::
         :: -> anisotropic XC          0.020485705213 Eh    ::
         :: -> dispersion             -0.019743818996 Eh    ::
         :: repulsion energy           0.534970139108 Eh    ::
         :: add. restraining           0.000000000000 Eh    ::
         :: total charge               1.000000000000 e     ::
         :::::::::::::::::::::::::::::::::::::::::::::::::::::

           -------------------------------------------------
          |                Property Printout                |
           -------------------------------------------------

    * Orbital Energies and Occupations

         #    Occupation            Energy/Eh            Energy/eV
      -------------------------------------------------------------
         1        2.0000           -0.8858301             -24.1047
       ...           ...                  ...                  ...
        20        2.0000           -0.6677379             -18.1701
        21        2.0000           -0.6527010             -17.7609
        22        2.0000           -0.6494589             -17.6727
        23        2.0000           -0.6356965             -17.2982
        24        2.0000           -0.6275915             -17.0776
        25        2.0000           -0.6256622             -17.0251
        26        2.0000           -0.6230346             -16.9536
        27        2.0000           -0.6173380             -16.7986
        28        2.0000           -0.6005033             -16.3405
        29        2.0000           -0.5852022             -15.9242
        30        2.0000           -0.5801752             -15.7874
        31        2.0000           -0.5622392             -15.2993
        32        2.0000           -0.5439352             -14.8012 (HOMO)
        33                         -0.4640934             -12.6286 (LUMO)
        34                         -0.4390327             -11.9467
        35                         -0.3528600              -9.6018
        36                         -0.2986031              -8.1254
        37                         -0.1787277              -4.8634
        38                         -0.1257274              -3.4212
        39                         -0.0893214              -2.4306
        40                         -0.0679876              -1.8500
        41                         -0.0624512              -1.6994
        42                         -0.0447759              -1.2184
        43                         -0.0216468              -0.5890
       ...                                ...                  ...
        61                          0.5393381              14.6761
      -------------------------------------------------------------
                  HL-Gap            0.0798418 Eh            2.1726 eV
             Fermi-level           -0.5040143 Eh          -13.7149 eV

     #   Z          covCN         q      C6AA      α(0)
     1   6 C        3.752    -0.119    22.837     6.815
     2   6 C        3.801    -0.065    21.749     6.640
     3   6 C        3.760    -0.037    21.291     6.578
     4   7 N        2.749     0.114    19.294     6.524
     5   6 C        2.893     0.032    27.276     8.563
     6   6 C        2.914    -0.010    28.255     8.716
     7   6 C        2.928     0.018    27.615     8.618
     8   6 C        2.968     0.006    27.888     8.662
     9   6 C        2.892     0.026    27.428     8.587
    10   6 C        2.747     0.287    22.141     7.705
    11   8 O        0.859    -0.366    21.016     6.146
    12   7 N        2.637    -0.255    26.624     7.663
    13   1 H        0.925     0.038     2.477     2.461
    14   1 H        0.925     0.074     2.041     2.234
    15   1 H        0.925     0.054     2.271     2.356
    16   1 H        0.924     0.059     2.207     2.323
    17   1 H        0.925     0.083     1.950     2.184
    18   1 H        0.924     0.093     1.853     2.129
    19   1 H        0.924     0.093     1.854     2.129
    20   1 H        0.926     0.112     1.681     2.027
    21   1 H        0.926     0.113     1.671     2.022
    22   1 H        0.926     0.122     1.598     1.977
    23   1 H        0.926     0.107     1.720     2.051
    24   1 H        0.860     0.195     1.133     1.667
    25   1 H        0.860     0.228     0.975     1.547

 Mol. C6AA /au·bohr⁶  :       5836.314686
 Mol. C8AA /au·bohr⁸  :     135017.321916
 Mol. α(0) /au        :        118.324746


Wiberg/Mayer (AO) data.
largest (>0.10) Wiberg bond orders for each atom

 ---------------------------------------------------------------------------
     #   Z sym  total        # sym  WBO       # sym  WBO       # sym  WBO
 ---------------------------------------------------------------------------
     1   6 C    3.990 --     2 C    1.023    15 H    0.985    13 H    0.984
                            14 H    0.978
     2   6 C    3.981 --     1 C    1.023    16 H    0.974     3 C    0.973
                            17 H    0.965
     3   6 C    3.932 --     2 C    0.973    19 H    0.964     4 N    0.963
                            18 H    0.961
     4   7 N    3.767 --     5 C    1.326     9 C    1.325     3 C    0.963
     5   6 C    3.958 --     6 C    1.459     4 N    1.326    20 H    0.954
     6   6 C    3.979 --     5 C    1.459     7 C    1.426    21 H    0.957
     7   6 C    3.963 --     6 C    1.426     8 C    1.387    22 H    0.956
     8   6 C    3.977 --     9 C    1.429     7 C    1.387    10 C    0.938
     9   6 C    3.959 --     8 C    1.429     4 N    1.325    23 H    0.952
    10   6 C    3.962 --    11 O    1.724    12 N    1.269     8 C    0.938
    11   8 O    2.080 --    10 C    1.724    12 N    0.224
    12   7 N    3.399 --    10 C    1.269    24 H    0.943    25 H    0.927
                            11 O    0.224
    13   1 H    0.999 --     1 C    0.984
    14   1 H    0.994 --     1 C    0.978
    15   1 H    0.997 --     1 C    0.985
    16   1 H    0.996 --     2 C    0.974
    17   1 H    0.991 --     2 C    0.965
    18   1 H    0.991 --     3 C    0.961
    19   1 H    0.991 --     3 C    0.964
    20   1 H    0.987 --     5 C    0.954
    21   1 H    0.986 --     6 C    0.957
    22   1 H    0.985 --     7 C    0.956
    23   1 H    0.988 --     9 C    0.952
    24   1 H    0.962 --    12 N    0.943
    25   1 H    0.947 --    12 N    0.927
 ---------------------------------------------------------------------------

Topologies differ in total number of bonds
Writing topology from bond orders to xtbtopo.mol

molecular dipole:
                 x           y           z       tot (Debye)
 q only:        0.417       3.670       4.877
   full:        0.350       3.531       5.165      15.927
molecular quadrupole (traceless):
                xx          xy          yy          xz          yz          zz
 q only:      -12.216       0.850       1.384      13.756      38.438      10.832
  q+dip:      -10.877       0.123      -2.219      16.869      40.648      13.096
   full:      -11.865      -0.182      -3.493      15.209      41.474      15.358

           -------------------------------------------------
          |                Geometry Summary                 |
           -------------------------------------------------

      molecular mass/u    :      165.2126642
   center of mass at/Å    :        0.7402384       2.8720086       1.9457582
  moments of inertia/u·Å² :        0.3401963E+03   0.8251500E+03   0.9931622E+03
rotational constants/cm⁻¹ :        0.4955267E-01   0.2042978E-01   0.1697369E-01

 * 24 selected distances

     #   Z          #   Z                                           value/Å
     1   6 C        2   6 C                                       1.5223782
     2   6 C        3   6 C                                       1.5364432 (max)
     3   6 C        4   7 N                                       1.4523453
     4   7 N        5   6 C                                       1.3378322
     5   6 C        6   6 C                                       1.3800150
     6   6 C        7   6 C                                       1.3871077
     7   6 C        8   6 C                                       1.3948093
     4   7 N        9   6 C                                       1.3379880
     8   6 C        9   6 C                                       1.3838367
    10   6 C       11   8 O                                       1.2029353
    10   6 C       12   7 N                                       1.3454407
     1   6 C       13   1 H                                       1.0887531
     1   6 C       14   1 H                                       1.0859056
     1   6 C       15   1 H                                       1.0873526
     2   6 C       16   1 H                                       1.0914317
     2   6 C       17   1 H                                       1.0899438
     3   6 C       18   1 H                                       1.0916559
     3   6 C       19   1 H                                       1.0911855
     5   6 C       20   1 H                                       1.0801980
     6   6 C       21   1 H                                       1.0782110
     7   6 C       22   1 H                                       1.0797327
     9   6 C       23   1 H                                       1.0806081
    12   7 N       24   1 H                                       1.0048055 (min)
    12   7 N       25   1 H                                       1.0091631

 * 5 distinct bonds (by element types)

   Z      Z             #   av. dist./Å        max./Å        min./Å
   1 H    6 C          11     1.0859071     1.0916559     1.0782110
   6 C    6 C           6     1.4340983     1.5364432     1.3800150
   1 H    7 N           2     1.0069843     1.0091631     1.0048055
   6 C    7 N           4     1.3684016     1.4523453     1.3378322
   6 C    8 O           1     1.2029353     1.2029353     1.2029353


optimized geometry written to: xtbopt.xyz


           -------------------------------------------------
          | TOTAL ENERGY              -35.407920162530 Eh   |
          | GRADIENT NORM               0.000885140624 Eh/α |
          | HOMO-LUMO GAP               2.172606091682 eV   |
           -------------------------------------------------

------------------------------------------------------------------------
 * finished run on 2024/12/20 at 06:41:17.304     
------------------------------------------------------------------------
 total:
 * wall-time:     0 d,  0 h,  0 min,  0.173 sec
 *  cpu-time:     0 d,  0 h,  0 min,  1.371 sec
 * ratio c/w:     7.911 speedup
 SCF:
 * wall-time:     0 d,  0 h,  0 min,  0.013 sec
 *  cpu-time:     0 d,  0 h,  0 min,  0.106 sec
 * ratio c/w:     7.938 speedup
 ANC optimizer:
 * wall-time:     0 d,  0 h,  0 min,  0.144 sec
 *  cpu-time:     0 d,  0 h,  0 min,  1.152 sec
 * ratio c/w:     7.985 speedup

