      -----------------------------------------------------------      
     |                   =====================                   |     
     |                           x T B                           |     
     |                   =====================                   |     
     |                         S. Grimme                         |     
     |          Mulliken Center for Theoretical Chemistry        |     
     |                    University of Bonn                     |     
      -----------------------------------------------------------      

   * xtb version 6.7.1 (edcfbbe) compiled by 'conda@3ef47c1a292c' on 2024-11-25

   xtb is free software: you can redistribute it and/or modify it under
   the terms of the GNU Lesser General Public License as published by
   the Free Software Foundation, either version 3 of the License, or
   (at your option) any later version.
   
   xtb is distributed in the hope that it will be useful,
   but WITHOUT ANY WARRANTY; without even the implied warranty of
   MERCHANTABILITY or FITNESS FOR A PARTICULAR PURPOSE.  See the
   GNU Lesser General Public License for more details.
   
   Cite this work as:
   * C. Bannwarth, E. Caldeweyher, S. Ehlert, A. Hansen, P. Pracht,
     J. Seibert, S. Spicher, S. Grimme, WIREs Comput. Mol. Sci., 2020, 11,
     e01493. DOI: 10.1002/wcms.1493
   
   for GFN2-xTB:
   * C. Bannwarth, S. Ehlert and S. Grimme., J. Chem. Theory Comput., 2019,
     15, 1652-1671. DOI: 10.1021/acs.jctc.8b01176
   for GFN1-xTB:
   * S. Grimme, C. Bannwarth, P. Shushkov, J. Chem. Theory Comput., 2017,
     13, 1989-2009. DOI: 10.1021/acs.jctc.7b00118
   for GFN0-xTB:
   * P. Pracht, E. Caldeweyher, S. Ehlert, S. Grimme, ChemRxiv, 2019, preprint.
     DOI: 10.26434/chemrxiv.8326202.v1
   for GFN-FF:
   * S. Spicher and S. Grimme, Angew. Chem. Int. Ed., 2020, 59, 15665-15673.
     DOI: 10.1002/anie.202004239
   
   for ALPB and GBSA implicit solvation:
   * S. Ehlert, M. Stahn, S. Spicher, S. Grimme, J. Chem. Theory Comput.,
     2021, 17, 4250-4261. DOI: 10.1021/acs.jctc.1c00471
   
   for ddCOSMO and CPCM-X implicit solvation:
   * M. Stahn, S. Ehlert, S. Grimme, J. Phys. Chem. A,
     2023, XX, XXXX-XXXX. DOI: 10.1021/acs.jpca.3c04382
   
   for DFT-D4:
   * E. Caldeweyher, C. Bannwarth and S. Grimme, J. Chem. Phys., 2017,
     147, 034112. DOI: 10.1063/1.4993215
   * E. Caldeweyher, S. Ehlert, A. Hansen, H. Neugebauer, S. Spicher,
     C. Bannwarth and S. Grimme, J. Chem. Phys., 2019, 150, 154122.
     DOI: 10.1063/1.5090222
   * E. Caldeweyher, J.-M. Mewes, S. Ehlert and S. Grimme, Phys. Chem. Chem. Phys.
     2020, 22, 8499-8512. DOI: 10.1039/D0CP00502A
   
   for sTDA-xTB:
   * S. Grimme and C. Bannwarth, J. Chem. Phys., 2016, 145, 054103.
     DOI: 10.1063/1.4959605
   
   in the mass-spec context:
   * V. Asgeirsson, C. Bauer and S. Grimme, Chem. Sci., 2017, 8, 4879.
     DOI: 10.1039/c7sc00601b
   * J. Koopman and S. Grimme, ACS Omega 2019, 4, 12, 15120-15133.
     DOI: 10.1021/acsomega.9b02011
   
   for metadynamics refer to:
   * S. Grimme, J. Chem. Theory Comput., 2019, 155, 2847-2862
     DOI: 10.1021/acs.jctc.9b00143
   
   for SPH calculations refer to:
   * S. Spicher and S. Grimme, J. Chem. Theory Comput., 2021, 17, 1701-1714
     DOI: 10.1021/acs.jctc.0c01306
   
   for ONIOM refer to:
   * C. Plett, A. Katbashev, S. Ehlert, S. Grimme, M. Bursch,
     Phys. Chem. Chem. Phys., 2023, 25, 17860-17868. DOI: 10.1039/D3CP02178E
   
   for DIPRO refer to:
   * J. Kohn, N. Gildemeister, S. Grimme, D. Fazzi, A. Hansen,
     J. Chem. Phys., 2023, just accepted.
   
   for PTB refer to:
   * S. Grimme, M. Mueller, A. Hansen, J. Chem. Phys., 2023, 158, 124111.
     DOI: 10.1063/5.0137838
   
   with help from (in alphabetical order)
   P. Atkinson, C. Bannwarth, F. Bohle, G. Brandenburg, E. Caldeweyher
   M. Checinski, S. Dohm, S. Ehlert, S. Ehrlich, I. Gerasimov, C. Hölzer
   A. Katbashev, J. Kohn, J. Koopman, C. Lavigne, S. Lehtola, F. März, M. Müller,
   F. Musil, H. Neugebauer, J. Pisarek, C. Plett, P. Pracht, F. Pultar,
   J. Seibert, P. Shushkov, S. Spicher, M. Stahn, M. Steiner, T. Strunk,
   J. Stückrath, T. Rose, and J. Unsleber
   
 * started run on 2024/12/20 at 06:41:43.686     
   ID    Z sym.   atoms
    1    6 C      1, 3, 4, 6, 7, 9, 10, 12, 13, 15-17, 19, 20, 22-24
    2    8 O      2, 5, 11, 14, 18, 21
    3    7 N      8
    4    1 H      25-62

           -------------------------------------------------
          |                Calculation Setup                |
           -------------------------------------------------

          program call               : xtb C0355.xyz --opt --namespace C0355 --charge +1
          calculation namespace      : C0355
          coordinate file            : C0355.xyz
          omp threads                :                     8


           -------------------------------------------------
          |                 G F N 2 - x T B                 |
           -------------------------------------------------

        Reference                      10.1021/acs.jctc.8b01176
      * Hamiltonian:
        H0-scaling (s, p, d)           1.850000    2.230000    2.230000
        zeta-weighting                 0.500000
      * Dispersion:
        s8                             2.700000
        a1                             0.520000
        a2                             5.000000
        s9                             5.000000
      * Repulsion:
        kExp                           1.500000    1.000000
        rExp                           1.000000
      * Coulomb:
        alpha                          2.000000
        third order                    shell-resolved
        anisotropic                    true
        a3                             3.000000
        a5                             4.000000
        cn-shift                       1.200000
        cn-exp                         4.000000
        max-rad                        5.000000


          ...................................................
          :                      SETUP                      :
          :.................................................:
          :  # basis functions                 134          :
          :  # atomic orbitals                 134          :
          :  # shells                           86          :
          :  # electrons                       146          :
          :  max. iterations                   250          :
          :  Hamiltonian                  GFN2-xTB          :
          :  restarted?                      false          :
          :  GBSA solvation                  false          :
          :  PC potential                    false          :
          :  electronic temp.          300.0000000     K    :
          :  accuracy                    1.0000000          :
          :  -> integral cutoff          0.2500000E+02      :
          :  -> integral neglect         0.1000000E-07      :
          :  -> SCF convergence          0.1000000E-05 Eh   :
          :  -> wf. convergence          0.1000000E-03 e    :
          :  Broyden damping             0.4000000          :
          :  net charge                          1          :
          :  unpaired electrons                  0          :
          ...................................................

 iter      E             dE          RMSdq      gap      omega  full diag
   1    -83.2438904 -0.832439E+02  0.403E+00    7.99       0.0  T
   2    -83.4531869 -0.209297E+00  0.224E+00    5.94       1.0  T
   3    -83.4565704 -0.338348E-02  0.940E-01    5.83       1.0  T
   4    -83.4578348 -0.126445E-02  0.148E-01    5.71       1.0  T
   5    -83.4579758 -0.140949E-03  0.736E-02    5.74       1.0  T
   6    -83.4579805 -0.474088E-05  0.131E-02    5.77       1.0  T
   7    -83.4579836 -0.304418E-05  0.449E-03    5.77       2.8  T
   8    -83.4579837 -0.162910E-06  0.186E-03    5.77       6.8  T
   9    -83.4579837 -0.787296E-08  0.674E-04    5.77      18.8  T
  10    -83.4579838 -0.208915E-08  0.122E-04    5.77     104.0  T

   *** convergence criteria satisfied after 10 iterations ***

         #    Occupation            Energy/Eh            Energy/eV
      -------------------------------------------------------------
         1        2.0000           -0.8179791             -22.2583
       ...           ...                  ...                  ...
        67        2.0000           -0.5438594             -14.7992
        68        2.0000           -0.5171067             -14.0712
        69        2.0000           -0.5113973             -13.9158
        70        2.0000           -0.5082918             -13.8313
        71        2.0000           -0.4980749             -13.5533
        72        2.0000           -0.4967292             -13.5167
        73        2.0000           -0.4941652             -13.4469 (HOMO)
        74                         -0.2822978              -7.6817 (LUMO)
        75                         -0.2165911              -5.8937
        76                         -0.1910886              -5.1998
        77                         -0.1834563              -4.9921
        78                         -0.1293986              -3.5211
       ...                                ...                  ...
       134                          0.1890386               5.1440
      -------------------------------------------------------------
                  HL-Gap            0.2118675 Eh            5.7652 eV
             Fermi-level           -0.3882315 Eh          -10.5643 eV

 SCC (total)                   0 d,  0 h,  0 min,  0.051 sec
 SCC setup                      ...        0 min,  0.000 sec (  0.417%)
 Dispersion                     ...        0 min,  0.001 sec (  2.053%)
 classical contributions        ...        0 min,  0.000 sec (  0.208%)
 integral evaluation            ...        0 min,  0.004 sec (  6.836%)
 iterations                     ...        0 min,  0.031 sec ( 60.350%)
 molecular gradient             ...        0 min,  0.015 sec ( 29.177%)
 printout                       ...        0 min,  0.000 sec (  0.920%)

         :::::::::::::::::::::::::::::::::::::::::::::::::::::
         ::                     SUMMARY                     ::
         :::::::::::::::::::::::::::::::::::::::::::::::::::::
         :: total energy             -82.651544010039 Eh    ::
         :: gradient norm              0.073593607512 Eh/a0 ::
         :: HOMO-LUMO gap              5.765207283607 eV    ::
         ::.................................................::
         :: SCC energy               -83.456405967717 Eh    ::
         :: -> isotropic ES            0.173197166952 Eh    ::
         :: -> anisotropic ES         -0.002083403643 Eh    ::
         :: -> anisotropic XC          0.017871411135 Eh    ::
         :: -> dispersion             -0.051576285452 Eh    ::
         :: repulsion energy           0.804861957679 Eh    ::
         :: add. restraining           0.000000000000 Eh    ::
         :: total charge               1.000000000000 e     ::
         :::::::::::::::::::::::::::::::::::::::::::::::::::::

      ----------------------------------------------------------- 
     |                   =====================                   |
     |                        A N C O P T                        |
     |                   =====================                   |
     |               Approximate Normal Coordinate               |
     |                Rational Function Optimizer                |
      ----------------------------------------------------------- 
      ----------------------------------------------------------- 
     |                   =====================                   |
     |                        A N C O P T                        |
     |                   =====================                   |
     |               Approximate Normal Coordinate               |
     |                Rational Function Optimizer                |
      ----------------------------------------------------------- 

          ...................................................
          :                      SETUP                      :
          :.................................................:
          :   optimization level            normal          :
          :   max. optcycles                   200          :
          :   ANC micro-cycles                  20          :
          :   degrees of freedom               180          :
          :.................................................:
          :   RF solver                   davidson          :
          :   write xtbopt.log                true          :
          :   linear?                        false          :
          :   energy convergence         0.5000000E-05 Eh   :
          :   grad. convergence          0.1000000E-02 Eh/α :
          :   maxmium RF displ.          1.0000000          :
          :   Hlow (freq-cutoff)         0.1000000E-01      :
          :   Hmax (freq-cutoff)         5.0000000          :
          :   S6 in model hess.         20.0000000          :
          ...................................................

generating ANC from exact Hessian ...
Using Lindh-Hessian (1995)
 Shifting diagonal of input Hessian by    9.9169054179498103E-003
 Lowest  eigenvalues of input Hessian
    0.000000    0.000000    0.000000    0.000000    0.000000    0.000000
    0.010000    0.010034    0.010043    0.010167    0.010239    0.010382
    0.010572    0.010786    0.011065    0.011170    0.011373    0.011464
 Highest eigenvalues
    1.476205    1.481039    1.481923    1.494240    1.512407    1.525781


........................................................................
.............................. CYCLE    1 ..............................
........................................................................

 iter      E             dE          RMSdq      gap      omega  full diag
   1    -83.4579838 -0.834580E+02  0.542E-05    5.77       0.0  T
   2    -83.4579838 -0.237179E-10  0.318E-05    5.77     399.3  T
   3    -83.4579838 -0.291323E-11  0.142E-05    5.77     891.3  T
     SCC iter.                  ...        0 min,  0.010 sec
     gradient                   ...        0 min,  0.012 sec
 * total energy  :   -82.6515440 Eh     change       -0.1548131E-09 Eh
   gradient norm :     0.0735943 Eh/α   predicted     0.0000000E+00 (-100.00%)
   displ. norm   :     0.3958184 α      lambda       -0.1750090E-01
   maximum displ.:     0.1721397 α      in ANC's #49, #47, #55, ...

........................................................................
.............................. CYCLE    2 ..............................
........................................................................

 iter      E             dE          RMSdq      gap      omega  full diag
   1    -83.4876287 -0.834876E+02  0.176E-01    6.56       0.0  T
   2    -83.4878918 -0.263134E-03  0.107E-01    6.53       1.0  T
   3    -83.4878993 -0.752372E-05  0.443E-02    6.52       1.0  T
   4    -83.4879022 -0.285856E-05  0.384E-03    6.52       3.3  T
   5    -83.4879023 -0.114015E-06  0.153E-03    6.52       8.3  T
   6    -83.4879023 -0.136652E-07  0.619E-04    6.52      20.5  T
   7    -83.4879023 -0.139444E-08  0.105E-04    6.52     121.0  T
     SCC iter.                  ...        0 min,  0.019 sec
     gradient                   ...        0 min,  0.012 sec
 * total energy  :   -82.6645099 Eh     change       -0.1296588E-01 Eh
   gradient norm :     0.0390448 Eh/α   predicted    -0.1012227E-01 ( -21.93%)
   displ. norm   :     0.3996064 α      lambda       -0.8304679E-02
   maximum displ.:     0.1359140 α      in ANC's #49, #29, #22, ...

........................................................................
.............................. CYCLE    3 ..............................
........................................................................

 iter      E             dE          RMSdq      gap      omega  full diag
   1    -83.5034163 -0.835034E+02  0.153E-01    7.42       0.0  T
   2    -83.5036722 -0.255839E-03  0.941E-02    7.38       1.0  T
   3    -83.5036772 -0.505287E-05  0.410E-02    7.38       1.0  T
   4    -83.5036782 -0.946602E-06  0.355E-03    7.38       3.6  T
   5    -83.5036783 -0.108854E-06  0.133E-03    7.38       9.6  T
   6    -83.5036783 -0.102209E-07  0.601E-04    7.38      21.1  T
   7    -83.5036783 -0.118112E-08  0.961E-05    7.38     132.1  T
     SCC iter.                  ...        0 min,  0.018 sec
     gradient                   ...        0 min,  0.013 sec
 * total energy  :   -82.6690578 Eh     change       -0.4547902E-02 Eh
   gradient norm :     0.0083224 Eh/α   predicted    -0.4816568E-02 (   5.91%)
   displ. norm   :     0.2217951 α      lambda       -0.7961744E-03
   maximum displ.:     0.1166892 α      in ANC's #11, #22, #29, ...

........................................................................
.............................. CYCLE    4 ..............................
........................................................................

 iter      E             dE          RMSdq      gap      omega  full diag
   1    -83.5045926 -0.835046E+02  0.317E-02    7.44       0.0  T
   2    -83.5045957 -0.316700E-05  0.188E-02    7.44       1.0  T
   3    -83.5045959 -0.166678E-06  0.413E-03    7.44       3.1  T
   4    -83.5045960 -0.864596E-07  0.982E-04    7.44      12.9  T
   5    -83.5045960 -0.638479E-08  0.390E-04    7.44      32.5  T
     SCC iter.                  ...        0 min,  0.013 sec
     gradient                   ...        0 min,  0.012 sec
 * total energy  :   -82.6697013 Eh     change       -0.6435116E-03 Eh
   gradient norm :     0.0056546 Eh/α   predicted    -0.4178197E-03 ( -35.07%)
   displ. norm   :     0.4445650 α      lambda       -0.1138832E-02
   maximum displ.:     0.2379561 α      in ANC's #11, #29, #22, ...

........................................................................
.............................. CYCLE    5 ..............................
........................................................................

 iter      E             dE          RMSdq      gap      omega  full diag
   1    -83.5043733 -0.835044E+02  0.583E-02    7.46       0.0  T
   2    -83.5043784 -0.502693E-05  0.349E-02    7.47       1.0  T
   3    -83.5043788 -0.424823E-06  0.435E-03    7.47       2.9  T
   4    -83.5043790 -0.218942E-06  0.156E-03    7.47       8.1  T
   5    -83.5043790 -0.129482E-07  0.608E-04    7.47      20.9  T
   6    -83.5043790 -0.169966E-08  0.243E-04    7.47      52.2  T
     SCC iter.                  ...        0 min,  0.016 sec
     gradient                   ...        0 min,  0.012 sec
 * total energy  :   -82.6704455 Eh     change       -0.7442293E-03 Eh
   gradient norm :     0.0083670 Eh/α   predicted    -0.6819716E-03 (  -8.37%)
   displ. norm   :     0.2698692 α      lambda       -0.4208606E-03
   maximum displ.:     0.1452555 α      in ANC's #11, #19, #29, ...

........................................................................
.............................. CYCLE    6 ..............................
........................................................................

 iter      E             dE          RMSdq      gap      omega  full diag
   1    -83.5055133 -0.835055E+02  0.376E-02    7.45       0.0  T
   2    -83.5055151 -0.170843E-05  0.224E-02    7.46       1.0  T
   3    -83.5055152 -0.106557E-06  0.243E-03    7.46       5.2  T
   4    -83.5055152 -0.612477E-07  0.805E-04    7.46      15.8  T
   5    -83.5055152 -0.356226E-08  0.368E-04    7.46      34.5  T
     SCC iter.                  ...        0 min,  0.013 sec
     gradient                   ...        0 min,  0.013 sec
 * total energy  :   -82.6707670 Eh     change       -0.3215088E-03 Eh
   gradient norm :     0.0077479 Eh/α   predicted    -0.2257592E-03 ( -29.78%)
   displ. norm   :     0.3353619 α      lambda       -0.4853413E-03
   maximum displ.:     0.1587076 α      in ANC's #11, #19, #4, ...

........................................................................
.............................. CYCLE    7 ..............................
........................................................................

 iter      E             dE          RMSdq      gap      omega  full diag
   1    -83.5073983 -0.835074E+02  0.516E-02    7.44       0.0  T
   2    -83.5074013 -0.293273E-05  0.307E-02    7.44       1.0  T
   3    -83.5074014 -0.168847E-06  0.312E-03    7.44       4.1  T
   4    -83.5074015 -0.697933E-07  0.922E-04    7.44      13.8  T
   5    -83.5074015 -0.450649E-08  0.447E-04    7.44      28.4  T
     SCC iter.                  ...        0 min,  0.014 sec
     gradient                   ...        0 min,  0.012 sec
 * total energy  :   -82.6711256 Eh     change       -0.3585539E-03 Eh
   gradient norm :     0.0041343 Eh/α   predicted    -0.2699650E-03 ( -24.71%)
   displ. norm   :     0.3393288 α      lambda       -0.3508452E-03
   maximum displ.:     0.1366129 α      in ANC's #19, #4, #11, ...

........................................................................
.............................. CYCLE    8 ..............................
........................................................................

 iter      E             dE          RMSdq      gap      omega  full diag
   1    -83.5073669 -0.835074E+02  0.537E-02    7.43       0.0  T
   2    -83.5073683 -0.145757E-05  0.322E-02    7.44       1.0  T
   3    -83.5073685 -0.177652E-06  0.206E-03    7.44       6.2  T
   4    -83.5073685 -0.486846E-07  0.894E-04    7.44      14.2  T
   5    -83.5073685 -0.365878E-08  0.392E-04    7.44      32.4  T
     SCC iter.                  ...        0 min,  0.018 sec
     gradient                   ...        0 min,  0.012 sec
 * total energy  :   -82.6713752 Eh     change       -0.2496024E-03 Eh
   gradient norm :     0.0040872 Eh/α   predicted    -0.1956220E-03 ( -21.63%)
   displ. norm   :     0.2724956 α      lambda       -0.2584033E-03
   maximum displ.:     0.1191686 α      in ANC's #4, #19, #5, ...

........................................................................
.............................. CYCLE    9 ..............................
........................................................................

 iter      E             dE          RMSdq      gap      omega  full diag
   1    -83.5089720 -0.835090E+02  0.470E-02    7.42       0.0  T
   2    -83.5089743 -0.228264E-05  0.279E-02    7.42       1.0  T
   3    -83.5089744 -0.148682E-06  0.288E-03    7.42       4.4  T
   4    -83.5089745 -0.668163E-07  0.887E-04    7.42      14.3  T
   5    -83.5089745 -0.321408E-08  0.458E-04    7.42      27.7  T
     SCC iter.                  ...        0 min,  0.014 sec
     gradient                   ...        0 min,  0.012 sec
 * total energy  :   -82.6715243 Eh     change       -0.1490604E-03 Eh
   gradient norm :     0.0049984 Eh/α   predicted    -0.1387980E-03 (  -6.88%)
   displ. norm   :     0.3028982 α      lambda       -0.1944708E-03
   maximum displ.:     0.1369794 α      in ANC's #4, #14, #19, ...

........................................................................
.............................. CYCLE   10 ..............................
........................................................................

 iter      E             dE          RMSdq      gap      omega  full diag
   1    -83.5060712 -0.835061E+02  0.484E-02    7.43       0.0  T
   2    -83.5060722 -0.974175E-06  0.290E-02    7.43       1.0  T
   3    -83.5060724 -0.220333E-06  0.203E-03    7.43       6.2  T
   4    -83.5060725 -0.515315E-07  0.102E-03    7.43      12.5  T
   5    -83.5060725 -0.361769E-08  0.331E-04    7.43      38.4  T
   6    -83.5060725 -0.625036E-09  0.116E-04    7.43     109.9  T
     SCC iter.                  ...        0 min,  0.016 sec
     gradient                   ...        0 min,  0.012 sec
 * total energy  :   -82.6716070 Eh     change       -0.8272943E-04 Eh
   gradient norm :     0.0056858 Eh/α   predicted    -0.1061646E-03 (  28.33%)
   displ. norm   :     0.0884199 α      lambda       -0.1228887E-03
   maximum displ.:     0.0422777 α      in ANC's #4, #11, #20, ...

........................................................................
.............................. CYCLE   11 ..............................
........................................................................

 iter      E             dE          RMSdq      gap      omega  full diag
   1    -83.5078537 -0.835079E+02  0.166E-02    7.43       0.0  T
   2    -83.5078540 -0.291611E-06  0.983E-03    7.43       1.3  T
   3    -83.5078541 -0.368315E-07  0.113E-03    7.43      11.2  T
   4    -83.5078541 -0.124081E-07  0.424E-04    7.43      29.9  T
   5    -83.5078541 -0.928225E-09  0.159E-04    7.43      80.0  T
     SCC iter.                  ...        0 min,  0.013 sec
     gradient                   ...        0 min,  0.012 sec
 * total energy  :   -82.6716965 Eh     change       -0.8955446E-04 Eh
   gradient norm :     0.0024279 Eh/α   predicted    -0.6192620E-04 ( -30.85%)
   displ. norm   :     0.1667016 α      lambda       -0.1036413E-03
   maximum displ.:     0.1064509 α      in ANC's #4, #14, #5, ...

........................................................................
.............................. CYCLE   12 ..............................
........................................................................

 iter      E             dE          RMSdq      gap      omega  full diag
   1    -83.5084642 -0.835085E+02  0.261E-02    7.42       0.0  T
   2    -83.5084646 -0.358989E-06  0.157E-02    7.42       1.0  T
   3    -83.5084646 -0.522987E-07  0.122E-03    7.42      10.4  T
   4    -83.5084647 -0.253119E-07  0.534E-04    7.42      23.8  T
   5    -83.5084647 -0.196738E-08  0.218E-04    7.42      58.3  T
     SCC iter.                  ...        0 min,  0.013 sec
     gradient                   ...        0 min,  0.012 sec
 * total energy  :   -82.6717708 Eh     change       -0.7420890E-04 Eh
   gradient norm :     0.0021589 Eh/α   predicted    -0.5326268E-04 ( -28.23%)
   displ. norm   :     0.1634053 α      lambda       -0.6892390E-04
   maximum displ.:     0.1100310 α      in ANC's #4, #5, #3, ...

........................................................................
.............................. CYCLE   13 ..............................
........................................................................

 iter      E             dE          RMSdq      gap      omega  full diag
   1    -83.5085399 -0.835085E+02  0.230E-02    7.42       0.0  T
   2    -83.5085401 -0.148655E-06  0.138E-02    7.42       1.0  T
   3    -83.5085401 -0.444719E-07  0.797E-04    7.42      15.9  T
   4    -83.5085401 -0.688861E-08  0.414E-04    7.42      30.7  T
     SCC iter.                  ...        0 min,  0.011 sec
     gradient                   ...        0 min,  0.013 sec
 * total energy  :   -82.6718281 Eh     change       -0.5736353E-04 Eh
   gradient norm :     0.0028900 Eh/α   predicted    -0.3538608E-04 ( -38.31%)
   displ. norm   :     0.1981626 α      lambda       -0.8542412E-04
   maximum displ.:     0.1334175 α      in ANC's #4, #3, #5, ...

........................................................................
.............................. CYCLE   14 ..............................
........................................................................

 iter      E             dE          RMSdq      gap      omega  full diag
   1    -83.5084819 -0.835085E+02  0.260E-02    7.41       0.0  T
   2    -83.5084821 -0.190569E-06  0.156E-02    7.41       1.0  T
   3    -83.5084821 -0.571090E-07  0.895E-04    7.41      14.2  T
   4    -83.5084821 -0.801053E-08  0.492E-04    7.41      25.8  T
     SCC iter.                  ...        0 min,  0.011 sec
     gradient                   ...        0 min,  0.012 sec
 * total energy  :   -82.6719019 Eh     change       -0.7377911E-04 Eh
   gradient norm :     0.0028021 Eh/α   predicted    -0.4439316E-04 ( -39.83%)
   displ. norm   :     0.2688258 α      lambda       -0.1091169E-03
   maximum displ.:     0.1805793 α      in ANC's #4, #3, #5, ...

........................................................................
.............................. CYCLE   15 ..............................
........................................................................

 iter      E             dE          RMSdq      gap      omega  full diag
   1    -83.5080544 -0.835081E+02  0.338E-02    7.41       0.0  T
   2    -83.5080548 -0.400724E-06  0.203E-02    7.41       1.0  T
   3    -83.5080549 -0.821109E-07  0.129E-03    7.41       9.9  T
   4    -83.5080549 -0.271591E-07  0.661E-04    7.41      19.2  T
   5    -83.5080549 -0.170068E-08  0.257E-04    7.41      49.5  T
     SCC iter.                  ...        0 min,  0.013 sec
     gradient                   ...        0 min,  0.012 sec
 * total energy  :   -82.6719951 Eh     change       -0.9325415E-04 Eh
   gradient norm :     0.0024415 Eh/α   predicted    -0.5850237E-04 ( -37.27%)
   displ. norm   :     0.3103150 α      lambda       -0.1143068E-03
   maximum displ.:     0.2092341 α      in ANC's #4, #3, #5, ...

........................................................................
.............................. CYCLE   16 ..............................
........................................................................

 iter      E             dE          RMSdq      gap      omega  full diag
   1    -83.5077518 -0.835078E+02  0.370E-02    7.40       0.0  T
   2    -83.5077523 -0.484922E-06  0.222E-02    7.40       1.0  T
   3    -83.5077524 -0.102253E-06  0.138E-03    7.40       9.2  T
   4    -83.5077525 -0.271420E-07  0.722E-04    7.40      17.6  T
   5    -83.5077525 -0.203106E-08  0.277E-04    7.40      45.9  T
     SCC iter.                  ...        0 min,  0.013 sec
     gradient                   ...        0 min,  0.012 sec
 * total energy  :   -82.6720940 Eh     change       -0.9882003E-04 Eh
   gradient norm :     0.0027836 Eh/α   predicted    -0.6265805E-04 ( -36.59%)
   displ. norm   :     0.3424364 α      lambda       -0.1230193E-03
   maximum displ.:     0.2314316 α      in ANC's #4, #3, #5, ...

........................................................................
.............................. CYCLE   17 ..............................
........................................................................

 iter      E             dE          RMSdq      gap      omega  full diag
   1    -83.5076928 -0.835077E+02  0.391E-02    7.40       0.0  T
   2    -83.5076933 -0.501772E-06  0.235E-02    7.40       1.0  T
   3    -83.5076935 -0.121661E-06  0.143E-03    7.40       8.9  T
   4    -83.5076935 -0.258577E-07  0.775E-04    7.40      16.4  T
   5    -83.5076935 -0.224658E-08  0.279E-04    7.40      45.5  T
     SCC iter.                  ...        0 min,  0.013 sec
     gradient                   ...        0 min,  0.012 sec
 * total energy  :   -82.6722045 Eh     change       -0.1105416E-03 Eh
   gradient norm :     0.0032267 Eh/α   predicted    -0.6872312E-04 ( -37.83%)
   displ. norm   :     0.4156216 α      lambda       -0.1585010E-03
   maximum displ.:     0.2809595 α      in ANC's #4, #3, #5, ...

........................................................................
.............................. CYCLE   18 ..............................
........................................................................

 iter      E             dE          RMSdq      gap      omega  full diag
   1    -83.5079186 -0.835079E+02  0.463E-02    7.39       0.0  T
   2    -83.5079192 -0.572250E-06  0.278E-02    7.39       1.0  T
   3    -83.5079194 -0.190981E-06  0.163E-03    7.39       7.8  T
   4    -83.5079194 -0.229326E-07  0.915E-04    7.39      13.9  T
   5    -83.5079194 -0.313858E-08  0.294E-04    7.39      43.2  T
     SCC iter.                  ...        0 min,  0.013 sec
     gradient                   ...        0 min,  0.012 sec
 * total energy  :   -82.6723499 Eh     change       -0.1454169E-03 Eh
   gradient norm :     0.0033790 Eh/α   predicted    -0.9294545E-04 ( -36.08%)
   displ. norm   :     0.5323001 α      lambda       -0.2135843E-03
   maximum displ.:     0.3601029 α      in ANC's #4, #3, #5, ...

........................................................................
.............................. CYCLE   19 ..............................
........................................................................

 iter      E             dE          RMSdq      gap      omega  full diag
   1    -83.5079952 -0.835080E+02  0.593E-02    7.39       0.0  T
   2    -83.5079960 -0.826147E-06  0.356E-02    7.39       1.0  T
   3    -83.5079964 -0.333330E-06  0.210E-03    7.39       6.1  T
   4    -83.5079964 -0.331239E-07  0.118E-03    7.39      10.8  T
   5    -83.5079964 -0.567752E-08  0.338E-04    7.39      37.6  T
   6    -83.5079964 -0.781554E-09  0.123E-04    7.39     103.1  T
     SCC iter.                  ...        0 min,  0.016 sec
     gradient                   ...        0 min,  0.012 sec
 * total energy  :   -82.6725458 Eh     change       -0.1958272E-03 Eh
   gradient norm :     0.0031753 Eh/α   predicted    -0.1370539E-03 ( -30.01%)
   displ. norm   :     0.6357280 α      lambda       -0.2596413E-03
   maximum displ.:     0.4306161 α      in ANC's #4, #3, #5, ...

........................................................................
.............................. CYCLE   20 ..............................
........................................................................

 iter      E             dE          RMSdq      gap      omega  full diag
   1    -83.5081040 -0.835081E+02  0.712E-02    7.38       0.0  T
   2    -83.5081052 -0.112565E-05  0.427E-02    7.38       1.0  T
   3    -83.5081056 -0.491274E-06  0.257E-03    7.38       4.9  T
   4    -83.5081057 -0.545282E-07  0.146E-03    7.38       8.7  T
   5    -83.5081057 -0.963405E-08  0.373E-04    7.38      34.1  T
   6    -83.5081057 -0.884029E-09  0.143E-04    7.38      88.9  T
     SCC iter.                  ...        0 min,  0.016 sec
     gradient                   ...        0 min,  0.012 sec
 * total energy  :   -82.6727788 Eh     change       -0.2330901E-03 Eh
   gradient norm :     0.0031196 Eh/α   predicted    -0.1822883E-03 ( -21.79%)
   displ. norm   :     0.6979993 α      lambda       -0.2757316E-03
   maximum displ.:     0.4754841 α      in ANC's #4, #3, #5, ...
 * RMSD in coord.:     0.6313389 α      energy gain  -0.2123483E-01 Eh

generating ANC from exact Hessian ...
Using Lindh-Hessian (1995)
 Shifting diagonal of input Hessian by    9.9051580201406746E-003
 Lowest  eigenvalues of input Hessian
    0.000000    0.000000    0.000000    0.000000    0.000000    0.000000
    0.010000    0.010035    0.010056    0.010210    0.010285    0.010513
    0.010583    0.011011    0.011140    0.011385    0.011492    0.011730
 Highest eigenvalues
    1.552604    1.553830    1.555872    1.574344    1.575239    1.579874


........................................................................
.............................. CYCLE   21 ..............................
........................................................................

 iter      E             dE          RMSdq      gap      omega  full diag
   1    -83.5077312 -0.835077E+02  0.795E-02    7.37       0.0  T
   2    -83.5077326 -0.137433E-05  0.477E-02    7.38       1.0  T
   3    -83.5077332 -0.624566E-06  0.285E-03    7.38       4.5  T
   4    -83.5077333 -0.587807E-07  0.160E-03    7.38       7.9  T
   5    -83.5077333 -0.120762E-07  0.404E-04    7.38      31.4  T
   6    -83.5077333 -0.101116E-08  0.167E-04    7.38      75.8  T
     SCC iter.                  ...        0 min,  0.016 sec
     gradient                   ...        0 min,  0.012 sec
 * total energy  :   -82.6730180 Eh     change       -0.2392037E-03 Eh
   gradient norm :     0.0037678 Eh/α   predicted     0.0000000E+00 (-100.00%)
   displ. norm   :     0.0584156 α      lambda       -0.7319679E-04
   maximum displ.:     0.0350136 α      in ANC's #4, #34, #14, ...

........................................................................
.............................. CYCLE   22 ..............................
........................................................................

 iter      E             dE          RMSdq      gap      omega  full diag
   1    -83.5089852 -0.835090E+02  0.118E-02    7.38       0.0  T
   2    -83.5089853 -0.138864E-06  0.703E-03    7.38       1.8  T
   3    -83.5089853 -0.121772E-07  0.702E-04    7.38      18.1  T
   4    -83.5089853 -0.698205E-08  0.255E-04    7.38      49.9  T
     SCC iter.                  ...        0 min,  0.011 sec
     gradient                   ...        0 min,  0.014 sec
 * total energy  :   -82.6730781 Eh     change       -0.6005230E-04 Eh
   gradient norm :     0.0017184 Eh/α   predicted    -0.3676186E-04 ( -38.78%)
   displ. norm   :     0.2270767 α      lambda       -0.1146627E-03
   maximum displ.:     0.1400237 α      in ANC's #4, #14, #34, ...

........................................................................
.............................. CYCLE   23 ..............................
........................................................................

 iter      E             dE          RMSdq      gap      omega  full diag
   1    -83.5109497 -0.835109E+02  0.404E-02    7.38       0.0  T
   2    -83.5109508 -0.114251E-05  0.242E-02    7.39       1.0  T
   3    -83.5109509 -0.127462E-06  0.197E-03    7.39       6.5  T
   4    -83.5109510 -0.523315E-07  0.788E-04    7.39      16.1  T
   5    -83.5109510 -0.495413E-08  0.346E-04    7.39      36.7  T
     SCC iter.                  ...        0 min,  0.014 sec
     gradient                   ...        0 min,  0.012 sec
 * total energy  :   -82.6731709 Eh     change       -0.9275312E-04 Eh
   gradient norm :     0.0035608 Eh/α   predicted    -0.5864669E-04 ( -36.77%)
   displ. norm   :     0.0774384 α      lambda       -0.4071165E-04
   maximum displ.:     0.0547395 α      in ANC's #4, #3, #2, ...

........................................................................
.............................. CYCLE   24 ..............................
........................................................................

 iter      E             dE          RMSdq      gap      omega  full diag
   1    -83.5105929 -0.835106E+02  0.131E-02    7.39       0.0  T
   2    -83.5105930 -0.426917E-07  0.790E-03    7.39       1.6  T
   3    -83.5105930 -0.135944E-07  0.432E-04    7.39      29.4  T
   4    -83.5105930 -0.185352E-08  0.243E-04    7.39      52.3  T
     SCC iter.                  ...        0 min,  0.011 sec
     gradient                   ...        0 min,  0.012 sec
 * total energy  :   -82.6732088 Eh     change       -0.3794082E-04 Eh
   gradient norm :     0.0028467 Eh/α   predicted    -0.2047969E-04 ( -46.02%)
   displ. norm   :     0.1805801 α      lambda       -0.9834531E-04
   maximum displ.:     0.1208586 α      in ANC's #4, #3, #2, ...

........................................................................
.............................. CYCLE   25 ..............................
........................................................................

 iter      E             dE          RMSdq      gap      omega  full diag
   1    -83.5094916 -0.835095E+02  0.301E-02    7.39       0.0  T
   2    -83.5094918 -0.229641E-06  0.181E-02    7.38       1.0  T
   3    -83.5094919 -0.734948E-07  0.103E-03    7.38      12.3  T
   4    -83.5094919 -0.116250E-07  0.566E-04    7.38      22.4  T
   5    -83.5094919 -0.142195E-08  0.213E-04    7.38      59.8  T
     SCC iter.                  ...        0 min,  0.014 sec
     gradient                   ...        0 min,  0.012 sec
 * total energy  :   -82.6732893 Eh     change       -0.8049658E-04 Eh
   gradient norm :     0.0010896 Eh/α   predicted    -0.5078252E-04 ( -36.91%)
   displ. norm   :     0.3583871 α      lambda       -0.8851713E-04
   maximum displ.:     0.2382807 α      in ANC's #4, #3, #2, ...

........................................................................
.............................. CYCLE   26 ..............................
........................................................................

 iter      E             dE          RMSdq      gap      omega  full diag
   1    -83.5077077 -0.835077E+02  0.576E-02    7.38       0.0  T
   2    -83.5077085 -0.800680E-06  0.347E-02    7.38       1.0  T
   3    -83.5077088 -0.258234E-06  0.185E-03    7.37       6.9  T
   4    -83.5077088 -0.279768E-07  0.101E-03    7.37      12.5  T
   5    -83.5077088 -0.434969E-08  0.390E-04    7.38      32.6  T
   6    -83.5077088 -0.949370E-09  0.129E-04    7.38      98.3  T
     SCC iter.                  ...        0 min,  0.016 sec
     gradient                   ...        0 min,  0.012 sec
 * total energy  :   -82.6733778 Eh     change       -0.8851654E-04 Eh
   gradient norm :     0.0039601 Eh/α   predicted    -0.4678775E-04 ( -47.14%)
   displ. norm   :     0.1278531 α      lambda       -0.4649674E-04
   maximum displ.:     0.0868490 α      in ANC's #4, #3, #2, ...

........................................................................
.............................. CYCLE   27 ..............................
........................................................................

 iter      E             dE          RMSdq      gap      omega  full diag
   1    -83.5080869 -0.835081E+02  0.190E-02    7.37       0.0  T
   2    -83.5080869 -0.650635E-07  0.114E-02    7.37       1.1  T
   3    -83.5080870 -0.237554E-07  0.552E-04    7.37      23.0  T
   4    -83.5080870 -0.194113E-08  0.312E-04    7.37      40.7  T
     SCC iter.                  ...        0 min,  0.011 sec
     gradient                   ...        0 min,  0.012 sec
 * total energy  :   -82.6734215 Eh     change       -0.4369509E-04 Eh
   gradient norm :     0.0036194 Eh/α   predicted    -0.2362914E-04 ( -45.92%)
   displ. norm   :     0.2535047 α      lambda       -0.1156295E-03
   maximum displ.:     0.1703283 α      in ANC's #4, #3, #2, ...

........................................................................
.............................. CYCLE   28 ..............................
........................................................................

 iter      E             dE          RMSdq      gap      omega  full diag
   1    -83.5095109 -0.835095E+02  0.365E-02    7.37       0.0  T
   2    -83.5095112 -0.244838E-06  0.218E-02    7.37       1.0  T
   3    -83.5095112 -0.734921E-07  0.108E-03    7.37      11.7  T
   4    -83.5095113 -0.129368E-07  0.595E-04    7.37      21.4  T
   5    -83.5095113 -0.144956E-08  0.192E-04    7.37      66.2  T
     SCC iter.                  ...        0 min,  0.013 sec
     gradient                   ...        0 min,  0.012 sec
 * total energy  :   -82.6735217 Eh     change       -0.1002144E-03 Eh
   gradient norm :     0.0017957 Eh/α   predicted    -0.6153059E-04 ( -38.60%)
   displ. norm   :     0.6375433 α      lambda       -0.1519809E-03
   maximum displ.:     0.4288667 α      in ANC's #4, #3, #2, ...

........................................................................
.............................. CYCLE   29 ..............................
........................................................................

 iter      E             dE          RMSdq      gap      omega  full diag
   1    -83.5103292 -0.835103E+02  0.914E-02    7.37       0.0  T
   2    -83.5103305 -0.124820E-05  0.547E-02    7.37       1.0  T
   3    -83.5103309 -0.434990E-06  0.249E-03    7.37       5.1  T
   4    -83.5103310 -0.584849E-07  0.142E-03    7.37       9.0  T
   5    -83.5103310 -0.779150E-08  0.409E-04    7.37      31.0  T
   6    -83.5103310 -0.108209E-08  0.159E-04    7.37      79.7  T
     SCC iter.                  ...        0 min,  0.017 sec
     gradient                   ...        0 min,  0.012 sec
 * total energy  :   -82.6737037 Eh     change       -0.1820200E-03 Eh
   gradient norm :     0.0025953 Eh/α   predicted    -0.8972151E-04 ( -50.71%)
   displ. norm   :     0.3940922 α      lambda       -0.1196256E-03
   maximum displ.:     0.2666902 α      in ANC's #4, #3, #2, ...

........................................................................
.............................. CYCLE   30 ..............................
........................................................................

 iter      E             dE          RMSdq      gap      omega  full diag
   1    -83.5101148 -0.835101E+02  0.556E-02    7.38       0.0  T
   2    -83.5101152 -0.400380E-06  0.333E-02    7.38       1.0  T
   3    -83.5101154 -0.190506E-06  0.149E-03    7.38       8.5  T
   4    -83.5101154 -0.987465E-08  0.819E-04    7.38      15.5  T
   5    -83.5101154 -0.273944E-08  0.219E-04    7.38      58.0  T
     SCC iter.                  ...        0 min,  0.013 sec
     gradient                   ...        0 min,  0.012 sec
 * total energy  :   -82.6738151 Eh     change       -0.1113149E-03 Eh
   gradient norm :     0.0027222 Eh/α   predicted    -0.6910439E-04 ( -37.92%)
   displ. norm   :     0.4774814 α      lambda       -0.1631337E-03
   maximum displ.:     0.3232527 α      in ANC's #4, #3, #2, ...

........................................................................
.............................. CYCLE   31 ..............................
........................................................................

 iter      E             dE          RMSdq      gap      omega  full diag
   1    -83.5099162 -0.835099E+02  0.662E-02    7.38       0.0  T
   2    -83.5099168 -0.555823E-06  0.396E-02    7.38       1.0  T
   3    -83.5099170 -0.280434E-06  0.183E-03    7.38       7.0  T
   4    -83.5099170 -0.173046E-07  0.102E-03    7.38      12.4  T
   5    -83.5099171 -0.489052E-08  0.253E-04    7.38      50.1  T
   6    -83.5099171 -0.421821E-09  0.999E-05    7.38     127.1  T
     SCC iter.                  ...        0 min,  0.016 sec
     gradient                   ...        0 min,  0.012 sec
 * total energy  :   -82.6739642 Eh     change       -0.1491065E-03 Eh
   gradient norm :     0.0022695 Eh/α   predicted    -0.1001685E-03 ( -32.82%)
   displ. norm   :     0.6181426 α      lambda       -0.2123062E-03
   maximum displ.:     0.4195237 α      in ANC's #4, #2, #3, ...

........................................................................
.............................. CYCLE   32 ..............................
........................................................................

 iter      E             dE          RMSdq      gap      omega  full diag
   1    -83.5089676 -0.835090E+02  0.846E-02    7.39       0.0  T
   2    -83.5089685 -0.908783E-06  0.506E-02    7.39       1.0  T
   3    -83.5089689 -0.455076E-06  0.234E-03    7.39       5.4  T
   4    -83.5089690 -0.317575E-07  0.132E-03    7.39       9.6  T
   5    -83.5089690 -0.825523E-08  0.320E-04    7.39      39.7  T
   6    -83.5089690 -0.650331E-09  0.119E-04    7.39     106.8  T
     SCC iter.                  ...        0 min,  0.016 sec
     gradient                   ...        0 min,  0.012 sec
 * total energy  :   -82.6741476 Eh     change       -0.1834567E-03 Eh
   gradient norm :     0.0028981 Eh/α   predicted    -0.1467156E-03 ( -20.03%)
   displ. norm   :     0.6660393 α      lambda       -0.2256902E-03
   maximum displ.:     0.4521561 α      in ANC's #4, #2, #3, ...

........................................................................
.............................. CYCLE   33 ..............................
........................................................................

 iter      E             dE          RMSdq      gap      omega  full diag
   1    -83.5079817 -0.835080E+02  0.883E-02    7.39       0.0  T
   2    -83.5079829 -0.116955E-05  0.528E-02    7.39       1.0  T
   3    -83.5079834 -0.515781E-06  0.261E-03    7.39       4.9  T
   4    -83.5079835 -0.546181E-07  0.149E-03    7.39       8.5  T
   5    -83.5079835 -0.970725E-08  0.387E-04    7.39      32.8  T
   6    -83.5079835 -0.939750E-09  0.140E-04    7.39      90.6  T
     SCC iter.                  ...        0 min,  0.016 sec
     gradient                   ...        0 min,  0.012 sec
 * total energy  :   -82.6743282 Eh     change       -0.1805477E-03 Eh
   gradient norm :     0.0043908 Eh/α   predicted    -0.1629052E-03 (  -9.77%)
   displ. norm   :     0.5335239 α      lambda       -0.1902942E-03
   maximum displ.:     0.3556459 α      in ANC's #4, #2, #3, ...

........................................................................
.............................. CYCLE   34 ..............................
........................................................................

 iter      E             dE          RMSdq      gap      omega  full diag
   1    -83.5083946 -0.835084E+02  0.681E-02    7.39       0.0  T
   2    -83.5083957 -0.107029E-05  0.408E-02    7.39       1.0  T
   3    -83.5083960 -0.318388E-06  0.230E-03    7.39       5.5  T
   4    -83.5083960 -0.625409E-07  0.123E-03    7.39      10.4  T
   5    -83.5083961 -0.698913E-08  0.433E-04    7.39      29.3  T
   6    -83.5083961 -0.999705E-09  0.139E-04    7.39      91.5  T
     SCC iter.                  ...        0 min,  0.016 sec
     gradient                   ...        0 min,  0.012 sec
 * total energy  :   -82.6744773 Eh     change       -0.1491714E-03 Eh
   gradient norm :     0.0048578 Eh/α   predicted    -0.1222345E-03 ( -18.06%)
   displ. norm   :     0.6021388 α      lambda       -0.1878366E-03
   maximum displ.:     0.4060025 α      in ANC's #4, #2, #3, ...

........................................................................
.............................. CYCLE   35 ..............................
........................................................................

 iter      E             dE          RMSdq      gap      omega  full diag
   1    -83.5068935 -0.835069E+02  0.792E-02    7.38       0.0  T
   2    -83.5068945 -0.108162E-05  0.473E-02    7.38       1.0  T
   3    -83.5068949 -0.372611E-06  0.221E-03    7.38       5.8  T
   4    -83.5068949 -0.341640E-07  0.124E-03    7.38      10.2  T
   5    -83.5068949 -0.568993E-08  0.365E-04    7.38      34.8  T
   6    -83.5068949 -0.956149E-09  0.154E-04    7.38      82.6  T
     SCC iter.                  ...        0 min,  0.016 sec
     gradient                   ...        0 min,  0.012 sec
 * total energy  :   -82.6746206 Eh     change       -0.1432738E-03 Eh
   gradient norm :     0.0055448 Eh/α   predicted    -0.1279713E-03 ( -10.68%)
   displ. norm   :     0.4766785 α      lambda       -0.3169508E-03
   maximum displ.:     0.2652654 α      in ANC's #4, #2, #3, ...

........................................................................
.............................. CYCLE   36 ..............................
........................................................................

 iter      E             dE          RMSdq      gap      omega  full diag
   1    -83.5133075 -0.835133E+02  0.609E-02    7.36       0.0  T
   2    -83.5133108 -0.321590E-05  0.364E-02    7.37       1.0  T
   3    -83.5133111 -0.298088E-06  0.340E-03    7.37       3.7  T
   4    -83.5133112 -0.176217E-06  0.134E-03    7.37       9.5  T
   5    -83.5133113 -0.124322E-07  0.585E-04    7.37      21.7  T
   6    -83.5133113 -0.144263E-08  0.227E-04    7.37      56.0  T
     SCC iter.                  ...        0 min,  0.016 sec
     gradient                   ...        0 min,  0.012 sec
 * total energy  :   -82.6747379 Eh     change       -0.1172673E-03 Eh
   gradient norm :     0.0057344 Eh/α   predicted    -0.1944889E-03 (  65.85%)
   displ. norm   :     0.5260108 α      lambda       -0.2117536E-03
   maximum displ.:     0.3565073 α      in ANC's #4, #2, #3, ...

........................................................................
.............................. CYCLE   37 ..............................
........................................................................

 iter      E             dE          RMSdq      gap      omega  full diag
   1    -83.5086087 -0.835086E+02  0.710E-02    7.37       0.0  T
   2    -83.5086102 -0.154511E-05  0.425E-02    7.37       1.0  T
   3    -83.5086105 -0.285217E-06  0.231E-03    7.36       5.5  T
   4    -83.5086106 -0.647979E-07  0.113E-03    7.36      11.2  T
   5    -83.5086106 -0.633899E-08  0.475E-04    7.36      26.7  T
   6    -83.5086106 -0.103886E-08  0.162E-04    7.36      78.2  T
     SCC iter.                  ...        0 min,  0.016 sec
     gradient                   ...        0 min,  0.013 sec
 * total energy  :   -82.6748739 Eh     change       -0.1360411E-03 Eh
   gradient norm :     0.0037802 Eh/α   predicted    -0.1351737E-03 (  -0.64%)
   displ. norm   :     0.3038586 α      lambda       -0.8389777E-04
   maximum displ.:     0.1982620 α      in ANC's #4, #2, #3, ...

........................................................................
.............................. CYCLE   38 ..............................
........................................................................

 iter      E             dE          RMSdq      gap      omega  full diag
   1    -83.5082065 -0.835082E+02  0.374E-02    7.36       0.0  T
   2    -83.5082069 -0.439612E-06  0.223E-02    7.36       1.0  T
   3    -83.5082070 -0.951353E-07  0.129E-03    7.36       9.9  T
   4    -83.5082071 -0.195041E-07  0.662E-04    7.36      19.2  T
   5    -83.5082071 -0.208294E-08  0.264E-04    7.36      48.2  T
     SCC iter.                  ...        0 min,  0.013 sec
     gradient                   ...        0 min,  0.022 sec
 * total energy  :   -82.6749340 Eh     change       -0.6006030E-04 Eh
   gradient norm :     0.0041354 Eh/α   predicted    -0.4582371E-04 ( -23.70%)
   displ. norm   :     0.3699572 α      lambda       -0.1130727E-03
   maximum displ.:     0.2269974 α      in ANC's #4, #2, #3, ...

........................................................................
.............................. CYCLE   39 ..............................
........................................................................

 iter      E             dE          RMSdq      gap      omega  full diag
   1    -83.5092260 -0.835092E+02  0.451E-02    7.36       0.0  T
   2    -83.5092265 -0.506996E-06  0.270E-02    7.36       1.0  T
   3    -83.5092267 -0.176011E-06  0.155E-03    7.36       8.2  T
   4    -83.5092267 -0.157611E-07  0.875E-04    7.36      14.5  T
   5    -83.5092267 -0.291146E-08  0.257E-04    7.36      49.5  T
     SCC iter.                  ...        0 min,  0.017 sec
     gradient                   ...        0 min,  0.015 sec
 * total energy  :   -82.6750180 Eh     change       -0.8406968E-04 Eh
   gradient norm :     0.0040539 Eh/α   predicted    -0.6427509E-04 ( -23.55%)
   displ. norm   :     0.3841722 α      lambda       -0.1278070E-03
   maximum displ.:     0.2202484 α      in ANC's #4, #2, #3, ...

........................................................................
.............................. CYCLE   40 ..............................
........................................................................

 iter      E             dE          RMSdq      gap      omega  full diag
   1    -83.5111562 -0.835112E+02  0.442E-02    7.36       0.0  T
   2    -83.5111568 -0.654053E-06  0.264E-02    7.36       1.0  T
   3    -83.5111570 -0.145167E-06  0.160E-03    7.36       8.0  T
   4    -83.5111570 -0.227625E-07  0.812E-04    7.36      15.6  T
   5    -83.5111570 -0.246723E-08  0.271E-04    7.36      46.9  T
     SCC iter.                  ...        0 min,  0.013 sec
     gradient                   ...        0 min,  0.012 sec
 * total energy  :   -82.6750976 Eh     change       -0.7953484E-04 Eh
   gradient norm :     0.0037902 Eh/α   predicted    -0.7334059E-04 (  -7.79%)
   displ. norm   :     0.5549545 α      lambda       -0.1124895E-03
   maximum displ.:     0.3445881 α      in ANC's #4, #2, #3, ...

........................................................................
.............................. CYCLE   41 ..............................
........................................................................

 iter      E             dE          RMSdq      gap      omega  full diag
   1    -83.5088509 -0.835089E+02  0.673E-02    7.36       0.0  T
   2    -83.5088519 -0.102532E-05  0.402E-02    7.36       1.0  T
   3    -83.5088523 -0.388758E-06  0.225E-03    7.36       5.7  T
   4    -83.5088523 -0.273284E-07  0.127E-03    7.36      10.0  T
   5    -83.5088523 -0.568824E-08  0.335E-04    7.36      37.9  T
   6    -83.5088523 -0.849226E-09  0.148E-04    7.36      85.9  T
     SCC iter.                  ...        0 min,  0.016 sec
     gradient                   ...        0 min,  0.012 sec
 * total energy  :   -82.6751713 Eh     change       -0.7373647E-04 Eh
   gradient norm :     0.0037787 Eh/α   predicted    -0.7356811E-04 (  -0.23%)
   displ. norm   :     0.3109719 α      lambda       -0.1338704E-03
   maximum displ.:     0.1909152 α      in ANC's #2, #4, #3, ...

........................................................................
.............................. CYCLE   42 ..............................
........................................................................

 iter      E             dE          RMSdq      gap      omega  full diag
   1    -83.5129895 -0.835130E+02  0.382E-02    7.36       0.0  T
   2    -83.5129903 -0.786905E-06  0.230E-02    7.37       1.0  T
   3    -83.5129905 -0.207367E-06  0.184E-03    7.37       6.9  T
   4    -83.5129905 -0.291879E-07  0.990E-04    7.37      12.8  T
   5    -83.5129905 -0.305424E-08  0.316E-04    7.37      40.2  T
     SCC iter.                  ...        0 min,  0.013 sec
     gradient                   ...        0 min,  0.012 sec
 * total energy  :   -82.6752317 Eh     change       -0.6035769E-04 Eh
   gradient norm :     0.0053242 Eh/α   predicted    -0.7340901E-04 (  21.62%)
   displ. norm   :     0.4260775 α      lambda       -0.1375723E-03
   maximum displ.:     0.2505011 α      in ANC's #2, #4, #3, ...
 * RMSD in coord.:     1.0104365 α      energy gain  -0.2452831E-02 Eh

generating ANC from exact Hessian ...
Using Lindh-Hessian (1995)
 Shifting diagonal of input Hessian by    9.9134824143080440E-003
 Lowest  eigenvalues of input Hessian
    0.000000    0.000000    0.000000    0.000000    0.000000    0.000000
    0.010000    0.010029    0.010059    0.010214    0.010299    0.010451
    0.010639    0.010894    0.011083    0.011168    0.011429    0.011724
 Highest eigenvalues
    1.555606    1.556135    1.557591    1.574569    1.576346    1.577047


........................................................................
.............................. CYCLE   43 ..............................
........................................................................

 iter      E             dE          RMSdq      gap      omega  full diag
   1    -83.5112192 -0.835112E+02  0.494E-02    7.37       0.0  T
   2    -83.5112199 -0.659096E-06  0.295E-02    7.37       1.0  T
   3    -83.5112200 -0.159895E-06  0.163E-03    7.37       7.8  T
   4    -83.5112201 -0.269065E-07  0.874E-04    7.37      14.5  T
   5    -83.5112201 -0.250601E-08  0.271E-04    7.37      46.9  T
     SCC iter.                  ...        0 min,  0.013 sec
     gradient                   ...        0 min,  0.012 sec
 * total energy  :   -82.6753373 Eh     change       -0.1055947E-03 Eh
   gradient norm :     0.0038414 Eh/α   predicted     0.0000000E+00 (-100.00%)
   displ. norm   :     0.0462554 α      lambda       -0.5653240E-04
   maximum displ.:     0.0220603 α      in ANC's #2, #11, #27, ...

........................................................................
.............................. CYCLE   44 ..............................
........................................................................

 iter      E             dE          RMSdq      gap      omega  full diag
   1    -83.5114726 -0.835115E+02  0.921E-03    7.37       0.0  T
   2    -83.5114727 -0.107757E-06  0.554E-03    7.37       2.3  T
   3    -83.5114727 -0.609954E-08  0.698E-04    7.37      18.2  T
   4    -83.5114727 -0.996791E-08  0.240E-04    7.37      52.8  T
     SCC iter.                  ...        0 min,  0.011 sec
     gradient                   ...        0 min,  0.012 sec
 * total energy  :   -82.6753816 Eh     change       -0.4429031E-04 Eh
   gradient norm :     0.0016163 Eh/α   predicted    -0.2839501E-04 ( -35.89%)
   displ. norm   :     0.1582502 α      lambda       -0.6678029E-04
   maximum displ.:     0.0805451 α      in ANC's #2, #11, #9, ...

........................................................................
.............................. CYCLE   45 ..............................
........................................................................

 iter      E             dE          RMSdq      gap      omega  full diag
   1    -83.5117540 -0.835118E+02  0.245E-02    7.36       0.0  T
   2    -83.5117546 -0.604620E-06  0.147E-02    7.36       1.0  T
   3    -83.5117546 -0.258288E-07  0.174E-03    7.36       7.3  T
   4    -83.5117547 -0.682874E-07  0.587E-04    7.36      21.6  T
   5    -83.5117547 -0.190431E-08  0.226E-04    7.36      56.1  T
     SCC iter.                  ...        0 min,  0.013 sec
     gradient                   ...        0 min,  0.012 sec
 * total energy  :   -82.6754306 Eh     change       -0.4903548E-04 Eh
   gradient norm :     0.0030270 Eh/α   predicted    -0.3376201E-04 ( -31.15%)
   displ. norm   :     0.0427292 α      lambda       -0.2001455E-04
   maximum displ.:     0.0264231 α      in ANC's #2, #4, #9, ...

........................................................................
.............................. CYCLE   46 ..............................
........................................................................

 iter      E             dE          RMSdq      gap      omega  full diag
   1    -83.5116973 -0.835117E+02  0.618E-03    7.36       0.0  T
   2    -83.5116973 -0.162126E-07  0.370E-03    7.36       3.4  T
   3    -83.5116973 -0.470654E-08  0.265E-04    7.36      47.9  T
   4    -83.5116973 -0.513523E-09  0.144E-04    7.36      88.4  T
     SCC iter.                  ...        0 min,  0.011 sec
     gradient                   ...        0 min,  0.012 sec
 * total energy  :   -82.6754484 Eh     change       -0.1782701E-04 Eh
   gradient norm :     0.0021438 Eh/α   predicted    -0.1002589E-04 ( -43.76%)
   displ. norm   :     0.1333942 α      lambda       -0.4990483E-04
   maximum displ.:     0.0801145 α      in ANC's #2, #4, #9, ...

........................................................................
.............................. CYCLE   47 ..............................
........................................................................

 iter      E             dE          RMSdq      gap      omega  full diag
   1    -83.5114878 -0.835115E+02  0.186E-02    7.37       0.0  T
   2    -83.5114880 -0.114774E-06  0.111E-02    7.37       1.1  T
   3    -83.5114880 -0.362427E-07  0.732E-04    7.37      17.4  T
   4    -83.5114880 -0.511693E-08  0.405E-04    7.37      31.3  T
     SCC iter.                  ...        0 min,  0.010 sec
     gradient                   ...        0 min,  0.012 sec
 * total energy  :   -82.6754834 Eh     change       -0.3494573E-04 Eh
   gradient norm :     0.0009952 Eh/α   predicted    -0.2539834E-04 ( -27.32%)
   displ. norm   :     0.1722203 α      lambda       -0.2296322E-04
   maximum displ.:     0.1065637 α      in ANC's #2, #4, #7, ...

........................................................................
.............................. CYCLE   48 ..............................
........................................................................

 iter      E             dE          RMSdq      gap      omega  full diag
   1    -83.5112827 -0.835113E+02  0.219E-02    7.37       0.0  T
   2    -83.5112828 -0.117177E-06  0.132E-02    7.37       1.0  T
   3    -83.5112829 -0.450154E-07  0.784E-04    7.36      16.2  T
   4    -83.5112829 -0.560762E-08  0.445E-04    7.36      28.5  T
     SCC iter.                  ...        0 min,  0.011 sec
     gradient                   ...        0 min,  0.012 sec
 * total energy  :   -82.6755076 Eh     change       -0.2428094E-04 Eh
   gradient norm :     0.0023194 Eh/α   predicted    -0.1163557E-04 ( -52.08%)
   displ. norm   :     0.0828846 α      lambda       -0.1948797E-04
   maximum displ.:     0.0530353 α      in ANC's #2, #4, #7, ...

........................................................................
.............................. CYCLE   49 ..............................
........................................................................

 iter      E             dE          RMSdq      gap      omega  full diag
   1    -83.5114398 -0.835114E+02  0.992E-03    7.36       0.0  T
   2    -83.5114399 -0.283818E-07  0.597E-03    7.36       2.1  T
   3    -83.5114399 -0.842384E-08  0.350E-04    7.36      36.3  T
   4    -83.5114399 -0.119999E-08  0.196E-04    7.36      64.8  T
     SCC iter.                  ...        0 min,  0.010 sec
     gradient                   ...        0 min,  0.012 sec
 * total energy  :   -82.6755256 Eh     change       -0.1793728E-04 Eh
   gradient norm :     0.0019407 Eh/α   predicted    -0.9813808E-05 ( -45.29%)
   displ. norm   :     0.2483110 α      lambda       -0.4152701E-04
   maximum displ.:     0.1585114 α      in ANC's #2, #4, #1, ...

........................................................................
.............................. CYCLE   50 ..............................
........................................................................

 iter      E             dE          RMSdq      gap      omega  full diag
   1    -83.5117301 -0.835117E+02  0.297E-02    7.36       0.0  T
   2    -83.5117304 -0.284279E-06  0.178E-02    7.36       1.0  T
   3    -83.5117304 -0.702928E-07  0.102E-03    7.36      12.4  T
   4    -83.5117304 -0.100081E-07  0.560E-04    7.36      22.7  T
   5    -83.5117304 -0.109959E-08  0.198E-04    7.36      64.1  T
     SCC iter.                  ...        0 min,  0.013 sec
     gradient                   ...        0 min,  0.012 sec
 * total energy  :   -82.6755703 Eh     change       -0.4468318E-04 Eh
   gradient norm :     0.0009600 Eh/α   predicted    -0.2133771E-04 ( -52.25%)
   displ. norm   :     0.2005211 α      lambda       -0.2055359E-04
   maximum displ.:     0.1320746 α      in ANC's #2, #4, #1, ...

........................................................................
.............................. CYCLE   51 ..............................
........................................................................

 iter      E             dE          RMSdq      gap      omega  full diag
   1    -83.5116563 -0.835117E+02  0.233E-02    7.35       0.0  T
   2    -83.5116565 -0.126356E-06  0.140E-02    7.36       1.0  T
   3    -83.5116565 -0.474686E-07  0.782E-04    7.36      16.2  T
   4    -83.5116565 -0.454064E-08  0.451E-04    7.36      28.2  T
     SCC iter.                  ...        0 min,  0.011 sec
     gradient                   ...        0 min,  0.012 sec
 * total energy  :   -82.6755966 Eh     change       -0.2629736E-04 Eh
   gradient norm :     0.0011689 Eh/α   predicted    -0.1046445E-04 ( -60.21%)
   displ. norm   :     0.1841996 α      lambda       -0.2158563E-04
   maximum displ.:     0.1219504 α      in ANC's #2, #4, #1, ...

........................................................................
.............................. CYCLE   52 ..............................
........................................................................

 iter      E             dE          RMSdq      gap      omega  full diag
   1    -83.5118261 -0.835118E+02  0.214E-02    7.35       0.0  T
   2    -83.5118262 -0.977499E-07  0.129E-02    7.35       1.0  T
   3    -83.5118263 -0.413993E-07  0.744E-04    7.35      17.1  T
   4    -83.5118263 -0.481403E-08  0.433E-04    7.35      29.3  T
     SCC iter.                  ...        0 min,  0.010 sec
     gradient                   ...        0 min,  0.012 sec
 * total energy  :   -82.6756267 Eh     change       -0.3015279E-04 Eh
   gradient norm :     0.0010814 Eh/α   predicted    -0.1095597E-04 ( -63.67%)
   displ. norm   :     0.2842926 α      lambda       -0.3685322E-04
   maximum displ.:     0.1843160 α      in ANC's #2, #4, #1, ...

........................................................................
.............................. CYCLE   53 ..............................
........................................................................

 iter      E             dE          RMSdq      gap      omega  full diag
   1    -83.5116438 -0.835116E+02  0.335E-02    7.35       0.0  T
   2    -83.5116440 -0.229583E-06  0.201E-02    7.35       1.0  T
   3    -83.5116441 -0.100002E-06  0.113E-03    7.35      11.3  T
   4    -83.5116441 -0.868260E-08  0.637E-04    7.35      19.9  T
   5    -83.5116441 -0.170130E-08  0.183E-04    7.35      69.4  T
     SCC iter.                  ...        0 min,  0.013 sec
     gradient                   ...        0 min,  0.016 sec
 * total energy  :   -82.6756776 Eh     change       -0.5084576E-04 Eh
   gradient norm :     0.0009772 Eh/α   predicted    -0.1908885E-04 ( -62.46%)
   displ. norm   :     0.4636646 α      lambda       -0.5815778E-04
   maximum displ.:     0.2972565 α      in ANC's #2, #4, #1, ...

........................................................................
.............................. CYCLE   54 ..............................
........................................................................

 iter      E             dE          RMSdq      gap      omega  full diag
   1    -83.5111553 -0.835112E+02  0.541E-02    7.35       0.0  T
   2    -83.5111559 -0.596500E-06  0.325E-02    7.35       1.0  T
   3    -83.5111562 -0.257092E-06  0.179E-03    7.35       7.1  T
   4    -83.5111562 -0.194718E-07  0.991E-04    7.35      12.8  T
   5    -83.5111562 -0.407518E-08  0.293E-04    7.35      43.4  T
     SCC iter.                  ...        0 min,  0.013 sec
     gradient                   ...        0 min,  0.013 sec
 * total energy  :   -82.6757539 Eh     change       -0.7633208E-04 Eh
   gradient norm :     0.0014324 Eh/α   predicted    -0.3185825E-04 ( -58.26%)
   displ. norm   :     0.5710562 α      lambda       -0.6692357E-04
   maximum displ.:     0.3672712 α      in ANC's #2, #4, #1, ...

........................................................................
.............................. CYCLE   55 ..............................
........................................................................

 iter      E             dE          RMSdq      gap      omega  full diag
   1    -83.5104573 -0.835105E+02  0.655E-02    7.35       0.0  T
   2    -83.5104582 -0.922067E-06  0.393E-02    7.35       1.0  T
   3    -83.5104586 -0.368849E-06  0.219E-03    7.35       5.8  T
   4    -83.5104586 -0.326979E-07  0.121E-03    7.35      10.5  T
   5    -83.5104586 -0.600700E-08  0.368E-04    7.35      34.5  T
   6    -83.5104586 -0.865640E-09  0.125E-04    7.35     101.3  T
     SCC iter.                  ...        0 min,  0.019 sec
     gradient                   ...        0 min,  0.012 sec
 * total energy  :   -82.6758382 Eh     change       -0.8433290E-04 Eh
   gradient norm :     0.0022153 Eh/α   predicted    -0.3831223E-04 ( -54.57%)
   displ. norm   :     0.3807819 α      lambda       -0.7056365E-04
   maximum displ.:     0.2475265 α      in ANC's #2, #4, #1, ...

........................................................................
.............................. CYCLE   56 ..............................
........................................................................

 iter      E             dE          RMSdq      gap      omega  full diag
   1    -83.5106127 -0.835106E+02  0.427E-02    7.35       0.0  T
   2    -83.5106131 -0.436609E-06  0.256E-02    7.35       1.0  T
   3    -83.5106133 -0.155764E-06  0.148E-03    7.36       8.6  T
   4    -83.5106133 -0.181376E-07  0.823E-04    7.36      15.4  T
   5    -83.5106133 -0.270546E-08  0.258E-04    7.36      49.3  T
     SCC iter.                  ...        0 min,  0.013 sec
     gradient                   ...        0 min,  0.012 sec
 * total energy  :   -82.6759013 Eh     change       -0.6311138E-04 Eh
   gradient norm :     0.0020967 Eh/α   predicted    -0.4039842E-04 ( -35.99%)
   displ. norm   :     0.5129497 α      lambda       -0.1003509E-03
   maximum displ.:     0.3353764 α      in ANC's #2, #4, #1, ...

........................................................................
.............................. CYCLE   57 ..............................
........................................................................

 iter      E             dE          RMSdq      gap      omega  full diag
   1    -83.5106182 -0.835106E+02  0.575E-02    7.36       0.0  T
   2    -83.5106189 -0.761898E-06  0.344E-02    7.36       1.0  T
   3    -83.5106192 -0.268071E-06  0.195E-03    7.36       6.5  T
   4    -83.5106192 -0.317178E-07  0.109E-03    7.36      11.7  T
   5    -83.5106192 -0.456268E-08  0.328E-04    7.36      38.7  T
   6    -83.5106192 -0.670525E-09  0.119E-04    7.36     107.1  T
     SCC iter.                  ...        0 min,  0.016 sec
     gradient                   ...        0 min,  0.012 sec
 * total energy  :   -82.6759909 Eh     change       -0.8953992E-04 Eh
   gradient norm :     0.0021200 Eh/α   predicted    -0.6338402E-04 ( -29.21%)
   displ. norm   :     0.5888097 α      lambda       -0.1257509E-03
   maximum displ.:     0.3896257 α      in ANC's #2, #4, #1, ...

........................................................................
.............................. CYCLE   58 ..............................
........................................................................

 iter      E             dE          RMSdq      gap      omega  full diag
   1    -83.5108561 -0.835109E+02  0.656E-02    7.36       0.0  T
   2    -83.5108571 -0.100818E-05  0.393E-02    7.36       1.0  T
   3    -83.5108574 -0.340696E-06  0.223E-03    7.36       5.7  T
   4    -83.5108575 -0.456064E-07  0.125E-03    7.36      10.2  T
   5    -83.5108575 -0.580485E-08  0.369E-04    7.36      34.4  T
   6    -83.5108575 -0.853831E-09  0.139E-04    7.36      91.4  T
     SCC iter.                  ...        0 min,  0.016 sec
     gradient                   ...        0 min,  0.012 sec
 * total energy  :   -82.6760999 Eh     change       -0.1090002E-03 Eh
   gradient norm :     0.0020509 Eh/α   predicted    -0.8467789E-04 ( -22.31%)
   displ. norm   :     0.6260907 α      lambda       -0.1272472E-03
   maximum displ.:     0.4189144 α      in ANC's #2, #4, #1, ...

........................................................................
.............................. CYCLE   59 ..............................
........................................................................

 iter      E             dE          RMSdq      gap      omega  full diag
   1    -83.5106418 -0.835106E+02  0.701E-02    7.36       0.0  T
   2    -83.5106429 -0.109339E-05  0.420E-02    7.36       1.0  T
   3    -83.5106432 -0.372188E-06  0.233E-03    7.36       5.4  T
   4    -83.5106433 -0.513711E-07  0.131E-03    7.36       9.7  T
   5    -83.5106433 -0.622273E-08  0.364E-04    7.36      34.9  T
   6    -83.5106433 -0.871566E-09  0.146E-04    7.36      86.9  T
     SCC iter.                  ...        0 min,  0.016 sec
     gradient                   ...        0 min,  0.020 sec
 * total energy  :   -82.6762070 Eh     change       -0.1071123E-03 Eh
   gradient norm :     0.0023151 Eh/α   predicted    -0.8857013E-04 ( -17.31%)
   displ. norm   :     0.5540337 α      lambda       -0.1251061E-03
   maximum displ.:     0.3777824 α      in ANC's #2, #1, #4, ...

........................................................................
.............................. CYCLE   60 ..............................
........................................................................

 iter      E             dE          RMSdq      gap      omega  full diag
   1    -83.5127431 -0.835127E+02  0.627E-02    7.37       0.0  T
   2    -83.5127442 -0.116974E-05  0.377E-02    7.37       1.0  T
   3    -83.5127445 -0.316011E-06  0.229E-03    7.37       5.5  T
   4    -83.5127446 -0.604080E-07  0.123E-03    7.37      10.4  T
   5    -83.5127446 -0.563550E-08  0.412E-04    7.37      30.8  T
   6    -83.5127446 -0.927557E-09  0.146E-04    7.37      87.2  T
     SCC iter.                  ...        0 min,  0.016 sec
     gradient                   ...        0 min,  0.013 sec
 * total energy  :   -82.6762883 Eh     change       -0.8126306E-04 Eh
   gradient norm :     0.0028599 Eh/α   predicted    -0.8175937E-04 (   0.61%)
   displ. norm   :     0.7026979 α      lambda       -0.1229986E-03
   maximum displ.:     0.4757473 α      in ANC's #2, #1, #4, ...

........................................................................
.............................. CYCLE   61 ..............................
........................................................................

 iter      E             dE          RMSdq      gap      omega  full diag
   1    -83.5089504 -0.835090E+02  0.803E-02    7.37       0.0  T
   2    -83.5089522 -0.174909E-05  0.481E-02    7.37       1.0  T
   3    -83.5089526 -0.416059E-06  0.278E-03    7.37       4.6  T
   4    -83.5089527 -0.103879E-06  0.146E-03    7.37       8.7  T
   5    -83.5089527 -0.825533E-08  0.510E-04    7.37      24.9  T
   6    -83.5089527 -0.137386E-08  0.180E-04    7.37      70.4  T
     SCC iter.                  ...        0 min,  0.016 sec
     gradient                   ...        0 min,  0.012 sec
 * total energy  :   -82.6763434 Eh     change       -0.5518416E-04 Eh
   gradient norm :     0.0045568 Eh/α   predicted    -0.9187481E-04 (  66.49%)
   displ. norm   :     0.1000512 α      lambda       -0.6564285E-04
   maximum displ.:     0.0705313 α      in ANC's #2, #1, #5, ...

........................................................................
.............................. CYCLE   62 ..............................
........................................................................

 iter      E             dE          RMSdq      gap      omega  full diag
   1    -83.5108713 -0.835109E+02  0.129E-02    7.37       0.0  T
   2    -83.5108715 -0.179826E-06  0.776E-03    7.37       1.6  T
   3    -83.5108715 -0.153236E-07  0.919E-04    7.37      13.8  T
   4    -83.5108715 -0.147967E-07  0.341E-04    7.37      37.2  T
     SCC iter.                  ...        0 min,  0.011 sec
     gradient                   ...        0 min,  0.012 sec
 * total energy  :   -82.6763953 Eh     change       -0.5183546E-04 Eh
   gradient norm :     0.0024636 Eh/α   predicted    -0.3315095E-04 ( -36.05%)
   displ. norm   :     0.4436144 α      lambda       -0.1158219E-03
   maximum displ.:     0.3200375 α      in ANC's #2, #1, #5, ...

........................................................................
.............................. CYCLE   63 ..............................
........................................................................

 iter      E             dE          RMSdq      gap      omega  full diag
   1    -83.5127548 -0.835128E+02  0.480E-02    7.37       0.0  T
   2    -83.5127555 -0.755650E-06  0.288E-02    7.37       1.0  T
   3    -83.5127557 -0.184006E-06  0.184E-03    7.38       6.9  T
   4    -83.5127558 -0.413477E-07  0.962E-04    7.38      13.2  T
   5    -83.5127558 -0.376808E-08  0.339E-04    7.38      37.4  T
[...]
        75                         -0.1552733              -4.2252
        76                         -0.1413507              -3.8463
        77                         -0.1369116              -3.7256
        78                         -0.1098917              -2.9903
       ...                                ...                  ...
       134                          0.1887105               5.1351
      -------------------------------------------------------------
                  HL-Gap            0.2715597 Eh            7.3895 eV
             Fermi-level           -0.3534993 Eh           -9.6192 eV

 SCC (total)                   0 d,  0 h,  0 min,  0.023 sec
 SCC setup                      ...        0 min,  0.000 sec (  0.508%)
 Dispersion                     ...        0 min,  0.000 sec (  2.007%)
 classical contributions        ...        0 min,  0.000 sec (  0.297%)
 integral evaluation            ...        0 min,  0.002 sec ( 10.611%)
 iterations                     ...        0 min,  0.008 sec ( 34.226%)
 molecular gradient             ...        0 min,  0.012 sec ( 51.471%)
 printout                       ...        0 min,  0.000 sec (  0.806%)

         :::::::::::::::::::::::::::::::::::::::::::::::::::::
         ::                     SUMMARY                     ::
         :::::::::::::::::::::::::::::::::::::::::::::::::::::
         :: total energy             -82.678228579998 Eh    ::
         :: gradient norm              0.000720063459 Eh/a0 ::
         :: HOMO-LUMO gap              7.389515062083 eV    ::
         ::.................................................::
         :: SCC energy               -83.512051187771 Eh    ::
         :: -> isotropic ES            0.166608428420 Eh    ::
         :: -> anisotropic ES         -0.008989854934 Eh    ::
         :: -> anisotropic XC          0.015227275874 Eh    ::
         :: -> dispersion             -0.050404258306 Eh    ::
         :: repulsion energy           0.833822607773 Eh    ::
         :: add. restraining           0.000000000000 Eh    ::
         :: total charge               1.000000000000 e     ::
         :::::::::::::::::::::::::::::::::::::::::::::::::::::

           -------------------------------------------------
          |                Property Printout                |
           -------------------------------------------------

    * Orbital Energies and Occupations

         #    Occupation            Energy/Eh            Energy/eV
      -------------------------------------------------------------
         1        2.0000           -0.8296230             -22.5752
       ...           ...                  ...                  ...
        61        2.0000           -0.5619205             -15.2906
        62        2.0000           -0.5558051             -15.1242
        63        2.0000           -0.5539847             -15.0747
        64        2.0000           -0.5519006             -15.0180
        65        2.0000           -0.5426593             -14.7665
        66        2.0000           -0.5422937             -14.7566
        67        2.0000           -0.5407733             -14.7152
        68        2.0000           -0.5149275             -14.0119
        69        2.0000           -0.5109884             -13.9047
        70        2.0000           -0.5100054             -13.8780
        71        2.0000           -0.4911287             -13.3643
        72        2.0000           -0.4907495             -13.3540
        73        2.0000           -0.4892792             -13.3140 (HOMO)
        74                         -0.2177195              -5.9244 (LUMO)
        75                         -0.1552733              -4.2252
        76                         -0.1413507              -3.8463
        77                         -0.1369116              -3.7256
        78                         -0.1098917              -2.9903
        79                         -0.0995885              -2.7099
        80                         -0.0967476              -2.6326
        81                         -0.0677694              -1.8441
        82                         -0.0658570              -1.7921
        83                         -0.0636935              -1.7332
        84                         -0.0452322              -1.2308
       ...                                ...                  ...
       134                          0.1887105               5.1351
      -------------------------------------------------------------
                  HL-Gap            0.2715597 Eh            7.3895 eV
             Fermi-level           -0.3534993 Eh           -9.6192 eV

     #   Z          covCN         q      C6AA      α(0)
     1   6 C        3.652     0.034    20.299     6.470
     2   8 O        1.700    -0.322    19.387     5.945
     3   6 C        3.701     0.071    19.545     6.322
     4   6 C        3.696     0.065    19.652     6.341
     5   8 O        1.700    -0.319    19.323     5.935
     6   6 C        3.695     0.063    19.694     6.349
     7   6 C        3.748    -0.045    21.438     6.604
     8   7 N        3.616     0.111    19.328     6.530
     9   6 C        3.763    -0.044    21.413     6.596
    10   6 C        3.694     0.064    19.678     6.346
    11   8 O        1.699    -0.323    19.392     5.945
    12   6 C        3.695     0.065    19.650     6.341
    13   6 C        3.700     0.070    19.561     6.325
    14   8 O        1.700    -0.323    19.397     5.946
    15   6 C        3.652     0.034    20.309     6.472
    16   6 C        3.748    -0.057    21.661     6.638
    17   6 C        3.695     0.066    19.633     6.339
    18   8 O        1.700    -0.319    19.324     5.935
    19   6 C        3.696     0.065    19.654     6.342
    20   6 C        3.701     0.071    19.546     6.322
    21   8 O        1.700    -0.322    19.378     5.943
    22   6 C        3.652     0.034    20.300     6.470
    23   6 C        3.762    -0.035    21.247     6.571
    24   6 C        3.751    -0.135    23.156     6.863
    25   1 H        0.925     0.067     2.124     2.279
    26   1 H        0.924     0.035     2.515     2.480
    27   1 H        0.924     0.041     2.433     2.439
    28   1 H        0.923     0.037     2.487     2.466
    29   1 H        0.923     0.039     2.463     2.454
    30   1 H        0.924     0.068     2.113     2.273
    31   1 H        0.924     0.050     2.322     2.383
    32   1 H        0.923     0.037     2.485     2.465
    33   1 H        0.924     0.089     1.891     2.150
    34   1 H        0.925     0.084     1.937     2.177
    35   1 H        0.925     0.125     1.572     1.961
    36   1 H        0.924     0.098     1.808     2.103
    37   1 H        0.925     0.093     1.847     2.126
    38   1 H        0.924     0.088     1.898     2.154
    39   1 H        0.923     0.044     2.391     2.418
    40   1 H        0.924     0.050     2.319     2.382
    41   1 H        0.924     0.069     2.094     2.263
    42   1 H        0.923     0.040     2.444     2.445
    43   1 H        0.923     0.039     2.457     2.451
    44   1 H        0.924     0.041     2.431     2.438
    45   1 H        0.924     0.036     2.498     2.471
    46   1 H        0.925     0.067     2.121     2.277
    47   1 H        0.925     0.098     1.803     2.100
    48   1 H        0.924     0.123     1.593     1.974
    49   1 H        0.924     0.087     1.912     2.162
    50   1 H        0.923     0.041     2.438     2.442
    51   1 H        0.924     0.050     2.321     2.383
    52   1 H        0.924     0.067     2.123     2.279
    53   1 H        0.923     0.039     2.469     2.457
    54   1 H        0.923     0.037     2.485     2.465
    55   1 H        0.924     0.036     2.508     2.476
    56   1 H        0.925     0.067     2.121     2.278
    57   1 H        0.924     0.040     2.443     2.444
    58   1 H        0.925     0.104     1.747     2.067
    59   1 H        0.924     0.071     2.080     2.255
    60   1 H        0.925     0.073     2.053     2.241
    61   1 H        0.925     0.074     2.043     2.235
    62   1 H        0.925     0.085     1.926     2.170

 Mol. C6AA /au·bohr⁶  :      26597.270514
 Mol. C8AA /au·bohr⁸  :     554847.358066
 Mol. α(0) /au        :        239.375739


Wiberg/Mayer (AO) data.
largest (>0.10) Wiberg bond orders for each atom

 ---------------------------------------------------------------------------
     #   Z sym  total        # sym  WBO       # sym  WBO       # sym  WBO
 ---------------------------------------------------------------------------
     1   6 C    3.945 --     2 O    0.986    25 H    0.979    26 H    0.978
                            27 H    0.977
     2   8 O    2.071 --     3 C    0.986     1 C    0.986
     3   6 C    3.957 --     4 C    0.994     2 O    0.986    28 H    0.966
                            29 H    0.965
     4   6 C    3.948 --     3 C    0.994     5 O    0.976    30 H    0.968
                            31 H    0.967
     5   8 O    2.073 --     6 C    0.985     4 C    0.976
     6   6 C    3.953 --     7 C    1.005     5 O    0.985    32 H    0.961
                            33 H    0.950
     7   6 C    3.935 --     6 C    1.005    34 H    0.959    35 H    0.950
                             8 N    0.938
     8   7 N    3.800 --     9 C    0.940     7 C    0.938    16 C    0.922
                            23 C    0.922
     9   6 C    3.943 --    10 C    1.006    36 H    0.964    37 H    0.962
                             8 N    0.940
    10   6 C    3.951 --     9 C    1.006    11 O    0.983    39 H    0.959
                            38 H    0.951
    11   8 O    2.077 --    10 C    0.983    12 C    0.972
    12   6 C    3.946 --    13 C    0.994    11 O    0.972    41 H    0.967
                            40 H    0.966
    13   6 C    3.957 --    12 C    0.994    14 O    0.986    43 H    0.965
                            42 H    0.965
    14   8 O    2.069 --    13 C    0.986    15 C    0.986
    15   6 C    3.944 --    14 O    0.986    46 H    0.979    45 H    0.979
                            44 H    0.977
    16   6 C    3.928 --    17 C    1.010    47 H    0.964    48 H    0.947
                             8 N    0.922
    17   6 C    3.952 --    16 C    1.010    18 O    0.983    50 H    0.961
                            49 H    0.949
    18   8 O    2.079 --    17 C    0.983    19 C    0.975
    19   6 C    3.948 --    20 C    0.994    18 O    0.975    52 H    0.968
                            51 H    0.966
    20   6 C    3.958 --    19 C    0.994    21 O    0.987    54 H    0.965
                            53 H    0.965
    21   8 O    2.069 --    20 C    0.987    22 C    0.986
    22   6 C    3.945 --    21 O    0.986    56 H    0.979    55 H    0.978
                            57 H    0.977
    23   6 C    3.925 --    24 C    1.022    59 H    0.969    58 H    0.958
                             8 N    0.922
    24   6 C    3.978 --    23 C    1.022    60 H    0.981    61 H    0.975
                            62 H    0.969
    25   1 H    0.995 --     1 C    0.979
    26   1 H    0.999 --     1 C    0.978
    27   1 H    0.998 --     1 C    0.977
    28   1 H    0.999 --     3 C    0.966
    29   1 H    0.998 --     3 C    0.965
    30   1 H    0.995 --     4 C    0.968
    31   1 H    0.998 --     4 C    0.967
    32   1 H    0.999 --     6 C    0.961
    33   1 H    0.992 --     6 C    0.950
    34   1 H    0.993 --     7 C    0.959
    35   1 H    0.984 --     7 C    0.950
    36   1 H    0.990 --     9 C    0.964
    37   1 H    0.991 --     9 C    0.962
    38   1 H    0.992 --    10 C    0.951
    39   1 H    0.998 --    10 C    0.959
    40   1 H    0.997 --    12 C    0.966
    41   1 H    0.995 --    12 C    0.967
    42   1 H    0.998 --    13 C    0.965
    43   1 H    0.998 --    13 C    0.965
    44   1 H    0.998 --    15 C    0.977
    45   1 H    0.999 --    15 C    0.979
    46   1 H    0.995 --    15 C    0.979
    47   1 H    0.990 --    16 C    0.964
    48   1 H    0.985 --    16 C    0.947
    49   1 H    0.992 --    17 C    0.949
    50   1 H    0.998 --    17 C    0.961
    51   1 H    0.997 --    19 C    0.966
    52   1 H    0.995 --    19 C    0.968
    53   1 H    0.998 --    20 C    0.965
    54   1 H    0.999 --    20 C    0.965
    55   1 H    0.999 --    22 C    0.978
    56   1 H    0.995 --    22 C    0.979
    57   1 H    0.998 --    22 C    0.977
    58   1 H    0.989 --    23 C    0.958
    59   1 H    0.995 --    23 C    0.969
    60   1 H    0.995 --    24 C    0.981
    61   1 H    0.994 --    24 C    0.975
    62   1 H    0.993 --    24 C    0.969
 ---------------------------------------------------------------------------

Topologies differ in total number of bonds
Writing topology from bond orders to xtbtopo.mol

molecular dipole:
                 x           y           z       tot (Debye)
 q only:       -3.119       1.055      -2.815
   full:       -3.082       1.114      -2.609      10.647
molecular quadrupole (traceless):
                xx          xy          yy          xz          yz          zz
 q only:        9.725      -7.700      -4.012       0.970     -16.568      -5.714
  q+dip:       11.182      -6.805      -2.509      -0.388     -19.191      -8.674
   full:       11.373      -7.385      -2.321      -1.737     -19.374      -9.052

           -------------------------------------------------
          |                Geometry Summary                 |
           -------------------------------------------------

      molecular mass/u    :      352.4873915
   center of mass at/Å    :       -1.3714234       0.8395162      -1.0053170
  moments of inertia/u·Å² :        0.3318770E+04   0.3420394E+04   0.5803377E+04
rotational constants/cm⁻¹ :        0.5079482E-02   0.4928564E-02   0.2904797E-02

 * 61 selected distances

     #   Z          #   Z                                           value/Å
     1   6 C        2   8 O                                       1.4093293
     2   8 O        3   6 C                                       1.4115749
     3   6 C        4   6 C                                       1.5294186
     4   6 C        5   8 O                                       1.4142700
     5   8 O        6   6 C                                       1.4148407
     6   6 C        7   6 C                                       1.5273119
     7   6 C        8   7 N                                       1.4903527
     8   7 N        9   6 C                                       1.4962554
     9   6 C       10   6 C                                       1.5274384
    10   6 C       11   8 O                                       1.4162165
    11   8 O       12   6 C                                       1.4151289
    12   6 C       13   6 C                                       1.5294572 (max)
    13   6 C       14   8 O                                       1.4121184
    14   8 O       15   6 C                                       1.4099026
     8   7 N       16   6 C                                       1.5127889
    16   6 C       17   6 C                                       1.5266036
    17   6 C       18   8 O                                       1.4142148
    18   8 O       19   6 C                                       1.4137595
    19   6 C       20   6 C                                       1.5291713
    20   6 C       21   8 O                                       1.4109292
    21   8 O       22   6 C                                       1.4092304
     8   7 N       23   6 C                                       1.5021494
    23   6 C       24   6 C                                       1.5193174
     1   6 C       25   1 H                                       1.0875272
     1   6 C       26   1 H                                       1.0959716
     1   6 C       27   1 H                                       1.0949212
     3   6 C       28   1 H                                       1.1006561
     3   6 C       29   1 H                                       1.0990017
     4   6 C       30   1 H                                       1.0914406
     4   6 C       31   1 H                                       1.0967303
     6   6 C       32   1 H                                       1.1003751
     6   6 C       33   1 H                                       1.0966533
     7   6 C       34   1 H                                       1.0891493
     7   6 C       35   1 H                                       1.0901616
     9   6 C       36   1 H                                       1.0922356
     9   6 C       37   1 H                                       1.0896725
    10   6 C       38   1 H                                       1.0965625
    10   6 C       39   1 H                                       1.0981942
    12   6 C       40   1 H                                       1.0972473
    12   6 C       41   1 H                                       1.0911817
    13   6 C       42   1 H                                       1.0988782
    13   6 C       43   1 H                                       1.1008689
    15   6 C       44   1 H                                       1.0947828
    15   6 C       45   1 H                                       1.0958041
    15   6 C       46   1 H                                       1.0877229
    16   6 C       47   1 H                                       1.0897372
    16   6 C       48   1 H                                       1.0907555
    17   6 C       49   1 H                                       1.0969952
    17   6 C       50   1 H                                       1.0988520
    19   6 C       51   1 H                                       1.0970224
    19   6 C       52   1 H                                       1.0914776
    20   6 C       53   1 H                                       1.0992442
    20   6 C       54   1 H                                       1.1009489
    22   6 C       55   1 H                                       1.0960494
    22   6 C       56   1 H                                       1.0876564
    22   6 C       57   1 H                                       1.0952863
    23   6 C       58   1 H                                       1.0896276
    23   6 C       59   1 H                                       1.0920317
    24   6 C       60   1 H                                       1.0852465
    24   6 C       61   1 H                                       1.0866645
    24   6 C       62   1 H                                       1.0850357 (min)

 * 4 distinct bonds (by element types)

   Z      Z             #   av. dist./Å        max./Å        min./Å
   1 H    6 C          38     1.0939045     1.1009489     1.0850357
   6 C    6 C           7     1.5269598     1.5294572     1.5193174
   6 C    7 N           4     1.5003866     1.5127889     1.4903527
   6 C    8 O          12     1.4126263     1.4162165     1.4092304


optimized geometry written to: xtbopt.xyz


           -------------------------------------------------
          | TOTAL ENERGY              -82.678228579998 Eh   |
          | GRADIENT NORM               0.000720063459 Eh/α |
          | HOMO-LUMO GAP               7.389515062083 eV   |
           -------------------------------------------------

------------------------------------------------------------------------
 * finished run on 2024/12/20 at 06:41:47.919     
------------------------------------------------------------------------
 total:
 * wall-time:     0 d,  0 h,  0 min,  4.232 sec
 *  cpu-time:     0 d,  0 h,  0 min, 33.299 sec
 * ratio c/w:     7.868 speedup
 SCF:
 * wall-time:     0 d,  0 h,  0 min,  0.051 sec
 *  cpu-time:     0 d,  0 h,  0 min,  0.395 sec
 * ratio c/w:     7.705 speedup
 ANC optimizer:
 * wall-time:     0 d,  0 h,  0 min,  4.161 sec
 *  cpu-time:     0 d,  0 h,  0 min, 32.759 sec
 * ratio c/w:     7.872 speedup

