49
 energy: -72.875806714333 gnorm: 0.104931701583 xtb: 6.7.1 (edcfbbe)
O            4.83420000000000       -1.56053000000000       -0.15520000000000
C            5.02881000000000       -0.38102000000000        0.13562000000000
C            5.17373000000000        0.62070000000000       -0.95099000000000
C            5.76836000000000        0.21393000000000       -2.15141000000000
C            5.91113000000000        1.11996000000000       -3.20281000000000
C            5.44782000000000        2.42715000000000       -3.06450000000000
C            4.83968000000000        2.83127000000000       -1.87704000000000
C            4.70149000000000        1.93097000000000       -0.81846000000000
C            5.09338000000000        0.07797000000000        1.58345000000000
N            3.76020000000000        0.41651000000000        2.11053000000000
C            3.40923000000000        1.60894000000000        2.74998000000000
C            4.17669000000000        2.70157000000000        3.15153000000000
C            3.47916000000000        3.76183000000000        3.74539000000000
C            2.08322000000000        3.72384000000000        3.92075000000000
C            1.31859000000000        2.62200000000000        3.51319000000000
C            2.02225000000000        1.57055000000000        2.93014000000000
N            1.61986000000000        0.35669000000000        2.40055000000000
C            2.69160000000000       -0.42122000000000        2.12183000000000
C            2.68964000000000       -1.89766000000000        1.89918000000000
N            0.23026000000000       -0.08424000000000        2.33925000000000
C           -0.19842000000000       -0.54789000000000        1.00907000000000
C           -0.78213000000000       -1.93785000000000        1.04925000000000
C           -1.80895000000000       -2.26847000000000        1.94772000000000
C           -2.34995000000000       -3.55530000000000        1.96657000000000
C           -1.88009000000000       -4.52377000000000        1.08312000000000
C           -0.87548000000000       -4.20523000000000        0.17315000000000
C           -0.33444000000000       -2.91860000000000        0.15019000000000
H            6.12401000000000       -0.80756000000000       -2.27780000000000
H            6.37797000000000        0.80519000000000       -4.13404000000000
H            5.55274000000000        3.12938000000000       -3.88947000000000
H            4.46454000000000        3.84867000000000       -1.78562000000000
H            4.19540000000000        2.27282000000000        0.07611000000000
H            5.51605000000000       -0.72641000000000        2.19513000000000
H            5.77384000000000        0.92989000000000        1.66761000000000
H            5.25157000000000        2.73465000000000        3.02352000000000
H            4.03082000000000        4.64026000000000        4.08404000000000
H            1.58602000000000        4.57449000000000        4.38939000000000
H            0.24572000000000        2.59305000000000        3.65193000000000
H            1.90723000000000       -2.32804000000000        2.52538000000000
H            2.50068000000000       -2.07134000000000        0.84125000000000
H            3.65994000000000       -2.28772000000000        2.20722000000000
H           -0.41091000000000        0.64487000000000        2.65342000000000
H           -0.96105000000000        0.13758000000000        0.61881000000000
H            0.63191000000000       -0.50064000000000        0.29455000000000
H           -2.20334000000000       -1.53042000000000        2.64218000000000
H           -3.14379000000000       -3.80323000000000        2.66755000000000
H           -2.30446000000000       -5.52504000000000        1.09713000000000
H           -0.51921000000000       -4.95982000000000       -0.52466000000000
H            0.43847000000000       -2.69490000000000       -0.58255000000000
49
 energy: -72.889521515423 gnorm: 0.048200122652 xtb: 6.7.1 (edcfbbe)
O            4.83679466119996       -1.55190126690396       -0.13531073591051
C            5.00543446083342       -0.37969695192540        0.13166216508891
C            5.17421132762310        0.62627945508232       -0.94131866656510
C            5.75965105249102        0.21985431522260       -2.14456238696454
C            5.90413829313822        1.11814375585723       -3.18976360182282
C            5.44459522174468        2.42029518086008       -3.05480648286353
C            4.83871535502727        2.82383221124846       -1.87291867731887
C            4.71198622230026        1.93784087572176       -0.81400455837556
C            5.08426336066587        0.07162781924346        1.59746461710789
N            3.76575607605939        0.41039052996265        2.12514557197363
C            3.40586346294287        1.61598714943376        2.71832989658531
C            4.16137738107867        2.70842641427701        3.12558593739450
C            3.47179386110318        3.74917724830829        3.72988067079015
C            2.08605738550207        3.71181195232832        3.90496307447302
C            1.32525316490187        2.62897504311619        3.49027355157857
C            2.01318335668204        1.57533141552167        2.90219822464817
N            1.60046132720007        0.34592076168443        2.41369955337601
C            2.67817427760028       -0.39727028151050        2.09335382033929
C            2.67857383433471       -1.86185801694433        1.87330375043228
N            0.25827402114147       -0.10839566408343        2.35201452016358
C           -0.19350333372334       -0.55232025077862        1.01889455950312
C           -0.77384776037353       -1.94738305158794        1.05574846399163
C           -1.79457088725498       -2.27181763148104        1.94679712652950
C           -2.33876852955020       -3.54756669086617        1.96228846371235
C           -1.87713459005225       -4.51324071006962        1.08190004310901
C           -0.87787090536227       -4.19541611720303        0.17666655863876
C           -0.33118215354187       -2.92083552284836        0.16328082918515
H            6.11367775093509       -0.79621909605456       -2.25740324512520
H            6.37069707403239        0.80329657074676       -4.11343141147334
H            5.55271764186652        3.11939996279991       -3.87361545872843
H            4.46692698466330        3.83524133064322       -1.77944900707321
H            4.21050972265172        2.27318251526812        0.08317618919327
H            5.51516796599705       -0.74389301792122        2.19035161149029
H            5.73993102985661        0.94089334665073        1.68090494397410
H            5.23454845234679        2.73917381025215        3.01825771693898
H            4.02059048537866        4.61428531211702        4.07894081158784
H            1.59564497108825        4.55031946348062        4.38194345986482
H            0.25891125738767        2.60029799111150        3.65131106030306
H            1.89327640033910       -2.30766176661040        2.48261483875180
H            2.50657472515965       -2.10199025004103        0.82677079104426
H            3.64076429997346       -2.27230500696715        2.17305243619705
H           -0.35687168298732        0.62365746341334        2.69531856515285
H           -0.95875545972406        0.13784260391016        0.63887522337663
H            0.63757808254058       -0.51289273076357        0.30740444815624
H           -2.17913718907230       -1.53046435950501        2.63468287602414
H           -3.12975903661546       -3.78919206597817        2.65938534863859
H           -2.29954691979274       -5.50889979505827        1.09677827912232
H           -0.52225743479915       -4.94311309546361       -0.51918474552602
H            0.43512093506243       -2.68932115769627       -0.56632102068989
49
 energy: -72.893954926938 gnorm: 0.012519737983 xtb: 6.7.1 (edcfbbe)
O            4.83511103936566       -1.55546223272678       -0.11651240990610
C            5.00956978856439       -0.38861804461833        0.12754058663080
C            5.16716315913928        0.62629465358693       -0.92966099370722
C            5.74657401024632        0.22078680074588       -2.13569207450380
C            5.89757407244982        1.11612048266491       -3.17520546867475
C            5.44228339703445        2.41755892672586       -3.04070826212474
C            4.84281107565058        2.82240988644863       -1.85810918873835
C            4.71621766834587        1.94168366194102       -0.80137834265740
C            5.07394658842349        0.07067588668368        1.60797029427003
N            3.76678705350645        0.40239617569073        2.13121159660506
C            3.40049460921495        1.61572435754925        2.68623951300137
C            4.14781503422689        2.70836598118115        3.10376702767398
C            3.46440902551560        3.74326721170826        3.70708017160862
C            2.08229399073109        3.70575334306860        3.88345482851526
C            1.32731404897478        2.62922211496164        3.46851293494097
C            2.00499563820495        1.57538382343463        2.87028409273048
N            1.58713915824673        0.33135228308583        2.42062322593171
C            2.66788180866811       -0.38113287326450        2.06237440894889
C            2.66527427695998       -1.83438401396019        1.83730280141941
N            0.29101079781366       -0.13090509005516        2.36419323554054
C           -0.18405948599473       -0.55332892685903        1.02966432633453
C           -0.76406590635680       -1.94981111894374        1.06145678304060
C           -1.77937378615186       -2.26935242999311        1.95271046134058
C           -2.32741338346391       -3.53897844762265        1.96528397446657
C           -1.87215837324547       -4.50361722699417        1.08350510681879
C           -0.87322608781283       -4.18731446916728        0.18079715667029
C           -0.32344112684637       -2.91814839158364        0.17087160168552
H            6.09490900583481       -0.79488825054484       -2.23540097448679
H            6.36183849744320        0.79911575327533       -4.09514792637065
H            5.54766358087287        3.11393206763786       -3.85736484895176
H            4.47118316527144        3.83016539881679       -1.76279809339689
H            4.23160094644814        2.27368922703306        0.10569802423750
H            5.50662556666865       -0.75543773990960        2.18342801162581
H            5.71343784794125        0.94889858754790        1.70006046572723
H            5.21934770831256        2.74158700687847        2.99897921040599
H            4.01358528139100        4.59757288294593        4.06706878866862
H            1.59560433209520        4.53389608167839        4.37126760348411
H            0.26323615321586        2.60332307477401        3.63807319515757
H            1.86690127417956       -2.28458902702852        2.42773066210537
H            2.51270868726093       -2.11707081368135        0.79606980848614
H            3.62204813116601       -2.25793607044029        2.13685459907839
H           -0.31395550941959        0.58440723173342        2.75782230398820
H           -0.95410774350703        0.14202791929641        0.67229525522861
H            0.64502493439620       -0.51510499817254        0.31804156720913
H           -2.15078513153892       -1.52355991786806        2.63855357884420
H           -3.11820766337078       -3.77503002148096        2.65949831333696
H           -2.29939851408820       -5.49357394351227        1.09385177934727
H           -0.52209937449250       -4.92875115938353       -0.51898431433235
H            0.44390073250871       -2.68078561328385       -0.55204439725412
49
 energy: -72.895040166339 gnorm: 0.010623827596 xtb: 6.7.1 (edcfbbe)
O            4.84475455804028       -1.56405617156524       -0.10789586944912
C            5.00521564716305       -0.39318743570729        0.13073391853920
C            5.16611339574969        0.62498018691572       -0.91790975752263
C            5.74103223368390        0.21832959956987       -2.12618594004389
C            5.89141965174798        1.11357963243836       -3.16580541855343
C            5.43921024309368        2.41643876230220       -3.02809822072429
C            4.84680178091041        2.82295847828210       -1.84161254693530
C            4.72349068054868        1.94285014165147       -0.78392674543166
C            5.07433098163727        0.06934200626853        1.61428534732228
N            3.76753936500853        0.39833975411400        2.12798534426220
C            3.39875405506605        1.61472456188806        2.66888670103583
C            4.14330248664992        2.71076387112557        3.08441690524940
C            3.46025112258664        3.74500842249547        3.68942025933929
C            2.07682473734211        3.70547948401925        3.86786437198738
C            1.32474348598644        2.62680206870988        3.45269505000906
C            2.00433662869455        1.57394377302640        2.85398210524254
N            1.58958175866925        0.32459711333605        2.41887990735276
C            2.66860828333949       -0.38025931883173        2.04676162032315
C            2.65693566268747       -1.83015188449513        1.80305700416985
N            0.30337107646354       -0.14742429397360        2.37615648090079
C           -0.18367985239088       -0.55011178271388        1.04026284473106
C           -0.75830063112119       -1.94682129817976        1.06687186618487
C           -1.77004629586231       -2.26628894298793        1.96258532190126
C           -2.32104655113466       -3.53465289932554        1.97189093650446
C           -1.87038899004103       -4.49668303455020        1.08372431982249
C           -0.87002758238179       -4.18126430351399        0.18114503660794
C           -0.31632857989936       -2.91311334261751        0.17422784741257
H            6.07847941162775       -0.80154666632160       -2.22424097266890
H            6.35344209073207        0.79553405618497       -4.08673293384516
H            5.54506510574102        3.11420180190075       -3.84359476026455
H            4.48039827714192        3.83269034658620       -1.74246992866334
H            4.24755623543631        2.27458440750768        0.12807595209199
H            5.50682568134021       -0.75935007450240        2.18546525172561
H            5.71113477332996        0.94820546440007        1.70895031352827
H            5.21479229571901        2.74551458299873        2.97691509158075
H            4.00983353114297        4.59843423027913        4.05055245389328
H            1.58873038115267        4.53174809703997        4.35738282592514
H            0.25986264182867        2.60080447820223        3.61933299712191
H            1.84343128103240       -2.27768431991366        2.37623080197325
H            2.51825876373151       -2.10309745157410        0.75889122167218
H            3.60787757225876       -2.26229528711346        2.11011882269975
H           -0.31014974221759        0.53931997262704        2.81141314822908
H           -0.95765788333905        0.14898409192800        0.70164190206351
H            0.64188108349032       -0.50277722363424        0.32570039913793
H           -2.13346295231678       -1.51920348888235        2.65154048685805
H           -3.11065192833332       -3.77034753242138        2.66772849501268
H           -2.30097214968695       -5.48522143344026        1.09099904253978
H           -0.52016828541931       -4.92157861376005       -0.52079665191048
H            0.45268446337056       -2.67321258577203       -0.54637264893857
49
 energy: -72.896166766237 gnorm: 0.012731457348 xtb: 6.7.1 (edcfbbe)
O            4.86932589641057       -1.57632823498901       -0.09521278706054
C            5.02064132508261       -0.40225972234444        0.13885178200851
C            5.16476713453380        0.61925714915502       -0.90212007738411
C            5.72510753224271        0.21181128459575       -2.11777531483061
C            5.87837834803819        1.11147380611379       -3.15345659385805
C            5.43689893949209        2.41773491060296       -3.00400416948816
C            4.85865879674873        2.82486832157713       -1.80945003507882
C            4.73732516862742        1.94130031450718       -0.75366695297645
C            5.08011846450472        0.06461708188105        1.62423147701084
N            3.76933958941796        0.39472492883730        2.11956662083352
C            3.39801296351595        1.61347221068347        2.64822505220616
C            4.13886539808515        2.71626966492393        3.05621180290495
C            3.45321649228848        3.75126990744792        3.65838320288880
C            2.06784562506012        3.70802371414874        3.83958888583196
C            1.31997337320291        2.62341437054993        3.42943749511544
C            2.00569104421488        1.57146925128406        2.83544243325765
N            1.59839887761037        0.31652206444604        2.41670393975823
C            2.67421681583389       -0.38226367020503        2.03104545079867
C            2.64641751330062       -1.82767467584574        1.75005682583793
N            0.32053031156746       -0.17686493487962        2.39514823953899
C           -0.19050066236467       -0.54322074121981        1.05836077653607
C           -0.75747461433393       -1.93976958329334        1.07270342674183
C           -1.76122370560122       -2.26320240571173        1.97755557413825
C           -2.31247392812412       -3.53153755775271        1.98397947886610
C           -1.86714568381175       -4.48763815037222        1.08540620584187
C           -0.86687597459246       -4.17135000735637        0.18185275693424
C           -0.31218303532421       -2.90262432716586        0.17677316617915
H            6.05039949844788       -0.81285181442952       -2.21629154362130
H            6.33373835258242        0.79373712439049       -4.07852692326764
H            5.53859231164125        3.11847838452082       -3.81822489997973
H            4.50154747912035        3.83821214954939       -1.70238227017214
H            4.27707521979427        2.27371508659144        0.16642419023405
H            5.50556289446361       -0.76543351985097        2.19731361768038
H            5.71893308753888        0.93997269569981        1.72365718781401
H            5.20990720415951        2.75622780467555        2.93994733350321
H            4.00170972901056        4.60807407889439        4.01407634369797
H            1.57652135129115        4.53452918073844        4.32640116834214
H            0.25331600134319        2.59660107610749        3.58746124505669
H            1.80631766366888       -2.27252742207758        2.28890110545805
H            2.53344259083095       -2.06745574522512        0.69550585483488
H            3.58391520614844       -2.27948773833310        2.07237235711514
H           -0.30646070523542        0.45870409422389        2.89428136829269
H           -0.96959267698847        0.16367119701744        0.75039803047652
H            0.62646892925530       -0.47759385698465        0.33577861085026
H           -2.11338236470026       -1.51661525739812        2.67362352909641
H           -3.09772585050775       -3.76998900557792        2.68459473477202
H           -2.30259327814409       -5.47459027201980        1.08647176439626
H           -0.51824238645095       -4.91015855663589       -0.52330547606630
H            0.45868773710548       -2.65888465349417       -0.54118599106568
49
 energy: -72.896929784127 gnorm: 0.012388497871 xtb: 6.7.1 (edcfbbe)
O            4.90373927293678       -1.58724512931616       -0.08765626800700
C            5.03671722813985       -0.41012462814140        0.14763032998548
C            5.16933182990349        0.61465141174300       -0.88894820993165
C            5.71392246687357        0.20852423415992       -2.11295459047572
C            5.86386165944829        1.11243204846615       -3.14553401650362
C            5.43461372492229        2.42162384660885       -2.98261903066907
C            4.87194840120450        2.82749958787943       -1.77975443807304
C            4.75385857877289        1.93922949831217       -0.72723540973383
C            5.08803274628490        0.05642938639007        1.63321848620277
N            3.77213535036478        0.39119675521265        2.11261254444278
C            3.39896903425881        1.61118146767805        2.63696902406370
C            4.13621575339743        2.72177997308024        3.03335225584171
C            3.44631040849921        3.75900384074938        3.62746489850960
C            2.06043335532274        3.71220136321551        3.81091417602027
C            1.31622164856202        2.62061122387114        3.41131324003273
C            2.00786914862097        1.56670096291229        2.82743266314501
N            1.60675396405857        0.30803872535427        2.41939238657789
C            2.68133303740547       -0.38826428251003        2.02735901320439
C            2.64192790590648       -1.82773405004183        1.71091125445762
N            0.33412697134518       -0.20321940358424        2.41131197032032
C           -0.20095781549613       -0.53631409437999        1.07552386216778
C           -0.76528903111552       -1.93224133226635        1.07681810559258
C           -1.76071932648489       -2.26293199245557        1.98944407797398
C           -2.30794093645041       -3.53286632669970        1.99504054256966
C           -1.86551062514181       -4.48257284524336        1.08791417767289
C           -0.86931486618193       -4.16170242517284        0.18139448758196
C           -0.31830237445453       -2.89094049790720        0.17686343228982
H            6.02466867219329       -0.82049598202882       -2.21847910222330
H            6.30827938069831        0.79615814127706       -4.07685800125990
H            5.53544069851457        3.12731042083053       -3.79316132885834
H            4.52621600555005        3.84436902622502       -1.66306716320369
H            4.30607363472380        2.27167717236467        0.19870842300062
H            5.50383950566422       -0.77417953835826        2.21228281020205
H            5.73121922735942        0.92789888454794        1.73715546549687
H            5.20656761435925        2.76776388762687        2.90930157514492
H            3.99193991687553        4.62233035270693        3.97294410279808
H            1.56607380885666        4.54215944932920        4.28943319785282
H            0.24840707872679        2.59206803295700        3.56206603774514
H            1.77998821445129       -2.27341131522104        2.21481036872415
H            2.55434273240074       -2.02936809506225        0.64414507787651
H            3.56477597755336       -2.30113416015155        2.04559989421744
H           -0.29437569524728        0.39416934610421        2.94910062110203
H           -0.98266403433972        0.17922801324244        0.79418933633277
H            0.60575497717019       -0.45576534474720        0.34284906909521
H           -2.10680533990608       -1.51923288546574        2.69181312568338
H           -3.08606568753503       -3.77723533812862        2.70205542425406
H           -2.30042709108595       -5.47000858719685        1.08576920702328
H           -0.52034658343517       -4.89867864629066       -0.52603687498301
H            0.45079947555072       -2.64274015247414       -0.54167023127972
49
 energy: -72.897751210679 gnorm: 0.009532747875 xtb: 6.7.1 (edcfbbe)
O            4.95551636407949       -1.59923048761000       -0.08112035204950
C            5.06608193232274       -0.42039903982548        0.15884640166004
C            5.17946829902661        0.60891240637909       -0.87592839486176
C            5.70040910404876        0.20653854170652       -2.11215013427582
C            5.84457210601520        1.11692354229589       -3.13960548879663
C            5.43415959556646        2.42990687134363       -2.95805659231793
C            4.89168903722380        2.83170500176144       -1.74474168096520
C            4.77756838050653        1.93573154199056       -0.69836176353421
C            5.09936796801258        0.04347187256379        1.64359643925166
N            3.77705885384582        0.38733687256371        2.10421939200139
C            3.40122516793279        1.60760514822528        2.62892621939208
C            4.13335650019394        2.72830901047681        3.00804220896074
C            3.43729882341042        3.76952302320953        3.58790810135113
C            2.05222414953987        3.71822843344035        3.77375513928844
C            1.31286419955932        2.61671031295157        3.39258068525258
C            2.01080850798633        1.55792240242439        2.82481808999275
N            1.61526127775716        0.29583724851187        2.42559647015786
C            2.69091287451751       -0.39783910429675        2.02892570453208
C            2.64409350989731       -1.82796233744884        1.67491922144370
N            0.34785248864288       -0.23214366377185        2.42791507317122
C           -0.21853871139809       -0.52669646041911        1.09594946573082
C           -0.78291047605865       -1.92237960247916        1.08206404145255
C           -1.76850059524432       -2.26499700531667        2.00160477045207
C           -2.30673268662531       -3.53847456671803        2.00698240293267
C           -1.86474209812035       -4.48038087227204        1.09188389851647
C           -0.87783792962834       -4.14915584327618        0.17944775742152
C           -0.33560603295091       -2.87455209937074        0.17564808598109
H            5.99893755371394       -0.82474867776472       -2.22921626913966
H            6.27132211290945        0.80360802198506       -4.08037192998019
H            5.53266180601578        3.14201319609793       -3.76337365621437
H            4.55927235872226        3.85154128255216       -1.61521867866496
H            4.34487420221768        2.26753544123229        0.23440301113302
H            5.49870113832544       -0.78865589803447        2.23261762027470
H            5.74930402074535        0.90949752805302        1.75602475392668
H            5.20270622265072        2.78143035780216        2.87774118686330
H            3.97767942770510        4.64320770317829        3.91680898872760
H            1.55414495205443        4.55502080171233        4.23695746901824
H            0.24473690658070        2.58427620607018        3.53914434325935
H            1.76356343267091       -2.27759510633303        2.13854529138769
H            2.58469631295325       -1.98645837986839        0.59601874280157
H            3.54948542785021       -2.32683740668589        2.01838974089351
H           -0.27375244951301        0.32796292157712        3.00179295072197
H           -1.00278153131574        0.19888797800084        0.84665338600662
H            0.57315202729034       -0.43144424901988        0.34826909905011
H           -2.11329653347019       -1.52702009520296        2.71022651726481
H           -3.07518882145600       -3.79254734276510        2.72126576194377
H           -2.29295683994655       -5.47073137279983        1.08886827317710
H           -0.52776440291114       -4.88225595691431       -0.53148310510347
H            0.42757206615008       -2.61930809991054       -0.54659865948886
49
 energy: -72.898444885954 gnorm: 0.007505835267 xtb: 6.7.1 (edcfbbe)
O            5.02227256777643       -1.61116827028588       -0.07552064614447
C            5.10160967304526       -0.43070889137474        0.17052463397918
C            5.19642771061844        0.60386580208854       -0.86334243493248
C            5.69069172692629        0.20738336497434       -2.11272920628328
C            5.82376650520351        1.12413811234248       -3.13554490077048
C            5.43386240015057        2.44040751664476       -2.93492547866171
C            4.91558739165816        2.83671886468640       -1.70969880331048
C            4.80790227698335        1.93223042089151       -0.67037982068716
C            5.11196912932435        0.02860174568637        1.65425090126882
N            3.78414642477883        0.38358940899110        2.09542419648864
C            3.40439124145030        1.60326863924304        2.62274749505024
C            4.12997466755537        2.73444202870783        2.98231900381985
C            3.42686937605559        3.78154224137459        3.54262190484227
C            2.04355658536081        3.72469086133396        3.73122023876865
C            1.31078580606559        2.61081455736955        3.37451884071889
C            2.01424069687895        1.54623086349986        2.82450946433098
N            1.62283344486888        0.28109766063435        2.43099392439516
C            2.70155269253814       -0.40806994292210        2.02971489176638
C            2.65406466982158       -1.82725167396425        1.64416765872772
N            0.36127971980037       -0.26091653160866        2.44274350394137
C           -0.24260737943773       -0.51514386403633        1.11850698187786
C           -0.80876671413582       -1.91120456337218        1.08958764327278
C           -1.78490754974202       -2.26873045397180        2.01328896036146
C           -2.31007969715325       -3.54746325414790        2.01766470371800
C           -1.86519204298944       -4.48116803112414        1.09619233678050
C           -0.89130001618332       -4.13425047829884        0.17602798118642
C           -0.36210934822217       -2.85436664047319        0.17413458562384
H            5.97744676972794       -0.82511375158963       -2.24509561063901
H            6.22756927013821        0.81433369628077       -4.08759665044353
H            5.53033503014897        3.15954246934182       -3.73390513846658
H            4.59805526061598        3.85892071235293       -1.56500493278512
H            4.39227839350682        2.26254486098291        0.27011897832221
H            5.49117338741576       -0.80710850036193        2.25267332927627
H            5.76900421883380        0.88847059739018        1.77937322174094