66
 energy: -73.200857012935 gnorm: 0.056596482071 xtb: 6.7.1 (edcfbbe)
C            1.18464000000000       -0.30277000000000        0.91172000000000
C            1.13484000000000        1.20543000000000        0.72104000000000
C            1.43842000000000        1.64872000000000       -0.71238000000000
C            0.47467000000000        1.12488000000000       -1.78284000000000
C           -0.99574000000000        1.51416000000000       -1.59355000000000
C           -1.27911000000000        3.02014000000000       -1.56049000000000
C           -0.83611000000000        3.79864000000000       -2.80386000000000
C           -1.48981000000000        3.35994000000000       -4.11927000000000
C           -3.01325000000000        3.52564000000000       -4.18588000000000
C           -3.53584000000000        4.94784000000000       -3.94721000000000
C           -2.94732000000000        6.02544000000000       -4.86361000000000
C           -3.24398000000000        5.85098000000000       -6.35751000000000
C           -4.72081000000000        5.95764000000000       -6.77107000000000
C           -5.44546000000000        7.26317000000000       -6.41542000000000
N           -5.34839000000000        8.39184000000000       -7.46227000000000
C           -6.05646000000000        8.04989000000000       -8.79744000000000
C           -7.53824000000000        7.77494000000000       -8.73995000000000
C           -8.46521000000000        8.82061000000000       -8.88740000000000
C           -9.83678000000000        8.56975000000000       -8.82827000000000
C          -10.29986000000000        7.27172000000000       -8.63177000000000
C           -9.39393000000000        6.22214000000000       -8.50157000000000
C           -8.02110000000000        6.46963000000000       -8.55834000000000
C           -5.99792000000000        9.63699000000000       -6.84290000000000
C           -3.90287000000000        8.75265000000000       -7.77883000000000
H            0.38540000000000       -0.80383000000000        0.35787000000000
H            1.06045000000000       -0.55237000000000        1.97035000000000
H            2.14491000000000       -0.70934000000000        0.57882000000000
H            0.15787000000000        1.58345000000000        1.04083000000000
H            1.87626000000000        1.66348000000000        1.38703000000000
H            1.46067000000000        2.74431000000000       -0.74319000000000
H            2.45262000000000        1.32106000000000       -0.97412000000000
H            0.82107000000000        1.47556000000000       -2.76223000000000
H            0.54128000000000        0.03129000000000       -1.82637000000000
H           -1.58247000000000        1.05276000000000       -2.39665000000000
H           -1.37242000000000        1.06942000000000       -0.66485000000000
H           -2.35371000000000        3.16851000000000       -1.40150000000000
H           -0.78960000000000        3.46046000000000       -0.68361000000000
H           -1.03267000000000        4.86363000000000       -2.63420000000000
H            0.25179000000000        3.71951000000000       -2.91382000000000
H           -1.02984000000000        3.92446000000000       -4.93905000000000
H           -1.24440000000000        2.31032000000000       -4.31876000000000
H           -3.35638000000000        3.17579000000000       -5.16691000000000
H           -3.48270000000000        2.85630000000000       -3.45504000000000
H           -4.62800000000000        4.94090000000000       -4.04175000000000
H           -3.33362000000000        5.23172000000000       -2.90741000000000
H           -3.30111000000000        7.00464000000000       -4.52448000000000
H           -1.85956000000000        6.05832000000000       -4.73178000000000
H           -2.64681000000000        6.58385000000000       -6.90563000000000
H           -2.86801000000000        4.87528000000000       -6.68805000000000
H           -4.79777000000000        5.74258000000000       -7.84090000000000
H           -5.25975000000000        5.14005000000000       -6.27569000000000
H           -6.51304000000000        7.06192000000000       -6.27694000000000
H           -5.08313000000000        7.67810000000000       -5.47046000000000
H           -5.87384000000000        8.89856000000000       -9.47057000000000
H           -5.53047000000000        7.19623000000000       -9.23924000000000
H           -8.13643000000000        9.84309000000000       -9.06358000000000
H          -10.54907000000000        9.38409000000000       -8.94665000000000
H          -11.36964000000000        7.07563000000000       -8.59426000000000
H           -9.76254000000000        5.20701000000000       -8.36631000000000
H           -7.34070000000000        5.62496000000000       -8.47247000000000
H           -5.38881000000000        9.95264000000000       -5.98973000000000
H           -6.02582000000000       10.42885000000000       -7.59728000000000
H           -7.00493000000000        9.38300000000000       -6.50197000000000
H           -3.36365000000000        8.89323000000000       -6.83780000000000
H           -3.46293000000000        7.95136000000000       -8.37714000000000
H           -3.89497000000000        9.68083000000000       -8.35932000000000
66
 energy: -73.208225090204 gnorm: 0.027024561706 xtb: 6.7.1 (edcfbbe)
C            1.18248288124105       -0.30321191785645        0.91076733755620
C            1.13278954350655        1.20605783179777        0.71768323518685
C            1.43494523462318        1.65216905618187       -0.71370720386551
C            0.47337286248753        1.12816873314675       -1.78291594652627
C           -0.99532605383256        1.51564858213812       -1.59606269663326
C           -1.27971762104252        3.01910400732141       -1.56275417539337
C           -0.83932115859945        3.79838711334083       -2.80388708105818
C           -1.49087204285030        3.36593266276882       -4.11956166915920
C           -3.01202567406929        3.52835799686940       -4.18970792264362
C           -3.53634688488111        4.94718289859490       -3.94830953564907
C           -2.95227696394814        6.02601997045964       -4.86289521073409
C           -3.23997595103490        5.85920401193797       -6.35725526382988
C           -4.71496392893782        5.96363949343490       -6.77345591821520
C           -5.44368831872792        7.26939015900986       -6.44892420531164
N           -5.36045787851610        8.39197217609969       -7.46808230746239
C           -6.05694294493197        8.05359973509961       -8.78325238198804
C           -7.53600045110599        7.78136241394630       -8.69658908400416
C           -8.45697816605776        8.81689939258824       -8.86252862200433
C           -9.82015035789996        8.56491708448339       -8.82650859299388
C          -10.28378718369880        7.27327772280795       -8.63359483062477
C           -9.38007169474192        6.23120545133000       -8.50017130565494
C           -8.01595413813793        6.48184712603583       -8.53354537494793
C           -5.99664326695998        9.60781341624366       -6.85633845484191
C           -3.93844928305533        8.74054630246512       -7.77731946114653
H            0.38935992068281       -0.80139410937127        0.35570348143892
H            1.06069720455184       -0.55293024594494        1.96452619990225
H            2.13929621179684       -0.70284149586323        0.57653045990638
H            0.15417332989765        1.58080514338118        1.02794501750255
H            1.87429116504481        1.66717641977886        1.37777791167794
H            1.44992866981178        2.74558706860107       -0.74372332328238
H            2.44359440963147        1.31515582550439       -0.97435805095953
H            0.81944125885724        1.48501785532405       -2.75764429731670
H            0.53560990004761        0.03672888261526       -1.81418334499316
H           -1.57561793390284        1.05691125765223       -2.40247696157155
H           -1.36405526754233        1.08020129506344       -0.66314857856910
H           -2.35381199816327        3.16183494525255       -1.40957428066250
H           -0.78086360334168        3.45676063719088       -0.69337964999658
H           -1.04217512769040        4.85991964095420       -2.63211939343242
H            0.24439835681112        3.70556469687322       -2.91616823541824
H           -1.03008226646148        3.93317801018801       -4.93448206555996
H           -1.25518204472429        2.31491142260960       -4.30572609739986
H           -3.34891286668499        3.17869021438352       -5.17080022019262
H           -3.47597832911694        2.86969608622051       -3.45088133041107
H           -4.62636812805188        4.93543792791695       -4.04682457886104
H           -3.32207653811640        5.23163729064670       -2.91475166368130
H           -3.31147336771745        7.00201762795123       -4.52089101605462
H           -1.86713265733825        6.04291174538339       -4.73665589160899
H           -2.63554640045207        6.58643581888811       -6.90278058114201
H           -2.88542279104286        4.87430219285485       -6.67136433297034
H           -4.79131696327963        5.74873384747961       -7.84074737293369
H           -5.26113719094928        5.16315208757874       -6.26578444451404
H           -6.51020675245696        7.06851759758687       -6.31977156422313
H           -5.06867873528622        7.67504200383118       -5.50702897163095
H           -5.87842931107243        8.90596903531934       -9.44642463790834
H           -5.53898980245074        7.18983755050436       -9.20764754295105
H           -8.12221136359085        9.82919068239458       -9.04880455753498
H          -10.52405202348367        9.37621710285146       -8.95114090854018
H          -11.34692478370315        7.07786835580232       -8.59935515050306
H           -9.74145151587962        5.22018932932219       -8.37181552898542
H           -7.33229295162565        5.64647899368037       -8.45828219510351
H           -5.40228003743771        9.93335470349162       -6.00368747036911
H           -6.02993584701730       10.40704551952541       -7.59290300801860
H           -7.00485850365748        9.37027791023545       -6.52582606370631
H           -3.38851632885560        8.87972190732190       -6.84920797018919
H           -3.48021838960973        7.95047544219043       -8.36650500004160
H           -3.91032116525881        9.66634035658367       -8.35058011724577
66
 energy: -73.209963805875 gnorm: 0.004916198282 xtb: 6.7.1 (edcfbbe)
C            1.18113053323356       -0.30131480599616        0.90569754921201
C            1.12634925707029        1.20954957575893        0.71456539835357
C            1.43162731499336        1.65551052757827       -0.71635029176620
C            0.47148886482959        1.13041104049843       -1.78580800641363
C           -0.99707153837524        1.51705973985787       -1.59944660861493
C           -1.28260188319240        3.01990789965231       -1.56554464212728
C           -0.84164362165839        3.80096806530711       -2.80498806362225
C           -1.49197822390320        3.36969171372354       -4.12116985839334
C           -3.01255287034065        3.53200257208634       -4.19304123849279
C           -3.54030953286888        4.94918428994733       -3.95187281515241
C           -2.95773174664294        6.03147303509877       -4.86322466149899
C           -3.24079250564621        5.86385795554183       -6.35838327081249
C           -4.71206302942295        5.97190651728369       -6.78541004214494
C           -5.44547110011933        7.27815631179919       -6.46901325911019
N           -5.36072623575715        8.39066792594217       -7.46975325564655
C           -6.05000439516396        8.05416600088801       -8.76691230359823
C           -7.52855280685635        7.78453495270828       -8.67524952831169
C           -8.44498132314606        8.81775338771719       -8.84406777046452
C           -9.80420082005059        8.56587209368857       -8.81365668433113
C          -10.26827025148208        7.27548171643682       -8.62571403587505
C           -9.36478926955790        6.23673999332452       -8.48478312070925
C           -8.00487043884332        6.48818368683839       -8.51219977745105
C           -5.99850179658852        9.57721414390887       -6.86907033531554
C           -3.96085603720844        8.73229362278713       -7.77497286778307
H            0.39102431033825       -0.79779801676435        0.34949245787145
H            1.06038384248760       -0.55022047664457        1.95702815390519
H            2.13800112017867       -0.69418495185862        0.57046722231121
H            0.14537592922126        1.57932818002713        1.01858281081039
H            1.86580093916834        1.67236143605439        1.37300763520796
H            1.44233118511415        2.74725324251644       -0.74425186952112
H            2.43742638345278        1.31525205065335       -0.97632187185344
H            0.81822157210555        1.48924545386331       -2.75760422997706
H            0.53141639494047        0.04079941428704       -1.80995885237024
H           -1.57324345153610        1.05875325257822       -2.40674763047760
H           -1.36166061911832        1.08666888738463       -0.66496840673442
H           -2.35578374622749        3.15869197692563       -1.41367858354206
H           -0.77883025304190        3.45559339848713       -0.70069439108761
H           -1.04582266114307        4.86013566888714       -2.62975189132358
H            0.23909565994566        3.70017855615846       -2.91867976087545
H           -1.02918465167462        3.93786546337811       -4.93209650895630
H           -1.26166454549310        2.31853293701990       -4.30101429515301
H           -3.34489893621953        3.18118121011787       -5.17346201385597
H           -3.47315488470659        2.87878791168365       -3.45065736367336
H           -4.62909136971616        4.93214466233628       -4.04901135799635
H           -3.31805549098377        5.23307672645121       -2.92249107470067
H           -3.32102503870065        7.00400326240683       -4.51728545965557
H           -1.87480184267049        6.04099837755386       -4.73778948074111
H           -2.62711357336889        6.58372659272046       -6.90056849121757
H           -2.89909941230947        4.87315689947361       -6.66032943585685
H           -4.78180478899461        5.74376546398187       -7.84998098013201
H           -5.25933269037213        5.18442907168728       -6.26453767043714
H           -6.51047350184655        7.06867574709921       -6.34930718930666
H           -5.06833450737251        7.67190456903529       -5.52353154914259
H           -5.87999772911240        8.90149999125441       -9.43410241917320
H           -5.54543588834012        7.18196056187012       -9.18463309787122
H           -8.10284662082860        9.82574409019250       -9.02387822393545
H          -10.50225788804303        9.37526166447100       -8.95380915053074
H          -11.32787956660752        7.07800261011172       -8.61046721500046
H           -9.72017055303611        5.22558209100666       -8.37012345251952
H           -7.31537152485500        5.66191559311608       -8.42840260342174
H           -5.42349759684020        9.91017758443071       -6.00761963893862
H           -6.03330897297085       10.38692867802421       -7.59316773389174
H           -7.01251321259200        9.34720601689225       -6.55285199358141
H           -3.40414965973262        8.87245067669778       -6.85203662771654
H           -3.49361375981886        7.94366347600609       -8.35699333865870
H           -3.91937494198225        9.65564803604781       -8.34928293620898
66
 energy: -73.210143257703 gnorm: 0.002637819327 xtb: 6.7.1 (edcfbbe)
C            1.17991846082678       -0.29880115276834        0.90143193322907
C            1.12104500852475        1.21239947716603        0.71148234550587
C            1.42835994279671        1.65937497200595       -0.71892717811088
C            0.46942258434846        1.13244409639172       -1.78900249532399
C           -0.99967584863303        1.51827386039723       -1.60263213930144
C           -1.28513369419972        3.02142998229729       -1.56726100475998
C           -0.84313675631111        3.80331919751307       -2.80619384870293
C           -1.49329663404238        3.37284924958185       -4.12307436147268
C           -3.01425215471215        3.53440206547922       -4.19496973445100
C           -3.54285577438035        4.95137592525968       -3.95267421028825
C           -2.96074593556001        6.03435290984826       -4.86415385910751
C           -3.23883328297020        5.86311367850350       -6.36007678017568
C           -4.70986820482158        5.96855232731501       -6.78871740032676
C           -5.44536346897476        7.27544333884255       -6.47355362391969
N           -5.35874388402110        8.38975079659567       -7.46958012981402
C           -6.04343734308487        8.05077512945779       -8.76537133053882
C           -7.52274480150075        7.78411689597941       -8.66716537318786
C           -8.43795102282991        8.81930365276465       -8.83479518359010
C           -9.79775005427350        8.56657225245141       -8.80973741980657
C          -10.26161373777350        7.27482964757821       -8.62516525561722
C           -9.35846221287906        6.23583290499039       -8.47642280921045
C           -7.99794649406100        6.48770643775311       -8.49796371802414
C           -6.00280025885223        9.57215463172270       -6.87024368728020
C           -3.95980268006567        8.73052990509340       -7.77180996507103
H            0.39114059269382       -0.79670171896652        0.34390286495433
H            1.05926962312227       -0.54921983322944        1.95272575375928
H            2.13853471362104       -0.68805282336915        0.56584791739608
H            0.13813531995914        1.57878899662334        1.01321352349865
H            1.85724633702634        1.67700742636152        1.37218536522689
H            1.43836605817506        2.75113393416640       -0.74689232155353
H            2.43477799194125        1.32011795283061       -0.97742827613142
H            0.81640901136949        1.49053274959778       -2.76090766367438
H            0.53014303941115        0.04293282331693       -1.81253845924165
H           -1.57569341248922        1.05988364959517       -2.40993244222868
H           -1.36425860155047        1.08719557727852       -0.66853662657332
H           -2.35824450963865        3.16009057255929       -1.41535669501364
H           -0.78183321849124        3.45626458946648       -0.70174756370580
H           -1.04639654494328        4.86239866493066       -2.63005229443964
H            0.23754092819305        3.70216362913805       -2.91938071835956
H           -1.02980810127256        3.94078568670670       -4.93373493169180
H           -1.26296542619508        2.32180423757254       -4.30304236993498
H           -3.34629240496754        3.18302302671618       -5.17530019476634
H           -3.47445597641714        2.88073639013419       -3.45274222945510
H           -4.63154742621832        4.93291152709791       -4.04963643839001
H           -3.32100198390048        5.23490725358382       -2.92306136898779
H           -3.32672882917143        7.00612243149619       -4.51939998626134
H           -1.87832081275748        6.04665945897114       -4.73614519382704
H           -2.62223049695499        6.58017645687719       -6.90273573563240
H           -2.89765912555179        4.87118494689959       -6.65765702282206
H           -4.77642628263445        5.73747529551597       -7.85275206878064
H           -5.25683357651175        5.18207480310331       -6.26648308893747
H           -6.51011729271755        7.06190231600313       -6.35779232358834
H           -5.07328524245055        7.66407248998210       -5.52395306881259
H           -5.87589807716878        8.89459557503138       -9.43805835785121
H           -5.54420159897510        7.17548654601550       -9.18337536803031
H           -8.09307541336452        9.82720844764783       -9.01305009349223
H          -10.49498802464407        9.37722116217857       -8.94897424635961
H          -11.32135560139006        7.07723159106049       -8.61229792532365
H           -9.71290326070623        5.22449365187843       -8.35786703360866
H           -7.30605806649221        5.66327747332706       -8.40933312869307
H           -5.43954102725516        9.90304680671122       -5.99892872249142
H           -6.03300894336085       10.38726683467242       -7.59064453246135
H           -7.02100468983817        9.33802448297499       -6.56610814428789
H           -3.40344644903908        8.87357096483220       -6.84784033388253
H           -3.49160364257650        7.93944148926178       -8.35155237904189
H           -3.91680130841860        9.65228028122797       -8.34993884715528
66
 energy: -73.210298197340 gnorm: 0.003239044768 xtb: 6.7.1 (edcfbbe)
C            1.17760072039733       -0.29317068273212        0.89252711485782
C            1.10993519907727        1.21820727449830        0.70489437070508
C            1.42083197978600        1.66710534509267       -0.72428429259040
C            0.46464866023888        1.13746229646126       -1.79583935545738
C           -1.00532320239443        1.52133347898924       -1.60992867267813
C           -1.29100066757668        3.02466117888436       -1.57154639927207
C           -0.84686503117767        3.80841365900025       -2.80883900804261
C           -1.49619822616190        3.37892928599354       -4.12670118522329
C           -3.01757282101643        3.53902740637188       -4.19796087364763
C           -3.54705156298647        4.95561365664283       -3.95414582170485
C           -2.96402208958970        6.03916394662349       -4.86485918016711
C           -3.23403818329592        5.85984896899464       -6.36141220011017
C           -4.70402210968485        5.96129788412045       -6.79403778179149
C           -5.44424299230290        7.26698958124906       -6.47770771721816
N           -5.35332689727384        8.38492231367530       -7.46793541336677
C           -6.03335361756537        8.04430174688897       -8.76276060361837
C           -7.51390510611022        7.78074002408984       -8.66174371566264
C           -8.42720673549919        8.81866234355072       -8.82657616434354
C           -9.78742462524726        8.56607835672263       -8.80072575239941
C          -10.25063931449492        7.27346297565416       -8.61666975381595
C           -9.34889838247253        6.23393939000647       -8.45788149682376
C           -7.98789323036438        6.48499874175981       -8.47979503124979
C           -6.00797118833751        9.56284584868308       -6.86955524990104
C           -3.95383308480622        8.72921312582110       -7.76342476712263
H            0.39204417088933       -0.79486702720998        0.33287214110444
H            1.05712713447914       -0.54674092679660        1.94351808417605
H            2.13936279459098       -0.67587804086017        0.55691270326807
H            0.12315119997896        1.57789208451145        1.00235862875214
H            1.83963883255518        1.68681130810967        1.37011593750177
H            1.42890476615141        2.75900685823206       -0.75243291517450
H            2.42892652123016        1.33056292574477       -0.98008435908307
H            0.81188039452544        1.49480973730774       -2.76802556486598
H            0.52755443845574        0.04797442528270       -1.81890619021164
H           -1.58098025889578        1.06371857796775       -2.41804105130531
H           -1.37046967825196        1.08777758760813       -0.67706106881787
H           -2.36423566024993        3.16343657810003       -1.42024452973164
H           -0.78915277024968        3.45770724877845       -0.70412867399089
H           -1.04911781704373        4.86754018219365       -2.63154234184618
H            0.23402367101990        3.70722093665554       -2.92087372011775
H           -1.03271187069466        3.94769848292558       -4.93691769433568
H           -1.26473967638536        2.32825456379804       -4.30804112826283
H           -3.34982261237881        3.18778921209083       -5.17839493802395
H           -3.47724601504051        2.88380845118416       -3.45651153691482
H           -4.63575233373292        4.93641832881200       -4.05159417327264
H           -3.32663321377507        5.23845966114522       -2.92384215420940
H           -3.33642840328096        7.01004406069088       -4.52487311480930
H           -1.88234465847456        6.05793448266772       -4.73039573859593
H           -2.61480478036792        6.57332208146537       -6.90567570799196
H           -2.89121070330901        4.86655928951087       -6.65207075553123
H           -4.76715389326082        5.72791391184293       -7.85767038362817
H           -5.24981736196721        5.17466459408690       -6.27120649699045
H           -6.50909795891277        7.04834820383446       -6.36991655624678
H           -5.08126050240313        7.64879177985768       -5.52178404460352
H           -5.86560720976796        8.88289798244487       -9.44272658116134
H           -5.53872311014378        7.16560332399152       -9.17915100361332
H           -8.07882927970767        9.82666099633346       -9.00115206412455
H          -10.48380952265596        9.37829288281892       -8.93917193465811
H          -11.31076867143206        7.07513210403746       -8.61217391725766
H           -9.70272517402970        5.22277735947619       -8.33127720456102
H           -7.29325258693656        5.66331111064448       -8.37987537223605
H           -5.46369014316505        9.88578865375663       -5.98206474932221
H           -6.02544401013515       10.38573072853181       -7.58362373325121
H           -7.03333267253242        9.32322785154508       -6.58813348375596
H           -3.40090961773767        8.87814940635754       -6.83716377908882
H           -3.48259050892384        7.93499287597905       -8.33837641721477
H           -3.91026873917633        9.64802701750181       -8.34762346535103
66
 energy: -73.210382549930 gnorm: 0.003118443456 xtb: 6.7.1 (edcfbbe)
C            1.17585834318283       -0.28830706553902        0.88499230218819
C            1.10035048181653        1.22284415033459        0.69898471119929
C            1.41357180929952        1.67380260724588       -0.72893403719749
C            0.46001564478021        1.14253032680264       -1.80195652965974
C           -1.01056438564281        1.52441880181109       -1.61696261166224
C           -1.29666808845998        3.02754783626605       -1.57571428421039
C           -0.85071765391354        3.81284018001897       -2.81128317997754
C           -1.49905495487726        3.38405101348245       -4.12976329265167
C           -3.02054649775154        3.54272625662365       -4.19987559290693
C           -3.54963108361948        4.95909921634907       -3.95469219065063
C           -2.96499124306643        6.04232275178091       -4.86465560235622
C           -3.22889938319235        5.85705467767426       -6.36137498456494
C           -4.69807318444424        5.95500544356773       -6.79664005042680
C           -5.44199514746634        7.25843701337035       -6.47842408764460
N           -5.34966929824665        8.37956973921084       -7.46507407686106
C           -6.02612355581977        8.03896164782302       -8.76118102148995
C           -7.50727742349608        7.77668530655027       -8.65961993864123
C           -8.41977167212717        8.81533221812324       -8.82459833376856
C           -9.78018373345479        8.56352017503384       -8.79558772851524
C          -10.24326491739966        7.27147535498312       -8.60814014491551
C           -9.34263437704125        6.23196392698942       -8.44414659102235
C           -7.98143553428728        6.48200606833468       -8.46943636216547
C           -6.00903679588291        9.55542042995647       -6.86577746442822
C           -3.94946785850986        8.72790628347136       -7.75576415261279
H            0.39354690145246       -0.79359695173085        0.32380550192320
H            1.05556510843629       -0.54418552470940        1.93550827143191
H            2.14003802105074       -0.66554508959446        0.54983039585059
H            0.11047315453393        1.57678458474994        0.99327393453853
H            1.82484750373060        1.69501547350200        1.36748006672212
H            1.41947915460853        2.76579814403221       -0.75669076249898
H            2.42307076838203        1.33983833547326       -0.98289661788438
H            0.80755126347795        1.50031034266064       -2.77396050192166
H            0.52488638828210        0.05308824435151       -1.82524584714592
H           -1.58529214718520        1.06814141213684       -2.42658703002009
H           -1.37661788924589        1.08828768837998       -0.68554950170648
H           -2.37014245128163        3.16625438063295       -1.42561447222680
H           -0.79632533060808        3.45908550643929       -0.70657567552262
H           -1.05303024859133        4.87190951019660       -2.63329881191047
H            0.23039558635661        3.71201442289861       -2.92223830288598
H           -1.03648564584821        3.95440638443538       -4.93947216976076
H           -1.26612894443350        2.33388641924227       -4.31269076057918
H           -3.35358061637387        3.19220238001113       -5.18037055143380
H           -3.47961145811614        2.88634987137418       -3.45895279771262
H           -4.63832584694218        4.94086509283607       -4.05316725921916
H           -3.33035534865501        5.24111770780497       -2.92382553483811
H           -3.34218866866365        7.01296062448390       -4.52927961799094
H           -1.88395422041984        6.06565586077757       -4.72482969269718
H           -2.60911670737848        6.56891282338361       -6.90701415471241
H           -2.88382580445498        4.86317024141980       -6.64745290243387