      -----------------------------------------------------------      
     |                   =====================                   |     
     |                           x T B                           |     
     |                   =====================                   |     
     |                         S. Grimme                         |     
     |          Mulliken Center for Theoretical Chemistry        |     
     |                    University of Bonn                     |     
      -----------------------------------------------------------      

   * xtb version 6.7.1 (edcfbbe) compiled by 'conda@3ef47c1a292c' on 2024-11-25

   xtb is free software: you can redistribute it and/or modify it under
   the terms of the GNU Lesser General Public License as published by
   the Free Software Foundation, either version 3 of the License, or
   (at your option) any later version.
   
   xtb is distributed in the hope that it will be useful,
   but WITHOUT ANY WARRANTY; without even the implied warranty of
   MERCHANTABILITY or FITNESS FOR A PARTICULAR PURPOSE.  See the
   GNU Lesser General Public License for more details.
   
   Cite this work as:
   * C. Bannwarth, E. Caldeweyher, S. Ehlert, A. Hansen, P. Pracht,
     J. Seibert, S. Spicher, S. Grimme, WIREs Comput. Mol. Sci., 2020, 11,
     e01493. DOI: 10.1002/wcms.1493
   
   for GFN2-xTB:
   * C. Bannwarth, S. Ehlert and S. Grimme., J. Chem. Theory Comput., 2019,
     15, 1652-1671. DOI: 10.1021/acs.jctc.8b01176
   for GFN1-xTB:
   * S. Grimme, C. Bannwarth, P. Shushkov, J. Chem. Theory Comput., 2017,
     13, 1989-2009. DOI: 10.1021/acs.jctc.7b00118
   for GFN0-xTB:
   * P. Pracht, E. Caldeweyher, S. Ehlert, S. Grimme, ChemRxiv, 2019, preprint.
     DOI: 10.26434/chemrxiv.8326202.v1
   for GFN-FF:
   * S. Spicher and S. Grimme, Angew. Chem. Int. Ed., 2020, 59, 15665-15673.
     DOI: 10.1002/anie.202004239
   
   for ALPB and GBSA implicit solvation:
   * S. Ehlert, M. Stahn, S. Spicher, S. Grimme, J. Chem. Theory Comput.,
     2021, 17, 4250-4261. DOI: 10.1021/acs.jctc.1c00471
   
   for ddCOSMO and CPCM-X implicit solvation:
   * M. Stahn, S. Ehlert, S. Grimme, J. Phys. Chem. A,
     2023, XX, XXXX-XXXX. DOI: 10.1021/acs.jpca.3c04382
   
   for DFT-D4:
   * E. Caldeweyher, C. Bannwarth and S. Grimme, J. Chem. Phys., 2017,
     147, 034112. DOI: 10.1063/1.4993215
   * E. Caldeweyher, S. Ehlert, A. Hansen, H. Neugebauer, S. Spicher,
     C. Bannwarth and S. Grimme, J. Chem. Phys., 2019, 150, 154122.
     DOI: 10.1063/1.5090222
   * E. Caldeweyher, J.-M. Mewes, S. Ehlert and S. Grimme, Phys. Chem. Chem. Phys.
     2020, 22, 8499-8512. DOI: 10.1039/D0CP00502A
   
   for sTDA-xTB:
   * S. Grimme and C. Bannwarth, J. Chem. Phys., 2016, 145, 054103.
     DOI: 10.1063/1.4959605
   
   in the mass-spec context:
   * V. Asgeirsson, C. Bauer and S. Grimme, Chem. Sci., 2017, 8, 4879.
     DOI: 10.1039/c7sc00601b
   * J. Koopman and S. Grimme, ACS Omega 2019, 4, 12, 15120-15133.
     DOI: 10.1021/acsomega.9b02011
   
   for metadynamics refer to:
   * S. Grimme, J. Chem. Theory Comput., 2019, 155, 2847-2862
     DOI: 10.1021/acs.jctc.9b00143
   
   for SPH calculations refer to:
   * S. Spicher and S. Grimme, J. Chem. Theory Comput., 2021, 17, 1701-1714
     DOI: 10.1021/acs.jctc.0c01306
   
   for ONIOM refer to:
   * C. Plett, A. Katbashev, S. Ehlert, S. Grimme, M. Bursch,
     Phys. Chem. Chem. Phys., 2023, 25, 17860-17868. DOI: 10.1039/D3CP02178E
   
   for DIPRO refer to:
   * J. Kohn, N. Gildemeister, S. Grimme, D. Fazzi, A. Hansen,
     J. Chem. Phys., 2023, just accepted.
   
   for PTB refer to:
   * S. Grimme, M. Mueller, A. Hansen, J. Chem. Phys., 2023, 158, 124111.
     DOI: 10.1063/5.0137838
   
   with help from (in alphabetical order)
   P. Atkinson, C. Bannwarth, F. Bohle, G. Brandenburg, E. Caldeweyher
   M. Checinski, S. Dohm, S. Ehlert, S. Ehrlich, I. Gerasimov, C. Hölzer
   A. Katbashev, J. Kohn, J. Koopman, C. Lavigne, S. Lehtola, F. März, M. Müller,
   F. Musil, H. Neugebauer, J. Pisarek, C. Plett, P. Pracht, F. Pultar,
   J. Seibert, P. Shushkov, S. Spicher, M. Stahn, M. Steiner, T. Strunk,
   J. Stückrath, T. Rose, and J. Unsleber
   
 * started run on 2024/12/20 at 06:42:17.867     
   ID    Z sym.   atoms
    1   17 Cl     1, 8
    2    6 C      2-7, 9, 11, 12, 14
    3    7 N      10, 13
    4    8 O      15
    5    1 H      16-24

           -------------------------------------------------
          |                Calculation Setup                |
           -------------------------------------------------

          program call               : xtb C0369.xyz --opt --namespace C0369 --charge +1
          calculation namespace      : C0369
          coordinate file            : C0369.xyz
          omp threads                :                     8


           -------------------------------------------------
          |                 G F N 2 - x T B                 |
           -------------------------------------------------

        Reference                      10.1021/acs.jctc.8b01176
      * Hamiltonian:
        H0-scaling (s, p, d)           1.850000    2.230000    2.230000
        zeta-weighting                 0.500000
      * Dispersion:
        s8                             2.700000
        a1                             0.520000
        a2                             5.000000
        s9                             5.000000
      * Repulsion:
        kExp                           1.500000    1.000000
        rExp                           1.000000
      * Coulomb:
        alpha                          2.000000
        third order                    shell-resolved
        anisotropic                    true
        a3                             3.000000
        a5                             4.000000
        cn-shift                       1.200000
        cn-exp                         4.000000
        max-rad                        5.000000


          ...................................................
          :                      SETUP                      :
          :.................................................:
          :  # basis functions                  81          :
          :  # atomic orbitals                  79          :
          :  # shells                           41          :
          :  # electrons                        78          :
          :  max. iterations                   250          :
          :  Hamiltonian                  GFN2-xTB          :
          :  restarted?                      false          :
          :  GBSA solvation                  false          :
          :  PC potential                    false          :
          :  electronic temp.          300.0000000     K    :
          :  accuracy                    1.0000000          :
          :  -> integral cutoff          0.2500000E+02      :
          :  -> integral neglect         0.1000000E-07      :
          :  -> SCF convergence          0.1000000E-05 Eh   :
          :  -> wf. convergence          0.1000000E-03 e    :
          :  Broyden damping             0.4000000          :
          :  net charge                          1          :
          :  unpaired electrons                  0          :
          ...................................................

 iter      E             dE          RMSdq      gap      omega  full diag
   1    -44.9690678 -0.449691E+02  0.451E+00    3.70       0.0  T
   2    -45.0778217 -0.108754E+00  0.288E+00    3.35       1.0  T
   3    -45.0839551 -0.613335E-02  0.149E+00    2.67       1.0  T
   4    -45.0841035 -0.148374E-03  0.565E-01    2.20       1.0  T
   5    -45.0880903 -0.398688E-02  0.183E-01    2.26       1.0  T
   6    -45.0882752 -0.184841E-03  0.120E-01    2.29       1.0  T
   7    -45.0883283 -0.531584E-04  0.818E-02    2.33       1.0  T
   8    -45.0883789 -0.505528E-04  0.503E-02    2.34       1.0  T
   9    -45.0883980 -0.190903E-04  0.250E-02    2.33       1.0  T
  10    -45.0884024 -0.445199E-05  0.125E-02    2.33       1.6  T
  11    -45.0884043 -0.187860E-05  0.571E-03    2.33       3.6  T
  12    -45.0884046 -0.252806E-06  0.341E-03    2.33       6.0  T
  13    -45.0884047 -0.782983E-07  0.218E-03    2.33       9.4  T
  14    -45.0884047 -0.331580E-07  0.155E-03    2.33      13.2  T
  15    -45.0884047 -0.217786E-07  0.903E-04    2.33      22.6  T
  16    -45.0884047 -0.100116E-07  0.319E-04    2.33      64.0  T

   *** convergence criteria satisfied after 16 iterations ***

         #    Occupation            Energy/Eh            Energy/eV
      -------------------------------------------------------------
         1        2.0000           -1.1747801             -31.9674
       ...           ...                  ...                  ...
        33        2.0000           -0.5773603             -15.7108
        34        2.0000           -0.5686790             -15.4745
        35        2.0000           -0.5607117             -15.2577
        36        2.0000           -0.5415031             -14.7351
        37        2.0000           -0.5242647             -14.2660
        38        2.0000           -0.5195861             -14.1387
        39        2.0000           -0.5097469             -13.8709 (HOMO)
        40                         -0.4240189             -11.5381 (LUMO)
        41                         -0.3918705             -10.6633
        42                         -0.3722675             -10.1299
        43                         -0.3677664             -10.0074
        44                         -0.2937284              -7.9928
       ...                                ...                  ...
        79                          0.4669554              12.7065
      -------------------------------------------------------------
                  HL-Gap            0.0857280 Eh            2.3328 eV
             Fermi-level           -0.4668829 Eh          -12.7045 eV

 SCC (total)                   0 d,  0 h,  0 min,  0.021 sec
 SCC setup                      ...        0 min,  0.000 sec (  0.552%)
 Dispersion                     ...        0 min,  0.000 sec (  1.054%)
 classical contributions        ...        0 min,  0.000 sec (  0.224%)
 integral evaluation            ...        0 min,  0.002 sec ( 11.221%)
 iterations                     ...        0 min,  0.016 sec ( 73.975%)
 molecular gradient             ...        0 min,  0.003 sec ( 12.510%)
 printout                       ...        0 min,  0.000 sec (  0.390%)

         :::::::::::::::::::::::::::::::::::::::::::::::::::::
         ::                     SUMMARY                     ::
         :::::::::::::::::::::::::::::::::::::::::::::::::::::
         :: total energy             -44.577159646086 Eh    ::
         :: gradient norm              0.063145734130 Eh/a0 ::
         :: HOMO-LUMO gap              2.332776736135 eV    ::
         ::.................................................::
         :: SCC energy               -45.088201735527 Eh    ::
         :: -> isotropic ES            0.107068184311 Eh    ::
         :: -> anisotropic ES         -0.015521591769 Eh    ::
         :: -> anisotropic XC          0.016639747466 Eh    ::
         :: -> dispersion             -0.025070615392 Eh    ::
         :: repulsion energy           0.511042089440 Eh    ::
         :: add. restraining           0.000000000000 Eh    ::
         :: total charge               1.000000000000 e     ::
         :::::::::::::::::::::::::::::::::::::::::::::::::::::

      ----------------------------------------------------------- 
     |                   =====================                   |
     |                        A N C O P T                        |
     |                   =====================                   |
     |               Approximate Normal Coordinate               |
     |                Rational Function Optimizer                |
      ----------------------------------------------------------- 
      ----------------------------------------------------------- 
     |                   =====================                   |
     |                        A N C O P T                        |
     |                   =====================                   |
     |               Approximate Normal Coordinate               |
     |                Rational Function Optimizer                |
      ----------------------------------------------------------- 

          ...................................................
          :                      SETUP                      :
          :.................................................:
          :   optimization level            normal          :
          :   max. optcycles                   200          :
          :   ANC micro-cycles                  20          :
          :   degrees of freedom                66          :
          :.................................................:
          :   RF solver                   davidson          :
          :   write xtbopt.log                true          :
          :   linear?                        false          :
          :   energy convergence         0.5000000E-05 Eh   :
          :   grad. convergence          0.1000000E-02 Eh/α :
          :   maxmium RF displ.          1.0000000          :
          :   Hlow (freq-cutoff)         0.1000000E-01      :
          :   Hmax (freq-cutoff)         5.0000000          :
          :   S6 in model hess.         20.0000000          :
          ...................................................

generating ANC from exact Hessian ...
Using Lindh-Hessian (1995)
 Shifting diagonal of input Hessian by    9.1296767668861689E-003
 Lowest  eigenvalues of input Hessian
    0.000000    0.000000    0.000000    0.000000    0.000000    0.000000
    0.010000    0.010324    0.011137    0.014050    0.018506    0.020334
    0.023962    0.025016    0.025628    0.030798    0.031894    0.044219
 Highest eigenvalues
    1.916490    1.922720    1.969418    2.003045    2.128139    2.178662


........................................................................
.............................. CYCLE    1 ..............................
........................................................................

 iter      E             dE          RMSdq      gap      omega  full diag
   1    -45.0884047 -0.450884E+02  0.193E-04    2.33       0.0  T
   2    -45.0884047 -0.202391E-09  0.152E-04    2.33     134.3  T
   3    -45.0884047 -0.135280E-09  0.123E-04    2.33     165.5  T
     SCC iter.                  ...        0 min,  0.003 sec
     gradient                   ...        0 min,  0.003 sec
 * total energy  :   -44.5771596 Eh     change       -0.7148415E-09 Eh
   gradient norm :     0.0631465 Eh/α   predicted     0.0000000E+00 (-100.00%)
   displ. norm   :     0.2052207 α      lambda       -0.7268056E-02
   maximum displ.:     0.0711871 α      in ANC's #37, #14, #13, ...

........................................................................
.............................. CYCLE    2 ..............................
........................................................................

 iter      E             dE          RMSdq      gap      omega  full diag
   1    -45.1201246 -0.451201E+02  0.205E-01    2.49       0.0  T
   2    -45.1202859 -0.161325E-03  0.107E-01    2.49       1.0  T
   3    -45.1202914 -0.551546E-05  0.563E-02    2.47       1.0  T
   4    -45.1202943 -0.287151E-05  0.153E-02    2.48       1.3  T
   5    -45.1202990 -0.477157E-05  0.400E-03    2.48       5.1  T
   6    -45.1202991 -0.667637E-07  0.245E-03    2.48       8.3  T
   7    -45.1202991 -0.268796E-07  0.158E-03    2.48      12.9  T
   8    -45.1202992 -0.211198E-07  0.984E-04    2.48      20.8  T
   9    -45.1202992 -0.665161E-08  0.648E-04    2.48      31.5  T
     SCC iter.                  ...        0 min,  0.008 sec
     gradient                   ...        0 min,  0.003 sec
 * total energy  :   -44.5822174 Eh     change       -0.5057773E-02 Eh
   gradient norm :     0.0299060 Eh/α   predicted    -0.3787483E-02 ( -25.12%)
   displ. norm   :     0.1801063 α      lambda       -0.2329553E-02
   maximum displ.:     0.0818995 α      in ANC's #3, #14, #4, ...

........................................................................
.............................. CYCLE    3 ..............................
........................................................................

 iter      E             dE          RMSdq      gap      omega  full diag
   1    -45.1340468 -0.451340E+02  0.160E-01    2.59       0.0  T
   2    -45.1341613 -0.114555E-03  0.799E-02    2.59       1.0  T
   3    -45.1341666 -0.529811E-05  0.440E-02    2.58       1.0  T
   4    -45.1341682 -0.158855E-05  0.117E-02    2.59       1.8  T
   5    -45.1341711 -0.283207E-05  0.333E-03    2.58       6.1  T
   6    -45.1341711 -0.351711E-07  0.193E-03    2.58      10.6  T
   7    -45.1341711 -0.943850E-08  0.122E-03    2.58      16.8  T
   8    -45.1341711 -0.139351E-07  0.710E-04    2.58      28.7  T
   9    -45.1341711 -0.307330E-08  0.453E-04    2.58      45.0  T
     SCC iter.                  ...        0 min,  0.008 sec
     gradient                   ...        0 min,  0.003 sec
 * total energy  :   -44.5835119 Eh     change       -0.1294485E-02 Eh
   gradient norm :     0.0079447 Eh/α   predicted    -0.1202706E-02 (  -7.09%)
   displ. norm   :     0.0961121 α      lambda       -0.2255609E-03
   maximum displ.:     0.0671151 α      in ANC's #3, #4, #2, ...

........................................................................
.............................. CYCLE    4 ..............................
........................................................................

 iter      E             dE          RMSdq      gap      omega  full diag
   1    -45.1328924 -0.451329E+02  0.507E-02    2.58       0.0  T
   2    -45.1328948 -0.245015E-05  0.286E-02    2.59       1.0  T
   3    -45.1328935  0.132273E-05  0.116E-02    2.59       1.8  T
   4    -45.1328953 -0.185004E-05  0.299E-03    2.59       6.8  T
   5    -45.1328955 -0.170154E-06  0.150E-03    2.59      13.6  T
   6    -45.1328955 -0.673475E-08  0.102E-03    2.59      19.9  T
   7    -45.1328955 -0.918620E-08  0.634E-04    2.59      32.2  T
   8    -45.1328955 -0.315656E-08  0.371E-04    2.59      55.1  T
     SCC iter.                  ...        0 min,  0.007 sec
     gradient                   ...        0 min,  0.003 sec
 * total energy  :   -44.5836812 Eh     change       -0.1692471E-03 Eh
   gradient norm :     0.0045577 Eh/α   predicted    -0.1138263E-03 ( -32.75%)
   displ. norm   :     0.1413038 α      lambda       -0.1713836E-03
   maximum displ.:     0.1053609 α      in ANC's #3, #2, #4, ...

........................................................................
.............................. CYCLE    5 ..............................
........................................................................

 iter      E             dE          RMSdq      gap      omega  full diag
   1    -45.1306072 -0.451306E+02  0.655E-02    2.58       0.0  T
   2    -45.1306084 -0.113660E-05  0.381E-02    2.58       1.0  T
   3    -45.1306047  0.366568E-05  0.131E-02    2.58       1.6  T
   4    -45.1306092 -0.446554E-05  0.218E-03    2.58       9.4  T
   5    -45.1306092 -0.224440E-07  0.152E-03    2.58      13.4  T
   6    -45.1306092 -0.125296E-07  0.960E-04    2.58      21.3  T
   7    -45.1306092 -0.568519E-08  0.657E-04    2.58      31.1  T
     SCC iter.                  ...        0 min,  0.006 sec
     gradient                   ...        0 min,  0.003 sec
 * total energy  :   -44.5837864 Eh     change       -0.1052351E-03 Eh
   gradient norm :     0.0031563 Eh/α   predicted    -0.8740828E-04 ( -16.94%)
   displ. norm   :     0.0716489 α      lambda       -0.3760117E-04
   maximum displ.:     0.0555700 α      in ANC's #3, #2, #4, ...

........................................................................
.............................. CYCLE    6 ..............................
........................................................................

 iter      E             dE          RMSdq      gap      omega  full diag
   1    -45.1304778 -0.451305E+02  0.299E-02    2.58       0.0  T
   2    -45.1304780 -0.269468E-06  0.173E-02    2.58       1.2  T
   3    -45.1304776  0.463482E-06  0.498E-03    2.58       4.1  T
   4    -45.1304781 -0.570362E-06  0.936E-04    2.58      21.8  T
   5    -45.1304781 -0.100765E-07  0.584E-04    2.58      34.9  T
     SCC iter.                  ...        0 min,  0.004 sec
     gradient                   ...        0 min,  0.003 sec
 * total energy  :   -44.5838174 Eh     change       -0.3104092E-04 Eh
   gradient norm :     0.0023848 Eh/α   predicted    -0.1890152E-04 ( -39.11%)
   displ. norm   :     0.0896913 α      lambda       -0.4564108E-04
   maximum displ.:     0.0668107 α      in ANC's #3, #2, #10, ...

........................................................................
.............................. CYCLE    7 ..............................
........................................................................

 iter      E             dE          RMSdq      gap      omega  full diag
   1    -45.1310030 -0.451310E+02  0.368E-02    2.58       0.0  T
   2    -45.1310034 -0.390527E-06  0.215E-02    2.58       1.0  T
   3    -45.1310029  0.470906E-06  0.516E-03    2.59       4.0  T
   4    -45.1310035 -0.591904E-06  0.129E-03    2.59      15.8  T
   5    -45.1310035 -0.201165E-07  0.848E-04    2.59      24.1  T
   6    -45.1310035 -0.383908E-08  0.535E-04    2.59      38.1  T
     SCC iter.                  ...        0 min,  0.005 sec
     gradient                   ...        0 min,  0.003 sec
 * total energy  :   -44.5838545 Eh     change       -0.3712050E-04 Eh
   gradient norm :     0.0016413 Eh/α   predicted    -0.2300753E-04 ( -38.02%)
   displ. norm   :     0.1679585 α      lambda       -0.4246279E-04
   maximum displ.:     0.1242393 α      in ANC's #3, #2, #10, ...

........................................................................
.............................. CYCLE    8 ..............................
........................................................................

 iter      E             dE          RMSdq      gap      omega  full diag
   1    -45.1316480 -0.451316E+02  0.677E-02    2.59       0.0  T
   2    -45.1316486 -0.571399E-06  0.395E-02    2.59       1.0  T
   3    -45.1316475  0.108665E-05  0.706E-03    2.59       2.9  T
   4    -45.1316489 -0.137767E-05  0.177E-03    2.59      11.5  T
   5    -45.1316489 -0.171622E-07  0.130E-03    2.59      15.7  T
   6    -45.1316489 -0.103287E-07  0.823E-04    2.59      24.8  T
   7    -45.1316489 -0.456940E-08  0.608E-04    2.59      33.6  T
     SCC iter.                  ...        0 min,  0.006 sec
     gradient                   ...        0 min,  0.003 sec
 * total energy  :   -44.5838993 Eh     change       -0.4472347E-04 Eh
   gradient norm :     0.0029077 Eh/α   predicted    -0.2149853E-04 ( -51.93%)
   displ. norm   :     0.0713993 α      lambda       -0.2112547E-04
   maximum displ.:     0.0532035 α      in ANC's #3, #2, #1, ...

........................................................................
.............................. CYCLE    9 ..............................
........................................................................

 iter      E             dE          RMSdq      gap      omega  full diag
   1    -45.1316561 -0.451317E+02  0.285E-02    2.59       0.0  T
   2    -45.1316562 -0.110927E-06  0.167E-02    2.59       1.2  T
   3    -45.1316560  0.205661E-06  0.308E-03    2.59       6.6  T
   4    -45.1316563 -0.257450E-06  0.713E-04    2.59      28.6  T
   5    -45.1316563 -0.391648E-08  0.524E-04    2.59      39.0  T
     SCC iter.                  ...        0 min,  0.005 sec
     gradient                   ...        0 min,  0.003 sec
 * total energy  :   -44.5839177 Eh     change       -0.1842741E-04 Eh
   gradient norm :     0.0021979 Eh/α   predicted    -0.1062307E-04 ( -42.35%)
   displ. norm   :     0.0941631 α      lambda       -0.2579438E-04
   maximum displ.:     0.0674316 α      in ANC's #3, #2, #4, ...

........................................................................
.............................. CYCLE   10 ..............................
........................................................................

 iter      E             dE          RMSdq      gap      omega  full diag
   1    -45.1315579 -0.451316E+02  0.384E-02    2.60       0.0  T
   2    -45.1315582 -0.266822E-06  0.225E-02    2.60       1.0  T
   3    -45.1315578  0.361558E-06  0.432E-03    2.60       4.7  T
   4    -45.1315583 -0.459504E-06  0.110E-03    2.60      18.6  T
   5    -45.1315583 -0.125459E-07  0.772E-04    2.60      26.4  T
   6    -45.1315583 -0.266249E-08  0.454E-04    2.60      45.0  T
     SCC iter.                  ...        0 min,  0.007 sec
     gradient                   ...        0 min,  0.003 sec
 * total energy  :   -44.5839371 Eh     change       -0.1940948E-04 Eh
   gradient norm :     0.0008056 Eh/α   predicted    -0.1301433E-04 ( -32.95%)
   displ. norm   :     0.1142288 α      lambda       -0.1117275E-04
   maximum displ.:     0.0802458 α      in ANC's #3, #2, #4, ...

........................................................................
.............................. CYCLE   11 ..............................
........................................................................

 iter      E             dE          RMSdq      gap      omega  full diag
   1    -45.1312871 -0.451313E+02  0.467E-02    2.60       0.0  T
   2    -45.1312875 -0.351212E-06  0.273E-02    2.60       1.0  T
   3    -45.1312867  0.764525E-06  0.587E-03    2.60       3.5  T
   4    -45.1312877 -0.937955E-06  0.125E-03    2.60      16.3  T
   5    -45.1312877 -0.116846E-07  0.917E-04    2.60      22.3  T
   6    -45.1312877 -0.367110E-08  0.539E-04    2.60      37.9  T
     SCC iter.                  ...        0 min,  0.005 sec
     gradient                   ...        0 min,  0.003 sec
 * total energy  :   -44.5839450 Eh     change       -0.7931157E-05 Eh
   gradient norm :     0.0009498 Eh/α   predicted    -0.5621457E-05 ( -29.12%)
   displ. norm   :     0.0069098 α      lambda       -0.1104510E-05
   maximum displ.:     0.0044178 α      in ANC's #1, #4, #2, ...

........................................................................
.............................. CYCLE   12 ..............................
........................................................................

 iter      E             dE          RMSdq      gap      omega  full diag
   1    -45.1314736 -0.451315E+02  0.354E-03    2.60       0.0  T
   2    -45.1314736 -0.997619E-08  0.208E-03    2.60       9.8  T
   3    -45.1314736  0.921743E-08  0.937E-04    2.60      21.8  T
   4    -45.1314736 -0.137417E-07  0.190E-04    2.60     107.2  T
     SCC iter.                  ...        0 min,  0.004 sec
     gradient                   ...        0 min,  0.003 sec
 * total energy  :   -44.5839463 Eh     change       -0.1244189E-05 Eh
   gradient norm :     0.0004391 Eh/α   predicted    -0.5533329E-06 ( -55.53%)
   displ. norm   :     0.0177525 α      lambda       -0.9018220E-06
   maximum displ.:     0.0118425 α      in ANC's #2, #1, #3, ...

   *** GEOMETRY OPTIMIZATION CONVERGED AFTER 12 ITERATIONS ***

------------------------------------------------------------------------
 total energy gain   :        -0.0067866 Eh       -4.2587 kcal/mol
 total RMSD          :         0.2028705 a0        0.1074 Å
 total power (kW/mol):        -1.4848596 (step) -144.9597 (real)
------------------------------------------------------------------------

 ANCopt (total)                0 d,  0 h,  0 min,  0.123 sec
 optimizer setup                ...        0 min,  0.000 sec (  0.067%)
 model hessian                  ...        0 min,  0.005 sec (  3.844%)
 ANC generation                 ...        0 min,  0.000 sec (  0.326%)
 coordinate transformation      ...        0 min,  0.000 sec (  0.086%)
 single point calculation       ...        0 min,  0.115 sec ( 93.803%)
 optimization log               ...        0 min,  0.001 sec (  0.713%)
 hessian update                 ...        0 min,  0.000 sec (  0.142%)
 rational function              ...        0 min,  0.001 sec (  0.657%)

================
 final structure:
================
24
 xtb: 6.7.1 (edcfbbe)
Cl          -2.84279557669746        0.45383714217096       -0.21252884801525
C           -1.26967301363855       -0.21932623190906       -0.10765993226621
C           -1.06771317468702       -1.56970036658141       -0.36925607926621
C            0.20566952209128       -2.09642447031048       -0.27936159180887
C            1.29485264683213       -1.30535894538657        0.07016528696719
C            1.07183857637173        0.04741545510843        0.32519062916806
C           -0.19791531939128        0.59228329477630        0.24312025543142
Cl           2.38071357815322        1.08544370862196        0.77400059459999
C            2.67991907902571       -1.90157852596419        0.15429862044103
N            3.37804610868643       -1.74093776392639       -1.10837350317331
C            4.14965044502693       -0.68364589022388       -1.46363391910291
C            4.55717038390307       -0.88039226707944       -2.75218620664871
N            4.01472678912833       -2.05946358464989       -3.14679968461020
C            3.30153535482357       -2.57138951613972       -2.14785557012555
O            4.14182584293057       -2.67198336566542       -4.34407807702705
H           -1.90262412971178       -2.19758054724102       -0.63336060787319
H            0.35370300641312       -3.14892552757927       -0.46839807653012
H           -0.35767212918780        1.63800620201612        0.45195151119646
H            3.25730038946035       -1.39323849050629        0.92865379382514
H            2.61505450441119       -2.96634656488859        0.38321656395123
H            4.34976854294780        0.13069687859990       -0.79620491691558
H            5.17857142151134       -0.27541514334101       -3.38197311062867
H            2.77032740387527       -3.50156510351988       -2.19700321540276
H            4.71539974772144       -2.15675037638098       -4.93680391618591

 Bond Distances (Angstroems)
 ---------------------------
Cl1-C2=1.7143        C2-Cl1=1.7143        C2-C3=1.3902         C2-C7=1.3894         C3-C2=1.3902         C3-C4=1.3810         
C3-H16=1.0775        C4-C3=1.3810         C4-C5=1.3908         C4-H17=1.0795        C5-C4=1.3908         C5-C6=1.3946         
C5-C9=1.5103         C6-C5=1.3946         C6-C7=1.3842         C6-Cl8=1.7298        C7-C2=1.3894         C7-C6=1.3842         
C7-H18=1.0783        Cl8-C6=1.7298        C9-C5=1.5103         C9-N10=1.4517        C9-H19=1.0915        C9-H20=1.0910        
N10-C9=1.4517        N10-C11=1.3563       N10-C14=1.3327       C11-N10=1.3563       C11-C12=1.3657       C11-H21=1.0718       
C12-C11=1.3657       C12-N13=1.3565       C12-H22=1.0718       N13-C12=1.3565       N13-C14=1.3299       N13-O15=1.3509       
C14-N10=1.3327       C14-N13=1.3299       C14-H23=1.0723       O15-N13=1.3509       O15-H24=0.9725       H16-C3=1.0775        
H17-C4=1.0795        H18-C7=1.0783        H19-C9=1.0915        H20-C9=1.0910        H21-C11=1.0718       H22-C12=1.0718       
H23-C14=1.0723       H24-O15=0.9725       
 C  H  Rav=1.0792 sigma=0.0075  Rmin=1.0718  Rmax=1.0915     8
 C  C  Rav=1.4008 sigma=0.0422  Rmin=1.3657  Rmax=1.5103     8
 N  C  Rav=1.3654 sigma=0.0446  Rmin=1.3299  Rmax=1.4517     5
 O  H  Rav=0.9725 sigma=0.0000  Rmin=0.9725  Rmax=0.9725     1
 O  N  Rav=1.3509 sigma=0.0000  Rmin=1.3509  Rmax=1.3509     1
 Cl C  Rav=1.7220 sigma=0.0077  Rmin=1.7143  Rmax=1.7298     2

 selected bond angles (degree)
 --------------------
C3-C2-Cl1=120.21               C7-C2-Cl1=119.60               C7-C2-C3=120.19                C4-C3-C2=119.48                
H16-C3-C2=119.97               H16-C3-C4=120.54               C5-C4-C3=121.44                H17-C4-C3=119.14               
H17-C4-C5=119.42               C6-C5-C4=118.19                C9-C5-C4=120.51                C9-C5-C6=121.29                
C7-C6-C5=121.18                Cl8-C6-C5=120.57               Cl8-C6-C7=118.25               C6-C7-C2=119.51                
H18-C7-C2=120.07               H18-C7-C6=120.41               N10-C9-C5=110.42               H19-C9-C5=109.92               
H19-C9-N10=108.13              H20-C9-C5=110.03               H20-C9-N10=108.61              H20-C9-H19=109.70              
C11-N10-C9=125.99              C14-N10-C9=125.58              C14-N10-C11=108.31             

 selected dihedral angles (degree)
 ---------------------------------
C4-C3-C2-Cl1=180.05           C4-C3-C2-C7=359.91            H16-C3-C2-Cl1=359.65          H16-C3-C2-C7=179.51           
C5-C4-C3-C2=  0.11            C5-C4-C3-H16=180.51           H17-C4-C3-C2=179.04           H17-C4-C3-H16=359.44          
C6-C5-C4-C3=359.73            C6-C5-C4-H17=180.80           C9-C5-C4-C3=180.36            C9-C5-C4-H17=  1.43           
C7-C6-C5-C4=  0.42            C7-C6-C5-C9=179.79            Cl8-C6-C5-C4=179.63           Cl8-C6-C5-C9=358.99           
C6-C7-C2-Cl1=180.10           C6-C7-C2-C3=  0.24            H18-C7-C2-Cl1=  0.27          H18-C7-C2-C3=180.40           
C2-C7-C6-C5=359.59            C2-C7-C6-Cl8=180.36           H18-C7-C6-C5=179.42           H18-C7-C6-Cl8=  0.20          
N10-C9-C5-C4= 93.11           N10-C9-C5-C6=273.77           H19-C9-C5-C4=212.33           H19-C9-C5-C6= 32.98           
H20-C9-C5-C4=333.24           H20-C9-C5-C6=153.89           C11-N10-C9-C5= 89.57          C11-N10-C9-H19=329.28         
C11-N10-C9-H20=210.30         C14-N10-C9-C5=274.00          C14-N10-C9-H19=153.70         C14-N10-C9-H20= 34.72         
           -------------------------------------------------
          |                Final Singlepoint                |
           -------------------------------------------------

          ...................................................
          :                      SETUP                      :
          :.................................................:
          :  # basis functions                  81          :
          :  # atomic orbitals                  79          :
          :  # shells                           41          :
          :  # electrons                        78          :
          :  max. iterations                   250          :
          :  Hamiltonian                  GFN2-xTB          :
          :  restarted?                      false          :
          :  GBSA solvation                  false          :
          :  PC potential                    false          :
          :  electronic temp.          300.0000000     K    :
          :  accuracy                    1.0000000          :
          :  -> integral cutoff          0.2500000E+02      :
          :  -> integral neglect         0.1000000E-07      :
          :  -> SCF convergence          0.1000000E-05 Eh   :
          :  -> wf. convergence          0.1000000E-03 e    :
          :  Broyden damping             0.4000000          :
          :  net charge                          1          :
          :  unpaired electrons                  0          :
          ...................................................

 iter      E             dE          RMSdq      gap      omega  full diag
   1    -45.1314736 -0.451315E+02  0.137E-04    2.60       0.0  T
   2    -45.1314736 -0.604317E-10  0.113E-04    2.60     181.3  T
   3    -45.1314736 -0.383693E-10  0.859E-05    2.60     237.6  T

   *** convergence criteria satisfied after 3 iterations ***

         #    Occupation            Energy/Eh            Energy/eV
      -------------------------------------------------------------
         1        2.0000           -1.1780096             -32.0553
       ...           ...                  ...                  ...
        33        2.0000           -0.5783340             -15.7373
        34        2.0000           -0.5694149             -15.4946
        35        2.0000           -0.5638040             -15.3419
        36        2.0000           -0.5439228             -14.8009
        37        2.0000           -0.5276667             -14.3585
        38        2.0000           -0.5205130             -14.1639
        39        2.0000           -0.5107790             -13.8990 (HOMO)
        40                         -0.4151956             -11.2980 (LUMO)
        41                         -0.3827581             -10.4154
        42                         -0.3704131             -10.0795
        43                         -0.3656622              -9.9502
        44                         -0.2682156              -7.2985
       ...                                ...                  ...
        79                          0.4956468              13.4872
      -------------------------------------------------------------
                  HL-Gap            0.0955835 Eh            2.6010 eV
             Fermi-level           -0.4629873 Eh          -12.5985 eV

 SCC (total)                   0 d,  0 h,  0 min,  0.007 sec
 SCC setup                      ...        0 min,  0.000 sec (  1.038%)
 Dispersion                     ...        0 min,  0.000 sec (  1.301%)
 classical contributions        ...        0 min,  0.000 sec (  0.235%)
 integral evaluation            ...        0 min,  0.001 sec ( 15.198%)
 iterations                     ...        0 min,  0.003 sec ( 40.647%)
 molecular gradient             ...        0 min,  0.003 sec ( 40.139%)
 printout                       ...        0 min,  0.000 sec (  1.225%)

         :::::::::::::::::::::::::::::::::::::::::::::::::::::
         ::                     SUMMARY                     ::
         :::::::::::::::::::::::::::::::::::::::::::::::::::::
         :: total energy             -44.583946284461 Eh    ::
         :: gradient norm              0.000440312542 Eh/a0 ::
         :: HOMO-LUMO gap              2.600958804401 eV    ::
         ::.................................................::
         :: SCC energy               -45.131266094403 Eh    ::
         :: -> isotropic ES            0.105191166077 Eh    ::
         :: -> anisotropic ES         -0.014790920995 Eh    ::
         :: -> anisotropic XC          0.014438953150 Eh    ::
         :: -> dispersion             -0.025396996170 Eh    ::
         :: repulsion energy           0.547319809942 Eh    ::
         :: add. restraining           0.000000000000 Eh    ::
         :: total charge               1.000000000000 e     ::
         :::::::::::::::::::::::::::::::::::::::::::::::::::::

           -------------------------------------------------
          |                Property Printout                |
           -------------------------------------------------

    * Orbital Energies and Occupations

         #    Occupation            Energy/Eh            Energy/eV
      -------------------------------------------------------------
         1        2.0000           -1.1780096             -32.0553
       ...           ...                  ...                  ...
        27        2.0000           -0.6253566             -17.0168
        28        2.0000           -0.6246865             -16.9986
        29        2.0000           -0.6194105             -16.8550
        30        2.0000           -0.6080318             -16.5454
        31        2.0000           -0.5972309             -16.2515
        32        2.0000           -0.5860124             -15.9462
        33        2.0000           -0.5783340             -15.7373
        34        2.0000           -0.5694149             -15.4946
        35        2.0000           -0.5638040             -15.3419
        36        2.0000           -0.5439228             -14.8009
        37        2.0000           -0.5276667             -14.3585
        38        2.0000           -0.5205130             -14.1639
        39        2.0000           -0.5107790             -13.8990 (HOMO)
        40                         -0.4151956             -11.2980 (LUMO)
        41                         -0.3827581             -10.4154
        42                         -0.3704131             -10.0795
        43                         -0.3656622              -9.9502
        44                         -0.2682156              -7.2985
        45                         -0.2602904              -7.0829
        46                         -0.2432245              -6.6185
        47                         -0.2291684              -6.2360
        48                         -0.1478542              -4.0233
        49                         -0.1109275              -3.0185
        50                         -0.1065011              -2.8980
       ...                                ...                  ...
        79                          0.4956468              13.4872
      -------------------------------------------------------------
                  HL-Gap            0.0955835 Eh            2.6010 eV
             Fermi-level           -0.4629873 Eh          -12.5985 eV

     #   Z          covCN         q      C6AA      α(0)
     1  17 Cl       0.971    -0.101   102.311    15.475
     2   6 C        2.887     0.110    25.570     8.290
     3   6 C        2.952    -0.039    28.958     8.826
     4   6 C        2.926    -0.033    28.830     8.805
     5   6 C        2.997    -0.013    28.327     8.731
     6   6 C        2.890     0.093    25.935     8.349
     7   6 C        3.000    -0.046    29.136     8.854
     8  17 Cl       0.967    -0.145   103.693    15.579
     9   6 C        3.747    -0.039    21.332     6.588
    10   7 N        2.875     0.083    19.805     6.610
    11   6 C        3.082    -0.006    28.087     8.688
    12   6 C        3.047    -0.034    28.794     8.801
    13   7 N        2.900     0.221    17.630     6.236
    14   6 C        3.073     0.028    27.306     8.568
    15   8 O        1.724    -0.299    18.972     5.881
    16   1 H        0.926     0.091     1.867     2.137
    17   1 H        0.926     0.068     2.102     2.267
    18   1 H        0.926     0.096     1.818     2.109
    19   1 H        0.924     0.117     1.641     2.003
    20   1 H        0.924     0.101     1.779     2.086
    21   1 H        0.926     0.133     1.509     1.921
    22   1 H        0.926     0.117     1.641     2.003
    23   1 H        0.926     0.137     1.482     1.904
    24   1 H        0.804     0.361     0.563     1.179

 Mol. C6AA /au·bohr⁶  :       9325.336218
 Mol. C8AA /au·bohr⁸  :     260318.417276
 Mol. α(0) /au        :        151.889659


Wiberg/Mayer (AO) data.
largest (>0.10) Wiberg bond orders for each atom

 ---------------------------------------------------------------------------
     #   Z sym  total        # sym  WBO       # sym  WBO       # sym  WBO
 ---------------------------------------------------------------------------
     1  17 Cl   1.191 --     2 C    1.031
     2   6 C    3.934 --     7 C    1.388     3 C    1.381     1 Cl   1.031
     3   6 C    3.984 --     4 C    1.453     2 C    1.381    16 H    0.962
     4   6 C    3.988 --     3 C    1.453     5 C    1.403    17 H    0.964
                             7 C    0.101
     5   6 C    3.977 --     4 C    1.403     6 C    1.365     9 C    0.986
     6   6 C    3.925 --     7 C    1.418     5 C    1.365     8 Cl   0.987
     7   6 C    3.983 --     6 C    1.418     2 C    1.388    18 H    0.960
                             4 C    0.101
     8  17 Cl   1.141 --     6 C    0.987
     9   6 C    3.931 --     5 C    0.986    20 H    0.960    10 N    0.955
                            19 H    0.953
    10   7 N    3.721 --    14 C    1.347    11 C    1.251     9 C    0.955
    11   6 C    3.944 --    12 C    1.562    10 N    1.251    21 H    0.951
    12   6 C    3.934 --    11 C    1.562    13 N    1.218    22 H    0.958
    13   7 N    3.729 --    14 C    1.339    12 C    1.218    15 O    1.033
    14   6 C    3.931 --    10 N    1.347    13 N    1.339    23 H    0.949
    15   8 O    2.046 --    13 N    1.033    24 H    0.854
    16   1 H    0.991 --     3 C    0.962
    17   1 H    0.995 --     4 C    0.964
    18   1 H    0.990 --     7 C    0.960
    19   1 H    0.985 --     9 C    0.953
    20   1 H    0.989 --     9 C    0.960
    21   1 H    0.982 --    11 C    0.951
    22   1 H    0.986 --    12 C    0.958
    23   1 H    0.981 --    14 C    0.949
    24   1 H    0.869 --    15 O    0.854
 ---------------------------------------------------------------------------

Topologies differ in total number of bonds
Writing topology from bond orders to xtbtopo.mol

molecular dipole:
                 x           y           z       tot (Debye)
 q only:        6.404      -3.513      -3.769
   full:        6.211      -2.965      -3.689      19.848
molecular quadrupole (traceless):
                xx          xy          yy          xz          yz          zz
 q only:       29.274     -28.234     -22.709     -48.025      16.422      -6.565
  q+dip:       32.429     -26.475     -23.032     -49.430      17.088      -9.397
   full:       32.783     -27.014     -24.978     -49.500      16.237      -7.805

           -------------------------------------------------
          |                Geometry Summary                 |
           -------------------------------------------------

      molecular mass/u    :      244.0975122
   center of mass at/Å    :        1.4397587      -0.7479043      -0.8026561
  moments of inertia/u·Å² :        0.6140276E+03   0.1980777E+04   0.2293725E+04
rotational constants/cm⁻¹ :        0.2745419E-01   0.8510615E-02   0.7349455E-02

 * 24 selected distances

     #   Z          #   Z                                           value/Å
     1  17 Cl       2   6 C                                       1.7143108
     2   6 C        3   6 C                                       1.3902270
     3   6 C        4   6 C                                       1.3809501
     4   6 C        5   6 C                                       1.3907818
     5   6 C        6   6 C                                       1.3945509
     2   6 C        7   6 C                                       1.3893962
     6   6 C        7   6 C                                       1.3841574
     6   6 C        8  17 Cl                                      1.7297651 (max)
     9   6 C       10   7 N                                       1.4517328
    10   7 N       11   6 C                                       1.3562631
    11   6 C       12   6 C                                       1.3657046
    12   6 C       13   7 N                                       1.3565303
    10   7 N       14   6 C                                       1.3326767
    13   7 N       14   6 C                                       1.3298872
    13   7 N       15   8 O                                       1.3508555
     3   6 C       16   1 H                                       1.0775255
     4   6 C       17   1 H                                       1.0795404
     7   6 C       18   1 H                                       1.0782715
     9   6 C       19   1 H                                       1.0915150
     9   6 C       20   1 H                                       1.0910280
    11   6 C       21   1 H                                       1.0717570
    12   6 C       22   1 H                                       1.0718061
    14   6 C       23   1 H                                       1.0722986
    15   8 O       24   1 H                                       0.9725102 (min)

 * 6 distinct bonds (by element types)

   Z      Z             #   av. dist./Å        max./Å        min./Å
   1 H    6 C           8     1.0792177     1.0915150     1.0717570
   6 C    6 C           7     1.3851097     1.3945509     1.3657046
   6 C    7 N           5     1.3654180     1.4517328     1.3298872
   1 H    8 O           1     0.9725102     0.9725102     0.9725102
   7 N    8 O           1     1.3508555     1.3508555     1.3508555
   6 C   17 Cl          2     1.7220380     1.7297651     1.7143108


optimized geometry written to: xtbopt.xyz


           -------------------------------------------------
          | TOTAL ENERGY              -44.583946284461 Eh   |
          | GRADIENT NORM               0.000440312542 Eh/α |
          | HOMO-LUMO GAP               2.600958804401 eV   |
           -------------------------------------------------

------------------------------------------------------------------------
 * finished run on 2024/12/20 at 06:42:18.035     
------------------------------------------------------------------------
 total:
 * wall-time:     0 d,  0 h,  0 min,  0.168 sec
 *  cpu-time:     0 d,  0 h,  0 min,  1.325 sec
 * ratio c/w:     7.885 speedup
 SCF:
 * wall-time:     0 d,  0 h,  0 min,  0.022 sec
 *  cpu-time:     0 d,  0 h,  0 min,  0.171 sec
 * ratio c/w:     7.921 speedup
 ANC optimizer:
 * wall-time:     0 d,  0 h,  0 min,  0.130 sec
 *  cpu-time:     0 d,  0 h,  0 min,  1.038 sec
 * ratio c/w:     7.961 speedup

