      -----------------------------------------------------------      
     |                   =====================                   |     
     |                           x T B                           |     
     |                   =====================                   |     
     |                         S. Grimme                         |     
     |          Mulliken Center for Theoretical Chemistry        |     
     |                    University of Bonn                     |     
      -----------------------------------------------------------      

   * xtb version 6.7.1 (edcfbbe) compiled by 'conda@3ef47c1a292c' on 2024-11-25

   xtb is free software: you can redistribute it and/or modify it under
   the terms of the GNU Lesser General Public License as published by
   the Free Software Foundation, either version 3 of the License, or
   (at your option) any later version.
   
   xtb is distributed in the hope that it will be useful,
   but WITHOUT ANY WARRANTY; without even the implied warranty of
   MERCHANTABILITY or FITNESS FOR A PARTICULAR PURPOSE.  See the
   GNU Lesser General Public License for more details.
   
   Cite this work as:
   * C. Bannwarth, E. Caldeweyher, S. Ehlert, A. Hansen, P. Pracht,
     J. Seibert, S. Spicher, S. Grimme, WIREs Comput. Mol. Sci., 2020, 11,
     e01493. DOI: 10.1002/wcms.1493
   
   for GFN2-xTB:
   * C. Bannwarth, S. Ehlert and S. Grimme., J. Chem. Theory Comput., 2019,
     15, 1652-1671. DOI: 10.1021/acs.jctc.8b01176
   for GFN1-xTB:
   * S. Grimme, C. Bannwarth, P. Shushkov, J. Chem. Theory Comput., 2017,
     13, 1989-2009. DOI: 10.1021/acs.jctc.7b00118
   for GFN0-xTB:
   * P. Pracht, E. Caldeweyher, S. Ehlert, S. Grimme, ChemRxiv, 2019, preprint.
     DOI: 10.26434/chemrxiv.8326202.v1
   for GFN-FF:
   * S. Spicher and S. Grimme, Angew. Chem. Int. Ed., 2020, 59, 15665-15673.
     DOI: 10.1002/anie.202004239
   
   for ALPB and GBSA implicit solvation:
   * S. Ehlert, M. Stahn, S. Spicher, S. Grimme, J. Chem. Theory Comput.,
     2021, 17, 4250-4261. DOI: 10.1021/acs.jctc.1c00471
   
   for ddCOSMO and CPCM-X implicit solvation:
   * M. Stahn, S. Ehlert, S. Grimme, J. Phys. Chem. A,
     2023, XX, XXXX-XXXX. DOI: 10.1021/acs.jpca.3c04382
   
   for DFT-D4:
   * E. Caldeweyher, C. Bannwarth and S. Grimme, J. Chem. Phys., 2017,
     147, 034112. DOI: 10.1063/1.4993215
   * E. Caldeweyher, S. Ehlert, A. Hansen, H. Neugebauer, S. Spicher,
     C. Bannwarth and S. Grimme, J. Chem. Phys., 2019, 150, 154122.
     DOI: 10.1063/1.5090222
   * E. Caldeweyher, J.-M. Mewes, S. Ehlert and S. Grimme, Phys. Chem. Chem. Phys.
     2020, 22, 8499-8512. DOI: 10.1039/D0CP00502A
   
   for sTDA-xTB:
   * S. Grimme and C. Bannwarth, J. Chem. Phys., 2016, 145, 054103.
     DOI: 10.1063/1.4959605
   
   in the mass-spec context:
   * V. Asgeirsson, C. Bauer and S. Grimme, Chem. Sci., 2017, 8, 4879.
     DOI: 10.1039/c7sc00601b
   * J. Koopman and S. Grimme, ACS Omega 2019, 4, 12, 15120-15133.
     DOI: 10.1021/acsomega.9b02011
   
   for metadynamics refer to:
   * S. Grimme, J. Chem. Theory Comput., 2019, 155, 2847-2862
     DOI: 10.1021/acs.jctc.9b00143
   
   for SPH calculations refer to:
   * S. Spicher and S. Grimme, J. Chem. Theory Comput., 2021, 17, 1701-1714
     DOI: 10.1021/acs.jctc.0c01306
   
   for ONIOM refer to:
   * C. Plett, A. Katbashev, S. Ehlert, S. Grimme, M. Bursch,
     Phys. Chem. Chem. Phys., 2023, 25, 17860-17868. DOI: 10.1039/D3CP02178E
   
   for DIPRO refer to:
   * J. Kohn, N. Gildemeister, S. Grimme, D. Fazzi, A. Hansen,
     J. Chem. Phys., 2023, just accepted.
   
   for PTB refer to:
   * S. Grimme, M. Mueller, A. Hansen, J. Chem. Phys., 2023, 158, 124111.
     DOI: 10.1063/5.0137838
   
   with help from (in alphabetical order)
   P. Atkinson, C. Bannwarth, F. Bohle, G. Brandenburg, E. Caldeweyher
   M. Checinski, S. Dohm, S. Ehlert, S. Ehrlich, I. Gerasimov, C. Hölzer
   A. Katbashev, J. Kohn, J. Koopman, C. Lavigne, S. Lehtola, F. März, M. Müller,
   F. Musil, H. Neugebauer, J. Pisarek, C. Plett, P. Pracht, F. Pultar,
   J. Seibert, P. Shushkov, S. Spicher, M. Stahn, M. Steiner, T. Strunk,
   J. Stückrath, T. Rose, and J. Unsleber
   
 * started run on 2024/12/20 at 06:42:38.523     
   ID    Z sym.   atoms
    1    6 C      1, 3, 5, 7, 9-11, 14-21, 24
    2    8 O      2, 4, 12, 22, 23
    3    7 N      6, 8, 13
    4    1 H      25-42

           -------------------------------------------------
          |                Calculation Setup                |
           -------------------------------------------------

          program call               : xtb C0376.xyz --opt --namespace C0376 --charge +1
          calculation namespace      : C0376
          coordinate file            : C0376.xyz
          omp threads                :                     8


           -------------------------------------------------
          |                 G F N 2 - x T B                 |
           -------------------------------------------------

        Reference                      10.1021/acs.jctc.8b01176
      * Hamiltonian:
        H0-scaling (s, p, d)           1.850000    2.230000    2.230000
        zeta-weighting                 0.500000
      * Dispersion:
        s8                             2.700000
        a1                             0.520000
        a2                             5.000000
        s9                             5.000000
      * Repulsion:
        kExp                           1.500000    1.000000
        rExp                           1.000000
      * Coulomb:
        alpha                          2.000000
        third order                    shell-resolved
        anisotropic                    true
        a3                             3.000000
        a5                             4.000000
        cn-shift                       1.200000
        cn-exp                         4.000000
        max-rad                        5.000000


          ...................................................
          :                      SETUP                      :
          :.................................................:
          :  # basis functions                 114          :
          :  # atomic orbitals                 114          :
          :  # shells                           66          :
          :  # electrons                       126          :
          :  max. iterations                   250          :
          :  Hamiltonian                  GFN2-xTB          :
          :  restarted?                      false          :
          :  GBSA solvation                  false          :
          :  PC potential                    false          :
          :  electronic temp.          300.0000000     K    :
          :  accuracy                    1.0000000          :
          :  -> integral cutoff          0.2500000E+02      :
          :  -> integral neglect         0.1000000E-07      :
          :  -> SCF convergence          0.1000000E-05 Eh   :
          :  -> wf. convergence          0.1000000E-03 e    :
          :  Broyden damping             0.4000000          :
          :  net charge                          1          :
          :  unpaired electrons                  0          :
          ...................................................

 iter      E             dE          RMSdq      gap      omega  full diag
   1    -72.7977588 -0.727978E+02  0.471E+00    2.91       0.0  T
   2    -72.9978980 -0.200139E+00  0.272E+00    2.49       1.0  T
   3    -73.0100146 -0.121166E-01  0.148E+00    1.99       1.0  T
   4    -73.0150217 -0.500706E-02  0.363E-01    1.84       1.0  T
   5    -73.0189361 -0.391447E-02  0.114E-01    1.88       1.0  T
   6    -73.0191322 -0.196086E-03  0.590E-02    1.90       1.0  T
   7    -73.0191698 -0.375597E-04  0.267E-02    1.90       1.0  T
   8    -73.0191747 -0.487403E-05  0.909E-03    1.91       1.7  T
   9    -73.0191756 -0.991724E-06  0.480E-03    1.91       3.2  T
  10    -73.0191760 -0.321717E-06  0.170E-03    1.91       9.1  T
  11    -73.0191760 -0.187138E-07  0.721E-04    1.91      21.4  T
  12    -73.0191760 -0.306100E-08  0.266E-04    1.91      57.9  T

   *** convergence criteria satisfied after 12 iterations ***

         #    Occupation            Energy/Eh            Energy/eV
      -------------------------------------------------------------
         1        2.0000           -0.8962232             -24.3875
       ...           ...                  ...                  ...
        57        2.0000           -0.5543649             -15.0850
        58        2.0000           -0.5479275             -14.9099
        59        2.0000           -0.5436866             -14.7945
        60        2.0000           -0.5383912             -14.6504
        61        2.0000           -0.5326582             -14.4944
        62        2.0000           -0.5163837             -14.0515
        63        2.0000           -0.4988202             -13.5736 (HOMO)
        64                         -0.4286244             -11.6635 (LUMO)
        65                         -0.4131122             -11.2414
        66                         -0.3892127             -10.5910
        67                         -0.3626914              -9.8693
        68                         -0.3395675              -9.2401
       ...                                ...                  ...
       114                          0.5288054              14.3895
      -------------------------------------------------------------
                  HL-Gap            0.0701958 Eh            1.9101 eV
             Fermi-level           -0.4637223 Eh          -12.6185 eV

 SCC (total)                   0 d,  0 h,  0 min,  0.038 sec
 SCC setup                      ...        0 min,  0.000 sec (  0.494%)
 Dispersion                     ...        0 min,  0.001 sec (  1.464%)
 classical contributions        ...        0 min,  0.000 sec (  0.178%)
 integral evaluation            ...        0 min,  0.002 sec (  6.444%)
 iterations                     ...        0 min,  0.028 sec ( 74.239%)
 molecular gradient             ...        0 min,  0.006 sec ( 16.819%)
 printout                       ...        0 min,  0.000 sec (  0.317%)

         :::::::::::::::::::::::::::::::::::::::::::::::::::::
         ::                     SUMMARY                     ::
         :::::::::::::::::::::::::::::::::::::::::::::::::::::
         :: total energy             -72.170347545177 Eh    ::
         :: gradient norm              0.138858743933 Eh/a0 ::
         :: HOMO-LUMO gap              1.910125590785 eV    ::
         ::.................................................::
         :: SCC energy               -73.018768084738 Eh    ::
         :: -> isotropic ES            0.188129788116 Eh    ::
         :: -> anisotropic ES         -0.006080344060 Eh    ::
         :: -> anisotropic XC          0.024048526310 Eh    ::
         :: -> dispersion             -0.041100365814 Eh    ::
         :: repulsion energy           0.848420539561 Eh    ::
         :: add. restraining           0.000000000000 Eh    ::
         :: total charge               1.000000000000 e     ::
         :::::::::::::::::::::::::::::::::::::::::::::::::::::

      ----------------------------------------------------------- 
     |                   =====================                   |
     |                        A N C O P T                        |
     |                   =====================                   |
     |               Approximate Normal Coordinate               |
     |                Rational Function Optimizer                |
      ----------------------------------------------------------- 
      ----------------------------------------------------------- 
     |                   =====================                   |
     |                        A N C O P T                        |
     |                   =====================                   |
     |               Approximate Normal Coordinate               |
     |                Rational Function Optimizer                |
      ----------------------------------------------------------- 

          ...................................................
          :                      SETUP                      :
          :.................................................:
          :   optimization level            normal          :
          :   max. optcycles                   200          :
          :   ANC micro-cycles                  20          :
          :   degrees of freedom               120          :
          :.................................................:
          :   RF solver                   davidson          :
          :   write xtbopt.log                true          :
          :   linear?                        false          :
          :   energy convergence         0.5000000E-05 Eh   :
          :   grad. convergence          0.1000000E-02 Eh/α :
          :   maxmium RF displ.          1.0000000          :
          :   Hlow (freq-cutoff)         0.1000000E-01      :
          :   Hmax (freq-cutoff)         5.0000000          :
          :   S6 in model hess.         20.0000000          :
          ...................................................

generating ANC from exact Hessian ...
Using Lindh-Hessian (1995)
 Shifting diagonal of input Hessian by    9.7037420710106570E-003
 Lowest  eigenvalues of input Hessian
    0.000000    0.000000    0.000000    0.000000    0.000000    0.000000
    0.010000    0.010055    0.010122    0.010308    0.010805    0.011093
    0.011837    0.012631    0.013294    0.014675    0.014915    0.016016
 Highest eigenvalues
    2.015561    2.065446    2.111544    2.226833    2.239995    2.327837


........................................................................
.............................. CYCLE    1 ..............................
........................................................................

 iter      E             dE          RMSdq      gap      omega  full diag
   1    -73.0191760 -0.730192E+02  0.124E-04    1.91       0.0  T
   2    -73.0191760 -0.135586E-09  0.783E-05    1.91     197.1  T
   3    -73.0191760 -0.746070E-10  0.505E-05    1.91     305.5  T
     SCC iter.                  ...        0 min,  0.006 sec
     gradient                   ...        0 min,  0.006 sec
 * total energy  :   -72.1703475 Eh     change       -0.1035502E-08 Eh
   gradient norm :     0.1388607 Eh/α   predicted     0.0000000E+00 (-100.00%)
   displ. norm   :     0.2758961 α      lambda       -0.2014785E-01
   maximum displ.:     0.0774303 α      in ANC's #15, #82, #44, ...

........................................................................
.............................. CYCLE    2 ..............................
........................................................................

 iter      E             dE          RMSdq      gap      omega  full diag
   1    -73.0817550 -0.730818E+02  0.216E-01    2.12       0.0  T
   2    -73.0821702 -0.415195E-03  0.122E-01    2.12       1.0  T
   3    -73.0822154 -0.452600E-04  0.674E-02    2.12       1.0  T
   4    -73.0822320 -0.166003E-04  0.133E-02    2.12       1.2  T
   5    -73.0822378 -0.578506E-05  0.528E-03    2.12       2.9  T
   6    -73.0822383 -0.503907E-06  0.274E-03    2.12       5.6  T
   7    -73.0822384 -0.712283E-07  0.897E-04    2.12      17.2  T
   8    -73.0822384 -0.440065E-08  0.456E-04    2.12      33.9  T
     SCC iter.                  ...        0 min,  0.014 sec
     gradient                   ...        0 min,  0.006 sec
 * total energy  :   -72.1844290 Eh     change       -0.1408149E-01 Eh
   gradient norm :     0.0604377 Eh/α   predicted    -0.1084822E-01 ( -22.96%)
   displ. norm   :     0.3055952 α      lambda       -0.7403082E-02
   maximum displ.:     0.1263182 α      in ANC's #15, #22, #25, ...

........................................................................
.............................. CYCLE    3 ..............................
........................................................................

 iter      E             dE          RMSdq      gap      omega  full diag
   1    -73.1134621 -0.731135E+02  0.170E-01    2.31       0.0  T
   2    -73.1137228 -0.260633E-03  0.921E-02    2.33       1.0  T
   3    -73.1137410 -0.182384E-04  0.504E-02    2.33       1.0  T
   4    -73.1137471 -0.610948E-05  0.111E-02    2.34       1.4  T
   5    -73.1137515 -0.439832E-05  0.334E-03    2.34       4.6  T
   6    -73.1137517 -0.227612E-06  0.163E-03    2.34       9.5  T
   7    -73.1137518 -0.234615E-07  0.533E-04    2.34      29.0  T
   8    -73.1137518 -0.250643E-08  0.263E-04    2.34      58.6  T
     SCC iter.                  ...        0 min,  0.014 sec
     gradient                   ...        0 min,  0.006 sec
 * total energy  :   -72.1888990 Eh     change       -0.4469936E-02 Eh
   gradient norm :     0.0224616 Eh/α   predicted    -0.4051311E-02 (  -9.37%)
   displ. norm   :     0.2354160 α      lambda       -0.1472560E-02
   maximum displ.:     0.1088512 α      in ANC's #15, #22, #6, ...

........................................................................
.............................. CYCLE    4 ..............................
........................................................................

 iter      E             dE          RMSdq      gap      omega  full diag
   1    -73.1144821 -0.731145E+02  0.749E-02    2.41       0.0  T
   2    -73.1145325 -0.503925E-04  0.425E-02    2.44       1.0  T
   3    -73.1145347 -0.213987E-05  0.218E-02    2.43       1.0  T
   4    -73.1145352 -0.531219E-06  0.557E-03    2.44       2.8  T
   5    -73.1145364 -0.114586E-05  0.150E-03    2.44      10.3  T
   6    -73.1145364 -0.358674E-07  0.721E-04    2.44      21.4  T
   7    -73.1145364 -0.204103E-08  0.262E-04    2.44      58.8  T
     SCC iter.                  ...        0 min,  0.012 sec
     gradient                   ...        0 min,  0.006 sec
 * total energy  :   -72.1899470 Eh     change       -0.1048058E-02 Eh
   gradient norm :     0.0105339 Eh/α   predicted    -0.7770974E-03 ( -25.85%)
   displ. norm   :     0.2753667 α      lambda       -0.8763891E-03
   maximum displ.:     0.1081441 α      in ANC's #15, #5, #9, ...

........................................................................
.............................. CYCLE    5 ..............................
........................................................................

 iter      E             dE          RMSdq      gap      omega  full diag
   1    -73.1116833 -0.731117E+02  0.718E-02    2.49       0.0  T
   2    -73.1117121 -0.287121E-04  0.423E-02    2.51       1.0  T
   3    -73.1117127 -0.678587E-06  0.200E-02    2.51       1.0  T
   4    -73.1117149 -0.214416E-05  0.494E-03    2.52       3.1  T
   5    -73.1117157 -0.860206E-06  0.145E-03    2.51      10.6  T
   6    -73.1117158 -0.212602E-07  0.712E-04    2.51      21.7  T
   7    -73.1117158 -0.257647E-08  0.273E-04    2.51      56.5  T
     SCC iter.                  ...        0 min,  0.014 sec
     gradient                   ...        0 min,  0.006 sec
 * total energy  :   -72.1905353 Eh     change       -0.5882940E-03 Eh
   gradient norm :     0.0097249 Eh/α   predicted    -0.4714227E-03 ( -19.87%)
   displ. norm   :     0.2324400 α      lambda       -0.4084399E-03
   maximum displ.:     0.1095774 α      in ANC's #5, #9, #10, ...

........................................................................
.............................. CYCLE    6 ..............................
........................................................................

 iter      E             dE          RMSdq      gap      omega  full diag
   1    -73.1108472 -0.731108E+02  0.586E-02    2.54       0.0  T
   2    -73.1108541 -0.693080E-05  0.347E-02    2.55       1.0  T
   3    -73.1108524  0.174923E-05  0.130E-02    2.55       1.2  T
   4    -73.1108552 -0.287529E-05  0.283E-03    2.55       5.4  T
   5    -73.1108555 -0.254167E-06  0.973E-04    2.55      15.9  T
   6    -73.1108555 -0.552161E-08  0.463E-04    2.55      33.3  T
     SCC iter.                  ...        0 min,  0.011 sec
     gradient                   ...        0 min,  0.006 sec
 * total energy  :   -72.1908429 Eh     change       -0.3075905E-03 Eh
   gradient norm :     0.0087138 Eh/α   predicted    -0.2153506E-03 ( -29.99%)
   displ. norm   :     0.3062843 α      lambda       -0.4164023E-03
   maximum displ.:     0.1670237 α      in ANC's #5, #9, #10, ...

........................................................................
.............................. CYCLE    7 ..............................
........................................................................

 iter      E             dE          RMSdq      gap      omega  full diag
   1    -73.1112927 -0.731113E+02  0.828E-02    2.58       0.0  T
   2    -73.1112982 -0.545526E-05  0.486E-02    2.58       1.0  T
   3    -73.1112952  0.300638E-05  0.127E-02    2.58       1.2  T
   4    -73.1112992 -0.404719E-05  0.281E-03    2.59       5.5  T
   5    -73.1112994 -0.192643E-06  0.120E-03    2.59      12.9  T
   6    -73.1112994 -0.674540E-08  0.573E-04    2.59      26.9  T
   7    -73.1112994 -0.214658E-08  0.179E-04    2.59      86.1  T
     SCC iter.                  ...        0 min,  0.012 sec
     gradient                   ...        0 min,  0.006 sec
 * total energy  :   -72.1911561 Eh     change       -0.3131690E-03 Eh
   gradient norm :     0.0064947 Eh/α   predicted    -0.2278629E-03 ( -27.24%)
   displ. norm   :     0.3261411 α      lambda       -0.3501767E-03
   maximum displ.:     0.1878194 α      in ANC's #5, #9, #2, ...

........................................................................
.............................. CYCLE    8 ..............................
........................................................................

 iter      E             dE          RMSdq      gap      omega  full diag
   1    -73.1126799 -0.731127E+02  0.920E-02    2.61       0.0  T
   2    -73.1126835 -0.363765E-05  0.539E-02    2.61       1.0  T
   3    -73.1126811  0.244470E-05  0.105E-02    2.61       1.5  T
   4    -73.1126844 -0.332380E-05  0.249E-03    2.61       6.2  T
   5    -73.1126845 -0.115994E-06  0.123E-03    2.61      12.6  T
   6    -73.1126845 -0.458202E-08  0.519E-04    2.61      29.7  T
   7    -73.1126845 -0.297264E-08  0.151E-04    2.61     102.2  T
     SCC iter.                  ...        0 min,  0.012 sec
     gradient                   ...        0 min,  0.006 sec
 * total energy  :   -72.1914229 Eh     change       -0.2668370E-03 Eh
   gradient norm :     0.0066514 Eh/α   predicted    -0.1937137E-03 ( -27.40%)
   displ. norm   :     0.3321122 α      lambda       -0.2900044E-03
   maximum displ.:     0.1977272 α      in ANC's #5, #9, #2, ...

........................................................................
.............................. CYCLE    9 ..............................
........................................................................

 iter      E             dE          RMSdq      gap      omega  full diag
   1    -73.1140204 -0.731140E+02  0.948E-02    2.64       0.0  T
   2    -73.1140226 -0.226956E-05  0.558E-02    2.64       1.0  T
   3    -73.1140199  0.270303E-05  0.963E-03    2.64       1.6  T
   4    -73.1140235 -0.360951E-05  0.219E-03    2.64       7.1  T
   5    -73.1140236 -0.589212E-07  0.122E-03    2.64      12.7  T
   6    -73.1140236 -0.581926E-08  0.424E-04    2.64      36.4  T
   7    -73.1140236 -0.262618E-08  0.151E-04    2.64     102.3  T
     SCC iter.                  ...        0 min,  0.012 sec
     gradient                   ...        0 min,  0.006 sec
 * total energy  :   -72.1916425 Eh     change       -0.2196284E-03 Eh
   gradient norm :     0.0064027 Eh/α   predicted    -0.1609967E-03 ( -26.70%)
   displ. norm   :     0.3125237 α      lambda       -0.2116289E-03
   maximum displ.:     0.1870691 α      in ANC's #5, #2, #1, ...

........................................................................
.............................. CYCLE   10 ..............................
........................................................................

 iter      E             dE          RMSdq      gap      omega  full diag
   1    -73.1149052 -0.731149E+02  0.844E-02    2.66       0.0  T
   2    -73.1149078 -0.255656E-05  0.497E-02    2.66       1.0  T
   3    -73.1149054  0.243257E-05  0.880E-03    2.66       1.8  T
   4    -73.1149085 -0.316458E-05  0.225E-03    2.66       6.9  T
   5    -73.1149086 -0.117652E-06  0.115E-03    2.66      13.4  T
   6    -73.1149087 -0.527979E-08  0.423E-04    2.66      36.5  T
   7    -73.1149087 -0.219256E-08  0.145E-04    2.66     106.4  T
     SCC iter.                  ...        0 min,  0.012 sec
     gradient                   ...        0 min,  0.006 sec
 * total energy  :   -72.1918003 Eh     change       -0.1577721E-03 Eh
   gradient norm :     0.0044523 Eh/α   predicted    -0.1161515E-03 ( -26.38%)
   displ. norm   :     0.2766704 α      lambda       -0.1394719E-03
   maximum displ.:     0.1656888 α      in ANC's #5, #1, #2, ...

........................................................................
.............................. CYCLE   11 ..............................
........................................................................

 iter      E             dE          RMSdq      gap      omega  full diag
   1    -73.1149278 -0.731149E+02  0.701E-02    2.68       0.0  T
   2    -73.1149300 -0.220250E-05  0.412E-02    2.68       1.0  T
   3    -73.1149286  0.144637E-05  0.719E-03    2.68       2.1  T
   4    -73.1149305 -0.193626E-05  0.206E-03    2.69       7.5  T
   5    -73.1149306 -0.114568E-06  0.103E-03    2.69      15.1  T
   6    -73.1149306 -0.445142E-08  0.398E-04    2.69      38.8  T
   7    -73.1149306 -0.208792E-08  0.125E-04    2.69     123.9  T
     SCC iter.                  ...        0 min,  0.012 sec
     gradient                   ...        0 min,  0.006 sec
 * total energy  :   -72.1919048 Eh     change       -0.1045186E-03 Eh
   gradient norm :     0.0035094 Eh/α   predicted    -0.7507462E-04 ( -28.17%)
   displ. norm   :     0.2509582 α      lambda       -0.1080764E-03
   maximum displ.:     0.1464639 α      in ANC's #5, #1, #2, ...

........................................................................
.............................. CYCLE   12 ..............................
........................................................................

 iter      E             dE          RMSdq      gap      omega  full diag
   1    -73.1152573 -0.731153E+02  0.563E-02    2.70       0.0  T
   2    -73.1152596 -0.228166E-05  0.329E-02    2.70       1.0  T
   3    -73.1152590  0.576890E-06  0.547E-03    2.70       2.8  T
   4    -73.1152598 -0.856326E-06  0.189E-03    2.70       8.2  T
   5    -73.1152600 -0.108883E-06  0.877E-04    2.70      17.6  T
   6    -73.1152600 -0.331302E-08  0.371E-04    2.70      41.5  T
     SCC iter.                  ...        0 min,  0.011 sec
     gradient                   ...        0 min,  0.006 sec
 * total energy  :   -72.1919868 Eh     change       -0.8194068E-04 Eh
   gradient norm :     0.0043888 Eh/α   predicted    -0.5744319E-04 ( -29.90%)
   displ. norm   :     0.2694988 α      lambda       -0.1042346E-03
   maximum displ.:     0.1525659 α      in ANC's #5, #1, #2, ...

........................................................................
.............................. CYCLE   13 ..............................
........................................................................

 iter      E             dE          RMSdq      gap      omega  full diag
   1    -73.1144131 -0.731144E+02  0.610E-02    2.71       0.0  T
   2    -73.1144146 -0.152739E-05  0.357E-02    2.72       1.0  T
   3    -73.1144144  0.199185E-06  0.440E-03    2.72       3.5  T
   4    -73.1144149 -0.524600E-06  0.168E-03    2.72       9.2  T
   5    -73.1144150 -0.499556E-07  0.948E-04    2.72      16.3  T
   6    -73.1144150 -0.530379E-08  0.350E-04    2.72      44.1  T
     SCC iter.                  ...        0 min,  0.011 sec
     gradient                   ...        0 min,  0.006 sec
 * total energy  :   -72.1920626 Eh     change       -0.7584681E-04 Eh
   gradient norm :     0.0058638 Eh/α   predicted    -0.5590288E-04 ( -26.30%)
   displ. norm   :     0.2605254 α      lambda       -0.1115618E-03
   maximum displ.:     0.1349598 α      in ANC's #5, #1, #2, ...

........................................................................
.............................. CYCLE   14 ..............................
........................................................................

 iter      E             dE          RMSdq      gap      omega  full diag
   1    -73.1157308 -0.731157E+02  0.573E-02    2.72       0.0  T
   2    -73.1157364 -0.564916E-05  0.334E-02    2.72       1.0  T
   3    -73.1157356  0.862402E-06  0.840E-03    2.72       1.8  T
   4    -73.1157369 -0.129839E-05  0.228E-03    2.72       6.8  T
   5    -73.1157370 -0.181082E-06  0.939E-04    2.72      16.4  T
   6    -73.1157370 -0.705870E-08  0.479E-04    2.72      32.2  T
     SCC iter.                  ...        0 min,  0.011 sec
     gradient                   ...        0 min,  0.006 sec
 * total energy  :   -72.1921308 Eh     change       -0.6813114E-04 Eh
   gradient norm :     0.0064063 Eh/α   predicted    -0.5957512E-04 ( -12.56%)
   displ. norm   :     0.1819114 α      lambda       -0.7923046E-04
   maximum displ.:     0.0915199 α      in ANC's #5, #1, #9, ...

........................................................................
.............................. CYCLE   15 ..............................
........................................................................

 iter      E             dE          RMSdq      gap      omega  full diag
   1    -73.1149786 -0.731150E+02  0.435E-02    2.72       0.0  T
   2    -73.1149805 -0.192569E-05  0.253E-02    2.72       1.0  T
   3    -73.1149802  0.307373E-06  0.491E-03    2.72       3.1  T
   4    -73.1149808 -0.539843E-06  0.143E-03    2.72      10.8  T
   5    -73.1149808 -0.462099E-07  0.749E-04    2.72      20.6  T
   6    -73.1149808 -0.432968E-08  0.406E-04    2.72      38.0  T
     SCC iter.                  ...        0 min,  0.011 sec
     gradient                   ...        0 min,  0.006 sec
 * total energy  :   -72.1921797 Eh     change       -0.4893615E-04 Eh
   gradient norm :     0.0043062 Eh/α   predicted    -0.4092815E-04 ( -16.36%)
   displ. norm   :     0.1029134 α      lambda       -0.5643588E-04
   maximum displ.:     0.0456510 α      in ANC's #7, #1, #5, ...

........................................................................
.............................. CYCLE   16 ..............................
........................................................................

 iter      E             dE          RMSdq      gap      omega  full diag
   1    -73.1156449 -0.731156E+02  0.353E-02    2.72       0.0  T
   2    -73.1156468 -0.189550E-05  0.207E-02    2.71       1.0  T
   3    -73.1156463  0.499497E-06  0.602E-03    2.71       2.6  T
   4    -73.1156470 -0.715721E-06  0.143E-03    2.71      10.8  T
   5    -73.1156471 -0.862563E-07  0.566E-04    2.71      27.2  T
   6    -73.1156471 -0.184002E-08  0.242E-04    2.71      63.9  T
     SCC iter.                  ...        0 min,  0.011 sec
     gradient                   ...        0 min,  0.006 sec
 * total energy  :   -72.1922152 Eh     change       -0.3552062E-04 Eh
   gradient norm :     0.0033548 Eh/α   predicted    -0.2851907E-04 ( -19.71%)
   displ. norm   :     0.0724425 α      lambda       -0.3938843E-04
   maximum displ.:     0.0333103 α      in ANC's #7, #4, #6, ...

........................................................................
.............................. CYCLE   17 ..............................
........................................................................

 iter      E             dE          RMSdq      gap      omega  full diag
   1    -73.1165821 -0.731166E+02  0.249E-02    2.70       0.0  T
   2    -73.1165834 -0.128984E-05  0.146E-02    2.70       1.1  T
   3    -73.1165832  0.176303E-06  0.395E-03    2.70       3.9  T
   4    -73.1165835 -0.238658E-06  0.120E-03    2.70      12.9  T
   5    -73.1165835 -0.604969E-07  0.425E-04    2.70      36.3  T
   6    -73.1165835 -0.251026E-08  0.220E-04    2.70      70.2  T
     SCC iter.                  ...        0 min,  0.011 sec
     gradient                   ...        0 min,  0.006 sec
 * total energy  :   -72.1922354 Eh     change       -0.2023330E-04 Eh
   gradient norm :     0.0029018 Eh/α   predicted    -0.1979844E-04 (  -2.15%)
   displ. norm   :     0.0904547 α      lambda       -0.2602011E-04
   maximum displ.:     0.0466770 α      in ANC's #9, #1, #7, ...

........................................................................
.............................. CYCLE   18 ..............................
........................................................................

 iter      E             dE          RMSdq      gap      omega  full diag
   1    -73.1153748 -0.731154E+02  0.275E-02    2.70       0.0  T
   2    -73.1153759 -0.103116E-05  0.160E-02    2.70       1.0  T
   3    -73.1153756  0.269825E-06  0.476E-03    2.70       3.2  T
   4    -73.1153761 -0.464900E-06  0.862E-04    2.70      17.9  T
   5    -73.1153761 -0.949302E-08  0.507E-04    2.70      30.4  T
     SCC iter.                  ...        0 min,  0.009 sec
     gradient                   ...        0 min,  0.006 sec
 * total energy  :   -72.1922493 Eh     change       -0.1389491E-04 Eh
   gradient norm :     0.0029671 Eh/α   predicted    -0.1312384E-04 (  -5.55%)
   displ. norm   :     0.0469499 α      lambda       -0.2158541E-04
   maximum displ.:     0.0297665 α      in ANC's #4, #2, #7, ...

........................................................................
.............................. CYCLE   19 ..............................
........................................................................

 iter      E             dE          RMSdq      gap      omega  full diag
   1    -73.1158790 -0.731159E+02  0.137E-02    2.70       0.0  T
   2    -73.1158793 -0.392947E-06  0.794E-03    2.70       1.9  T
   3    -73.1158793  0.658717E-07  0.257E-03    2.70       6.0  T
   4    -73.1158794 -0.966536E-07  0.670E-04    2.70      23.0  T
   5    -73.1158794 -0.179142E-07  0.223E-04    2.70      69.3  T
     SCC iter.                  ...        0 min,  0.009 sec
     gradient                   ...        0 min,  0.006 sec
 * total energy  :   -72.1922626 Eh     change       -0.1328321E-04 Eh
   gradient norm :     0.0021626 Eh/α   predicted    -0.1081840E-04 ( -18.56%)
   displ. norm   :     0.0617967 α      lambda       -0.1379275E-04
   maximum displ.:     0.0282401 α      in ANC's #1, #9, #4, ...

........................................................................
.............................. CYCLE   20 ..............................
........................................................................

 iter      E             dE          RMSdq      gap      omega  full diag
   1    -73.1157648 -0.731158E+02  0.157E-02    2.71       0.0  T
   2    -73.1157652 -0.350609E-06  0.912E-03    2.71       1.7  T
   3    -73.1157651  0.865917E-07  0.241E-03    2.71       6.4  T
   4    -73.1157652 -0.119247E-06  0.629E-04    2.71      24.5  T
   5    -73.1157652 -0.143369E-07  0.234E-04    2.71      65.9  T
     SCC iter.                  ...        0 min,  0.009 sec
     gradient                   ...        0 min,  0.006 sec
 * total energy  :   -72.1922730 Eh     change       -0.1041220E-04 Eh
   gradient norm :     0.0016024 Eh/α   predicted    -0.6925530E-05 ( -33.49%)
   displ. norm   :     0.1432552 α      lambda       -0.1488885E-04
   maximum displ.:     0.0695446 α      in ANC's #1, #9, #4, ...
 * RMSD in coord.:     0.5102416 α      energy gain  -0.2192549E-01 Eh

generating ANC from exact Hessian ...
Using Lindh-Hessian (1995)
 Shifting diagonal of input Hessian by    9.6561476782052267E-003
 Lowest  eigenvalues of input Hessian
    0.000000    0.000000    0.000000    0.000000    0.000000    0.000000
    0.010000    0.010060    0.010157    0.010324    0.010727    0.011226
    0.012058    0.012972    0.013522    0.014929    0.015218    0.016928
 Highest eigenvalues
    2.106209    2.169567    2.253602    2.431028    2.434784    2.442836


........................................................................
.............................. CYCLE   21 ..............................
........................................................................

 iter      E             dE          RMSdq      gap      omega  full diag
   1    -73.1156146 -0.731156E+02  0.365E-02    2.72       0.0  T
   2    -73.1156154 -0.844169E-06  0.213E-02    2.72       1.0  T
   3    -73.1156151  0.304998E-06  0.368E-03    2.72       4.2  T
   4    -73.1156155 -0.422132E-06  0.113E-03    2.72      13.7  T
   5    -73.1156156 -0.379288E-07  0.514E-04    2.72      30.0  T
   6    -73.1156156 -0.880902E-09  0.200E-04    2.72      77.2  T
     SCC iter.                  ...        0 min,  0.011 sec
     gradient                   ...        0 min,  0.006 sec
 * total energy  :   -72.1922872 Eh     change       -0.1411171E-04 Eh
   gradient norm :     0.0019972 Eh/α   predicted     0.0000000E+00 (-100.00%)
   displ. norm   :     0.0295103 α      lambda       -0.8001776E-05
   maximum displ.:     0.0194831 α      in ANC's #4, #10, #9, ...

........................................................................
.............................. CYCLE   22 ..............................
........................................................................

 iter      E             dE          RMSdq      gap      omega  full diag
   1    -73.1162340 -0.731162E+02  0.106E-02    2.72       0.0  T
   2    -73.1162343 -0.298297E-06  0.618E-03    2.72       2.5  T
   3    -73.1162342  0.556363E-07  0.231E-03    2.72       6.7  T
   4    -73.1162343 -0.899022E-07  0.533E-04    2.72      29.0  T
   5    -73.1162343 -0.120410E-07  0.166E-04    2.72      93.1  T
     SCC iter.                  ...        0 min,  0.009 sec
     gradient                   ...        0 min,  0.006 sec
 * total energy  :   -72.1922979 Eh     change       -0.1074521E-04 Eh
   gradient norm :     0.0006984 Eh/α   predicted    -0.4988743E-05 ( -53.57%)
   displ. norm   :     0.0617868 α      lambda       -0.1048501E-04
   maximum displ.:     0.0386851 α      in ANC's #4, #9, #10, ...

........................................................................
.............................. CYCLE   23 ..............................
........................................................................

 iter      E             dE          RMSdq      gap      omega  full diag
   1    -73.1164212 -0.731164E+02  0.175E-02    2.72       0.0  T
   2    -73.1164216 -0.312934E-06  0.103E-02    2.72       1.5  T
   3    -73.1164213  0.250036E-06  0.303E-03    2.72       5.1  T
   4    -73.1164216 -0.317572E-06  0.628E-04    2.72      24.6  T
   5    -73.1164216 -0.152149E-07  0.255E-04    2.72      60.6  T
     SCC iter.                  ...        0 min,  0.028 sec
     gradient                   ...        0 min,  0.022 sec
 * total energy  :   -72.1923095 Eh     change       -0.1159014E-04 Eh
   gradient norm :     0.0012171 Eh/α   predicted    -0.5255795E-05 ( -54.65%)
   displ. norm   :     0.0934386 α      lambda       -0.1088224E-04
   maximum displ.:     0.0566101 α      in ANC's #4, #9, #10, ...

........................................................................
.............................. CYCLE   24 ..............................
........................................................................

 iter      E             dE          RMSdq      gap      omega  full diag
   1    -73.1162497 -0.731162E+02  0.240E-02    2.72       0.0  T
   2    -73.1162499 -0.206251E-06  0.142E-02    2.71       1.1  T
   3    -73.1162497  0.251467E-06  0.261E-03    2.71       5.9  T
   4    -73.1162500 -0.319467E-06  0.613E-04    2.71      25.2  T
   5    -73.1162500 -0.789420E-08  0.322E-04    2.71      47.9  T
     SCC iter.                  ...        0 min,  0.025 sec
     gradient                   ...        0 min,  0.015 sec
 * total energy  :   -72.1923224 Eh     change       -0.1286728E-04 Eh
   gradient norm :     0.0017135 Eh/α   predicted    -0.5466402E-05 ( -57.52%)
   displ. norm   :     0.1566583 α      lambda       -0.1573386E-04
   maximum displ.:     0.0896986 α      in ANC's #4, #9, #1, ...

........................................................................
.............................. CYCLE   25 ..............................
........................................................................

 iter      E             dE          RMSdq      gap      omega  full diag
   1    -73.1159019 -0.731159E+02  0.360E-02    2.71       0.0  T
   2    -73.1159022 -0.303198E-06  0.213E-02    2.71       1.0  T
   3    -73.1159019  0.254728E-06  0.288E-03    2.72       5.4  T
   4    -73.1159023 -0.370149E-06  0.860E-04    2.71      18.0  T
   5    -73.1159023 -0.949245E-08  0.468E-04    2.71      32.9  T
     SCC iter.                  ...        0 min,  0.009 sec
     gradient                   ...        0 min,  0.006 sec
 * total energy  :   -72.1923405 Eh     change       -0.1817697E-04 Eh
   gradient norm :     0.0019609 Eh/α   predicted    -0.7953177E-05 ( -56.25%)
   displ. norm   :     0.2020526 α      lambda       -0.1866483E-04
   maximum displ.:     0.1150080 α      in ANC's #4, #9, #1, ...

........................................................................
.............................. CYCLE   26 ..............................
........................................................................

 iter      E             dE          RMSdq      gap      omega  full diag
   1    -73.1152715 -0.731153E+02  0.445E-02    2.71       0.0  T
   2    -73.1152719 -0.403570E-06  0.263E-02    2.72       1.0  T
   3    -73.1152719 -0.199177E-07  0.203E-03    2.72       7.6  T
   4    -73.1152720 -0.105345E-06  0.989E-04    2.72      15.6  T
   5    -73.1152720 -0.986363E-08  0.549E-04    2.72      28.1  T
     SCC iter.                  ...        0 min,  0.009 sec
     gradient                   ...        0 min,  0.007 sec
 * total energy  :   -72.1923596 Eh     change       -0.1907943E-04 Eh
   gradient norm :     0.0024978 Eh/α   predicted    -0.9504980E-05 ( -50.18%)
   displ. norm   :     0.0991789 α      lambda       -0.1873196E-04
   maximum displ.:     0.0576859 α      in ANC's #4, #9, #1, ...

........................................................................
.............................. CYCLE   27 ..............................
........................................................................

 iter      E             dE          RMSdq      gap      omega  full diag
   1    -73.1154323 -0.731154E+02  0.203E-02    2.72       0.0  T
   2    -73.1154324 -0.149705E-06  0.120E-02    2.72       1.3  T
   3    -73.1154324  0.452335E-07  0.157E-03    2.72       9.8  T
   4    -73.1154324 -0.776939E-07  0.532E-04    2.72      29.0  T
   5    -73.1154324 -0.543990E-08  0.295E-04    2.72      52.3  T
     SCC iter.                  ...        0 min,  0.009 sec
     gradient                   ...        0 min,  0.006 sec
 * total energy  :   -72.1923753 Eh     change       -0.1571046E-04 Eh
   gradient norm :     0.0020724 Eh/α   predicted    -0.9458592E-05 ( -39.79%)
   displ. norm   :     0.2082879 α      lambda       -0.3552832E-04
   maximum displ.:     0.1191862 α      in ANC's #4, #9, #1, ...

........................................................................
.............................. CYCLE   28 ..............................
........................................................................

 iter      E             dE          RMSdq      gap      omega  full diag
   1    -73.1155738 -0.731156E+02  0.418E-02    2.72       0.0  T
   2    -73.1155742 -0.445529E-06  0.247E-02    2.72       1.0  T
   3    -73.1155740  0.192191E-06  0.297E-03    2.73       5.2  T
   4    -73.1155743 -0.326173E-06  0.105E-03    2.73      14.7  T
   5    -73.1155744 -0.171996E-07  0.580E-04    2.73      26.6  T
   6    -73.1155744 -0.226794E-08  0.184E-04    2.73      83.9  T
     SCC iter.                  ...        0 min,  0.011 sec
     gradient                   ...        0 min,  0.006 sec
 * total energy  :   -72.1924003 Eh     change       -0.2502165E-04 Eh
   gradient norm :     0.0022331 Eh/α   predicted    -0.1855284E-04 ( -25.85%)
   displ. norm   :     0.1424355 α      lambda       -0.1998428E-04
   maximum displ.:     0.0792064 α      in ANC's #4, #9, #1, ...

........................................................................
.............................. CYCLE   29 ..............................
........................................................................

 iter      E             dE          RMSdq      gap      omega  full diag
   1    -73.1158842 -0.731159E+02  0.282E-02    2.73       0.0  T
   2    -73.1158844 -0.175628E-06  0.166E-02    2.73       1.0  T
   3    -73.1158843  0.144665E-06  0.224E-03    2.73       6.9  T
   4    -73.1158845 -0.216507E-06  0.697E-04    2.73      22.1  T
   5    -73.1158845 -0.472903E-08  0.377E-04    2.73      40.9  T
     SCC iter.                  ...        0 min,  0.009 sec
     gradient                   ...        0 min,  0.006 sec
 * total energy  :   -72.1924148 Eh     change       -0.1450608E-04 Eh
   gradient norm :     0.0020689 Eh/α   predicted    -0.1019539E-04 ( -29.72%)
   displ. norm   :     0.1794896 α      lambda       -0.1525722E-04
   maximum displ.:     0.0978843 α      in ANC's #4, #9, #1, ...

........................................................................
.............................. CYCLE   30 ..............................
........................................................................

 iter      E             dE          RMSdq      gap      omega  full diag
   1    -73.1154349 -0.731154E+02  0.363E-02    2.73       0.0  T
   2    -73.1154351 -0.213388E-06  0.215E-02    2.73       1.0  T
   3    -73.1154351  0.759790E-08  0.189E-03    2.73       8.2  T
   4    -73.1154352 -0.991283E-07  0.821E-04    2.73      18.8  T
   5    -73.1154352 -0.265453E-08  0.413E-04    2.73      37.3  T
     SCC iter.                  ...        0 min,  0.009 sec
     gradient                   ...        0 min,  0.006 sec
 * total energy  :   -72.1924237 Eh     change       -0.8822715E-05 Eh
   gradient norm :     0.0023290 Eh/α   predicted    -0.7876304E-05 ( -10.73%)
   displ. norm   :     0.1140052 α      lambda       -0.2471149E-04
   maximum displ.:     0.0513175 α      in ANC's #4, #1, #7, ...

........................................................................
.............................. CYCLE   31 ..............................
........................................................................

 iter      E             dE          RMSdq      gap      omega  full diag
   1    -73.1170170 -0.731170E+02  0.250E-02    2.72       0.0  T
   2    -73.1170175 -0.555859E-06  0.146E-02    2.72       1.1  T
   3    -73.1170174  0.143264E-06  0.305E-03    2.72       5.1  T
   4    -73.1170176 -0.229085E-06  0.813E-04    2.72      19.0  T
   5    -73.1170176 -0.124675E-07  0.413E-04    2.72      37.4  T
     SCC iter.                  ...        0 min,  0.009 sec
     gradient                   ...        0 min,  0.006 sec
 * total energy  :   -72.1924275 Eh     change       -0.3864550E-05 Eh
   gradient norm :     0.0018076 Eh/α   predicted    -0.1251696E-04 ( 223.89%)
   displ. norm   :     0.0777104 α      lambda       -0.1324902E-04
   maximum displ.:     0.0389036 α      in ANC's #4, #9, #10, ...

........................................................................
.............................. CYCLE   32 ..............................
........................................................................

 iter      E             dE          RMSdq      gap      omega  full diag
   1    -73.1157045 -0.731157E+02  0.193E-02    2.72       0.0  T
   2    -73.1157047 -0.214100E-06  0.114E-02    2.72       1.4  T
   3    -73.1157046  0.111918E-06  0.196E-03    2.72       7.9  T
   4    -73.1157048 -0.153597E-06  0.660E-04    2.72      23.4  T
   5    -73.1157048 -0.114348E-07  0.314E-04    2.72      49.1  T
     SCC iter.                  ...        0 min,  0.009 sec
     gradient                   ...        0 min,  0.006 sec
 * total energy  :   -72.1924352 Eh     change       -0.7671032E-05 Eh
   gradient norm :     0.0016202 Eh/α   predicted    -0.6645277E-05 ( -13.37%)
   displ. norm   :     0.0634083 α      lambda       -0.5235002E-05
   maximum displ.:     0.0358840 α      in ANC's #4, #9, #1, ...

........................................................................
.............................. CYCLE   33 ..............................
........................................................................

 iter      E             dE          RMSdq      gap      omega  full diag
   1    -73.1162791 -0.731163E+02  0.127E-02    2.72       0.0  T
   2    -73.1162791 -0.532072E-07  0.747E-03    2.72       2.1  T
   3    -73.1162790  0.638463E-07  0.136E-03    2.72      11.3  T
   4    -73.1162791 -0.848929E-07  0.342E-04    2.72      45.1  T
   5    -73.1162791 -0.119623E-08  0.182E-04    2.72      84.9  T
     SCC iter.                  ...        0 min,  0.009 sec
     gradient                   ...        0 min,  0.006 sec
 * total energy  :   -72.1924395 Eh     change       -0.4276837E-05 Eh
   gradient norm :     0.0005874 Eh/α   predicted    -0.2622499E-05 ( -38.68%)
   displ. norm   :     0.0773870 α      lambda       -0.3732657E-05
   maximum displ.:     0.0378204 α      in ANC's #1, #4, #9, ...

   *** GEOMETRY OPTIMIZATION CONVERGED AFTER 33 ITERATIONS ***

------------------------------------------------------------------------
 total energy gain   :        -0.0220919 Eh      -13.8629 kcal/mol
 total RMSD          :         0.5514398 a0        0.2918 Å
 total power (kW/mol):        -1.7576478 (step)  -79.7606 (real)
------------------------------------------------------------------------

 ANCopt (total)                0 d,  0 h,  0 min,  0.727 sec
 optimizer setup                ...        0 min,  0.000 sec (  0.021%)
 model hessian                  ...        0 min,  0.026 sec (  3.604%)
 ANC generation                 ...        0 min,  0.002 sec (  0.280%)
 coordinate transformation      ...        0 min,  0.001 sec (  0.075%)
 single point calculation       ...        0 min,  0.689 sec ( 94.768%)
 optimization log               ...        0 min,  0.004 sec (  0.512%)
 hessian update                 ...        0 min,  0.001 sec (  0.093%)
 rational function              ...        0 min,  0.003 sec (  0.474%)

================
 final structure:
================
42
 xtb: 6.7.1 (edcfbbe)
C           -1.02256807192186       -0.89434023174323       -0.80403344690950
O           -0.17841507118019       -1.95196249718761       -1.26434415968025
C            0.77992056901313       -1.59740965287249       -2.10564399796997
O            0.96203707166627       -0.51842310949770       -2.57251351719318
C            1.64850457146613       -2.82445922516498       -2.49696290930758
N            1.43395505575421       -3.93721994974801       -1.61980443238365
C            0.67142480123913       -4.99340470712803       -1.87810388709259
N            0.62983863588965       -5.78308733649112       -0.80286983153828
C            1.37655832259895       -5.20389241858033        0.17581426304637
C            1.90063335094572       -4.04590690522898       -0.33402694825940
C            2.64252552921677       -2.92515511885741        0.33068569694939
O            2.41007779954476       -1.77829824047112        0.00934647461825
N            3.48520556558435       -3.25676842688973        1.32372673549452
C            4.00512276661692       -4.52138924767196        1.67300588792569
C            4.15896245130956       -4.83516293018232        3.01883308553545
C            4.68972828024528       -6.05905255476336        3.38528850634277
C            5.07260628212263       -6.97127660858446        2.41558918288566
C            4.93774597162584       -6.65020578863643        1.07473760607146
C            4.41131685124437       -5.42721852783802        0.69873312433356
C           -0.18716947083111       -6.95553567198055       -0.67848090288264
C           -1.66873307049760       -6.57665081716806       -0.93458008375133
O           -1.97449662235937       -5.56411020993409       -1.49982873852824
O           -2.46182019097642       -7.51141260101071       -0.47632534969635
C           -3.87275126677558       -7.34430671732098       -0.66034488490227
H           -1.78464477680428       -1.36394762782754       -0.18806993441716
H           -1.47424321655475       -0.37652515009219       -1.65126718344750
H           -0.43436951646398       -0.18373620295337       -0.22187577183683
H            1.39263075540058       -3.10421314585921       -3.52117155839746
H            2.68889172627612       -2.49383902430647       -2.46322881937522
H            0.16243233342768       -5.17959871215580       -2.80352763337110
H            1.49489474155494       -5.63955523014348        1.14722050902188
H            3.83894140416397       -2.46506730523913        1.85030085632369
H            3.86595065269148       -4.11865052297219        3.77102504115004
H            4.80977675587044       -6.29693040496720        4.43040661756076
H            5.49167713689724       -7.92225340579053        2.70316459062199
H            5.26222233395660       -7.34602773704559        0.31653267164925
H            4.34434898698461       -5.16181157116047       -0.34598500955635
H            0.09395962944091       -7.70691141637997       -1.42323116262310
H           -0.08115562766742       -7.39034081373557        0.31563959590469
H           -4.07464148292182       -6.82209211018948       -1.59579130185168
H           -4.29929557758509       -8.34390667541115       -0.67280749248283
H           -4.28178637021082       -6.77155344881660        0.17243851201685

 Bond Distances (Angstroems)
 ---------------------------
C1-O2=1.4294         C1-H25=1.0866        C1-H26=1.0908        C1-H27=1.0908        O2-C1=1.4294         O2-C3=1.3236         
C3-O2=1.3236         C3-O4=1.1897         C3-C5=1.5535         O4-C3=1.1897         C5-C3=1.5535         C5-N6=1.4331         
C5-H28=1.0921        C5-H29=1.0922        N6-C5=1.4331         N6-C7=1.3280         N6-C10=1.3722        C7-N6=1.3280         
C7-N8=1.3347         C7-H30=1.0725        N8-C7=1.3347         N8-C9=1.3605         N8-C20=1.4344        C9-N8=1.3605         
C9-C10=1.3695        C9-H31=1.0712        C10-N6=1.3722        C10-C9=1.3695        C10-C11=1.4994       C11-C10=1.4994       
C11-O12=1.2135       C11-N13=1.3440       O12-C11=1.2135       N13-C11=1.3440       N13-C14=1.4112       N13-H32=1.0145       
C14-N13=1.4112       C14-C15=1.3905       C14-C19=1.3909       C15-C14=1.3905       C15-C16=1.3834       C15-H33=1.0794       
C16-C15=1.3834       C16-C17=1.3853       C16-H34=1.0785       C17-C16=1.3853       C17-C18=1.3853       C17-H35=1.0783       
C18-C17=1.3853       C18-C19=1.3835       C18-H36=1.0790       C19-C14=1.3909       C19-C18=1.3835       C19-H37=1.0800       
C20-N8=1.4344        C20-C21=1.5505       C20-H38=1.0946       C20-H39=1.0902       C21-C20=1.5505       C21-O22=1.1993       
C21-O23=1.3087       O22-C21=1.1993       O23-C21=1.3087       O23-C24=1.4327       C24-O23=1.4327       C24-H40=1.0902       
C24-H41=1.0869       C24-H42=1.0904       H25-C1=1.0866        H26-C1=1.0908        H27-C1=1.0908        H28-C5=1.0921        
H29-C5=1.0922        H30-C7=1.0725        H31-C9=1.0712        H32-N13=1.0145       H33-C15=1.0794       H34-C16=1.0785       
H35-C17=1.0783       H36-C18=1.0790       H37-C19=1.0800       H38-C20=1.0946       H39-C20=1.0902       H40-C24=1.0902       
H41-C24=1.0869       H42-C24=1.0904       
 C  H  Rav=1.0849 sigma=0.0072  Rmin=1.0712  Rmax=1.0946    17
 C  C  Rav=1.4292 sigma=0.0705  Rmin=1.3695  Rmax=1.5535    10
 N  H  Rav=1.0145 sigma=0.0000  Rmin=1.0145  Rmax=1.0145     1
 N  C  Rav=1.3773 sigma=0.0406  Rmin=1.3280  Rmax=1.4344     8
 O  C  Rav=1.2995 sigma=0.0962  Rmin=1.1897  Rmax=1.4327     7

 selected bond angles (degree)
 --------------------
H25-C1-O2=106.08               H26-C1-O2=110.22               H26-C1-H25=110.80              H27-C1-O2=109.60               
H27-C1-H25=110.93              H27-C1-H26=109.18              C3-O2-C1=115.73                O4-C3-O2=127.10                
C5-C3-O2=110.69                C5-C3-O4=122.14                N6-C5-C3=112.05                H28-C5-C3=107.91               
H28-C5-N6=109.88               H29-C5-C3=106.60               H29-C5-N6=111.02               H29-C5-H28=109.25              
C7-N6-C5=125.76                C10-N6-C5=125.74               C10-N6-C7=108.33               N8-C7-N6=109.37                
H30-C7-N6=125.34               H30-C7-N8=125.28               C9-N8-C7=108.09                C20-N8-C7=124.83               
C20-N8-C9=126.74               C10-C9-N8=107.59               H31-C9-N8=122.67               H31-C9-C10=129.73              
C9-C10-N6=106.60               C11-C10-N6=121.63              C11-C10-C9=131.02              

 selected dihedral angles (degree)
 ---------------------------------
C3-O2-C1-H25=176.13           C3-O2-C1-H26= 56.13           C3-O2-C1-H27=295.95           O4-C3-O2-C1=355.36            
C5-C3-O2-C1=178.36            N6-C5-C3-O2=345.16            N6-C5-C3-O4=167.99            H28-C5-C3-O2=106.25           
H28-C5-C3-O4=289.09           H29-C5-C3-O2=223.51           H29-C5-C3-O4= 46.34           C7-N6-C5-C3=100.47            
C7-N6-C5-H28=340.52           C7-N6-C5-H29=219.55           C10-N6-C5-C3=285.63           C10-N6-C5-H28=165.67          
C10-N6-C5-H29= 44.70          N8-C7-N6-C5=184.34            N8-C7-N6-C10=359.94           H30-C7-N6-C5=  3.93           
H30-C7-N6-C10=179.52          C9-N8-C7-N6=  0.72            C9-N8-C7-H30=181.13           C20-N8-C7-N6=174.46           
C20-N8-C7-H30=354.88          C10-C9-N8-C7=358.91           C10-C9-N8-C20=185.32          H31-C9-N8-C7=179.38           
H31-C9-N8-C20=  5.79          C9-C10-N6-C5=174.99           C9-C10-N6-C7=359.39           C11-C10-N6-C5=  3.88          
C11-C10-N6-C7=188.28          N6-C10-C9-N8=  1.04           N6-C10-C9-H31=180.52          C11-C10-C9-N8=170.99          
C11-C10-C9-H31=350.47         
           -------------------------------------------------
          |                Final Singlepoint                |
           -------------------------------------------------

          ...................................................
          :                      SETUP                      :
          :.................................................:
          :  # basis functions                 114          :
          :  # atomic orbitals                 114          :
          :  # shells                           66          :
          :  # electrons                       126          :
          :  max. iterations                   250          :
          :  Hamiltonian                  GFN2-xTB          :
          :  restarted?                      false          :
          :  GBSA solvation                  false          :
          :  PC potential                    false          :
          :  electronic temp.          300.0000000     K    :
          :  accuracy                    1.0000000          :
          :  -> integral cutoff          0.2500000E+02      :
          :  -> integral neglect         0.1000000E-07      :
          :  -> SCF convergence          0.1000000E-05 Eh   :
          :  -> wf. convergence          0.1000000E-03 e    :
          :  Broyden damping             0.4000000          :
          :  net charge                          1          :
          :  unpaired electrons                  0          :
          ...................................................

 iter      E             dE          RMSdq      gap      omega  full diag
   1    -73.1162791 -0.731163E+02  0.589E-05    2.72       0.0  T
   2    -73.1162791 -0.539018E-10  0.363E-05    2.72     424.8  T
   3    -73.1162791 -0.325286E-10  0.199E-05    2.72     775.6  T

   *** convergence criteria satisfied after 3 iterations ***

         #    Occupation            Energy/Eh            Energy/eV
      -------------------------------------------------------------
         1        2.0000           -0.8931367             -24.3035
       ...           ...                  ...                  ...
        57        2.0000           -0.5509574             -14.9923
        58        2.0000           -0.5489498             -14.9377
        59        2.0000           -0.5409127             -14.7190
        60        2.0000           -0.5354441             -14.5702
        61        2.0000           -0.5330067             -14.5038
        62        2.0000           -0.5232928             -14.2395
        63        2.0000           -0.5083512             -13.8329 (HOMO)
        64                         -0.4083937             -11.1130 (LUMO)
        65                         -0.3972955             -10.8110
        66                         -0.3719630             -10.1216
        67                         -0.3433112              -9.3420
        68                         -0.3411620              -9.2835
       ...                                ...                  ...
       114                          0.5849486              15.9173
      -------------------------------------------------------------
                  HL-Gap            0.0999576 Eh            2.7200 eV
             Fermi-level           -0.4583724 Eh          -12.4729 eV

 SCC (total)                   0 d,  0 h,  0 min,  0.014 sec
 SCC setup                      ...        0 min,  0.000 sec (  0.617%)
 Dispersion                     ...        0 min,  0.000 sec (  1.613%)
 classical contributions        ...        0 min,  0.000 sec (  0.251%)
 integral evaluation            ...        0 min,  0.002 sec ( 12.808%)
 iterations                     ...        0 min,  0.005 sec ( 38.819%)
 molecular gradient             ...        0 min,  0.006 sec ( 44.997%)
 printout                       ...        0 min,  0.000 sec (  0.789%)

         :::::::::::::::::::::::::::::::::::::::::::::::::::::
         ::                     SUMMARY                     ::
         :::::::::::::::::::::::::::::::::::::::::::::::::::::
         :: total energy             -72.192439483840 Eh    ::
         :: gradient norm              0.000587026345 Eh/a0 ::
         :: HOMO-LUMO gap              2.719983773179 eV    ::
         ::.................................................::
         :: SCC energy               -73.115713683810 Eh    ::
         :: -> isotropic ES            0.183274380027 Eh    ::
         :: -> anisotropic ES         -0.005888481398 Eh    ::
         :: -> anisotropic XC          0.021363980326 Eh    ::
         :: -> dispersion             -0.042804760196 Eh    ::
         :: repulsion energy           0.923274199970 Eh    ::
         :: add. restraining           0.000000000000 Eh    ::
         :: total charge               1.000000000000 e     ::
         :::::::::::::::::::::::::::::::::::::::::::::::::::::

           -------------------------------------------------
          |                Property Printout                |
           -------------------------------------------------

    * Orbital Energies and Occupations

         #    Occupation            Energy/Eh            Energy/eV
      -------------------------------------------------------------
         1        2.0000           -0.8931367             -24.3035
       ...           ...                  ...                  ...
        51        2.0000           -0.5949963             -16.1907
        52        2.0000           -0.5805877             -15.7986
        53        2.0000           -0.5766236             -15.6907
        54        2.0000           -0.5760219             -15.6744
        55        2.0000           -0.5684095             -15.4672
        56        2.0000           -0.5617251             -15.2853
        57        2.0000           -0.5509574             -14.9923
        58        2.0000           -0.5489498             -14.9377
        59        2.0000           -0.5409127             -14.7190
        60        2.0000           -0.5354441             -14.5702
        61        2.0000           -0.5330067             -14.5038
        62        2.0000           -0.5232928             -14.2395
        63        2.0000           -0.5083512             -13.8329 (HOMO)
        64                         -0.4083937             -11.1130 (LUMO)
        65                         -0.3972955             -10.8110
        66                         -0.3719630             -10.1216
        67                         -0.3433112              -9.3420
        68                         -0.3411620              -9.2835
        69                         -0.3372344              -9.1766
        70                         -0.3049923              -8.2993
        71                         -0.2096176              -5.7040
        72                         -0.1836247              -4.9967
        73                         -0.1506501              -4.0994
        74                         -0.1283206              -3.4918
       ...                                ...                  ...
       114                          0.5849486              15.9173
      -------------------------------------------------------------
                  HL-Gap            0.0999576 Eh            2.7200 eV
             Fermi-level           -0.4583724 Eh          -12.4729 eV

     #   Z          covCN         q      C6AA      α(0)
     1   6 C        3.660     0.020    20.519     6.500
     2   8 O        1.703    -0.247    18.094     5.743
     3   6 C        2.722     0.374    20.661     7.441
     4   8 O        0.856    -0.343    20.572     6.081
     5   6 C        3.742    -0.053    21.607     6.632
     6   7 N        2.866     0.083    19.806     6.610
     7   6 C        3.081     0.055    26.684     8.469
     8   7 N        2.863     0.074    19.958     6.635
     9   6 C        3.063    -0.010    28.202     8.708
    10   6 C        3.106     0.020    27.421     8.580
    11   6 C        2.749     0.279    22.274     7.728
    12   8 O        0.860    -0.404    21.750     6.253
    13   7 N        2.694    -0.151    24.262     7.316
    14   6 C        2.907     0.058    26.690     8.471
    15   6 C        2.923    -0.044    29.099     8.846
    16   6 C        2.920    -0.021    28.531     8.759
    17   6 C        2.919    -0.026    28.657     8.779
    18   6 C        2.920    -0.026    28.650     8.778
    19   6 C        2.921    -0.050    29.232     8.866
    20   6 C        3.743    -0.059    21.714     6.648
    21   6 C        2.717     0.360    20.892     7.482
    22   8 O        0.856    -0.386    21.395     6.201
    23   8 O        1.704    -0.221    17.670     5.675
    24   6 C        3.653     0.013    20.672     6.529
    25   1 H        0.925     0.083     1.950     2.184
    26   1 H        0.924     0.082     1.959     2.189
    27   1 H        0.924     0.085     1.924     2.169
    28   1 H        0.924     0.107     1.724     2.053
    29   1 H        0.924     0.126     1.565     1.956
    30   1 H        0.926     0.131     1.530     1.934
    31   1 H        0.926     0.104     1.753     2.071
    32   1 H        0.860     0.219     1.016     1.579
    33   1 H        0.926     0.055     2.256     2.349
    34   1 H        0.926     0.062     2.170     2.304
    35   1 H        0.926     0.060     2.195     2.317
    36   1 H        0.926     0.053     2.277     2.360
    37   1 H        0.926     0.031     2.575     2.510
    38   1 H        0.924     0.116     1.648     2.008
    39   1 H        0.924     0.116     1.644     2.005
    40   1 H        0.925     0.088     1.895     2.153
    41   1 H        0.925     0.099     1.792     2.093
    42   1 H        0.924     0.087     1.907     2.160

 Mol. C6AA /au·bohr⁶  :      19675.398839
 Mol. C8AA /au·bohr⁸  :     460782.415955
 Mol. α(0) /au        :        216.121570


Wiberg/Mayer (AO) data.
largest (>0.10) Wiberg bond orders for each atom

 ---------------------------------------------------------------------------
     #   Z sym  total        # sym  WBO       # sym  WBO       # sym  WBO
 ---------------------------------------------------------------------------
     1   6 C    3.901 --    25 H    0.980    26 H    0.976    27 H    0.975
                             2 O    0.935
     2   8 O    2.326 --     3 C    1.163     1 C    0.935     4 O    0.185
     3   6 C    3.938 --     4 O    1.799     2 O    1.163     5 C    0.901
     4   8 O    2.114 --     3 C    1.799     2 O    0.185
     5   6 C    3.939 --     6 N    0.993    28 H    0.951    29 H    0.946
                             3 C    0.901
     6   7 N    3.722 --     7 C    1.368    10 C    1.191     5 C    0.993
     7   6 C    3.940 --     6 N    1.368     8 N    1.333    30 H    0.949
     8   7 N    3.709 --     7 C    1.333     9 C    1.224    20 C    0.996
     9   6 C    3.945 --    10 C    1.538     8 N    1.224    31 H    0.961
    10   6 C    3.943 --     9 C    1.538     6 N    1.191    11 C    0.967
    11   6 C    3.966 --    12 O    1.662    13 N    1.261    10 C    0.967
    12   8 O    2.036 --    11 C    1.662    13 N    0.204
    13   7 N    3.507 --    11 C    1.261    14 C    1.024    32 H    0.914
                            12 O    0.204
    14   6 C    3.952 --    15 C    1.387    19 C    1.383    13 N    1.024
                            17 C    0.103
    15   6 C    3.988 --    16 C    1.447    14 C    1.387    33 H    0.967
                            18 C    0.108
    16   6 C    3.989 --    15 C    1.447    17 C    1.436    34 H    0.968
                            19 C    0.109
    17   6 C    3.982 --    16 C    1.436    18 C    1.435    35 H    0.969
                            14 C    0.103
    18   6 C    3.990 --    19 C    1.448    17 C    1.435    36 H    0.969
                            15 C    0.108
    19   6 C    3.990 --    18 C    1.448    14 C    1.383    37 H    0.968
                            16 C    0.109
    20   6 C    3.947 --     8 N    0.996    39 H    0.957    38 H    0.939
                            21 C    0.913
    21   6 C    3.937 --    22 O    1.749    23 O    1.209    20 C    0.913
    22   8 O    2.076 --    21 C    1.749    23 O    0.193
    23   8 O    2.368 --    21 C    1.209    24 C    0.927    22 O    0.193
    24   6 C    3.888 --    40 H    0.976    41 H    0.975    42 H    0.972
                            23 O    0.927
    25   1 H    0.993 --     1 C    0.980
    26   1 H    0.993 --     1 C    0.976
    27   1 H    0.993 --     1 C    0.975
    28   1 H    0.988 --     5 C    0.951
    29   1 H    0.984 --     5 C    0.946
    30   1 H    0.982 --     7 C    0.949
    31   1 H    0.989 --     9 C    0.961
    32   1 H    0.951 --    13 N    0.914
    33   1 H    0.997 --    15 C    0.967
    34   1 H    0.995 --    16 C    0.968
    35   1 H    0.996 --    17 C    0.969
    36   1 H    0.997 --    18 C    0.969
    37   1 H    0.999 --    19 C    0.968
    38   1 H    0.986 --    20 C    0.939
    39   1 H    0.986 --    20 C    0.957
    40   1 H    0.992 --    24 C    0.976
    41   1 H    0.990 --    24 C    0.975
    42   1 H    0.992 --    24 C    0.972
 ---------------------------------------------------------------------------

Topologies differ in total number of bonds
Writing topology from bond orders to xtbtopo.mol

molecular dipole:
                 x           y           z       tot (Debye)
 q only:        1.516     -11.405      -0.212
   full:        1.597     -11.706      -0.157      30.031
molecular quadrupole (traceless):
                xx          xy          yy          xz          yz          zz
 q only:      -41.654     -22.831     109.548      11.330       9.506     -67.894
  q+dip:      -47.216     -24.696     111.422      12.483      13.494     -64.206
   full:      -43.896     -24.244     110.056      11.751      14.244     -66.161

           -------------------------------------------------
          |                Geometry Summary                 |
           -------------------------------------------------

      molecular mass/u    :      332.3318421
   center of mass at/Å    :        1.2933937      -4.4626308      -0.2221648
  moments of inertia/u·Å² :        0.1952507E+04   0.2767573E+04   0.4192177E+04
rotational constants/cm⁻¹ :        0.8633840E-02   0.6091124E-02   0.4021212E-02

 * 40 selected distances

     #   Z          #   Z                                           value/Å
     1   6 C        2   8 O                                       1.4293514
     2   8 O        3   6 C                                       1.3235938
     3   6 C        4   8 O                                       1.1896831
     5   6 C        6   7 N                                       1.4330650
     6   7 N        7   6 C                                       1.3280428
     7   6 C        8   7 N                                       1.3347122
     8   7 N        9   6 C                                       1.3604705
     6   7 N       10   6 C                                       1.3721609
     9   6 C       10   6 C                                       1.3694975
    11   6 C       12   8 O                                       1.2134957
    11   6 C       13   7 N                                       1.3439523
    13   7 N       14   6 C                                       1.4112321
    14   6 C       15   6 C                                       1.3904574
    15   6 C       16   6 C                                       1.3834407
    16   6 C       17   6 C                                       1.3853034
    17   6 C       18   6 C                                       1.3853365
    14   6 C       19   6 C                                       1.3909450
    18   6 C       19   6 C                                       1.3835480
     8   7 N       20   6 C                                       1.4344373 (max)
    21   6 C       22   8 O                                       1.1992648
    21   6 C       23   8 O                                       1.3087263
    23   8 O       24   6 C                                       1.4326599
     1   6 C       25   1 H                                       1.0866017
     1   6 C       26   1 H                                       1.0908474
     1   6 C       27   1 H                                       1.0907994
     5   6 C       28   1 H                                       1.0921251
     5   6 C       29   1 H                                       1.0921783
     7   6 C       30   1 H                                       1.0724509
     9   6 C       31   1 H                                       1.0711843
    13   7 N       32   1 H                                       1.0144950 (min)
    15   6 C       33   1 H                                       1.0793697
    16   6 C       34   1 H                                       1.0785498
    17   6 C       35   1 H                                       1.0782750
    18   6 C       36   1 H                                       1.0790403
    19   6 C       37   1 H                                       1.0799823
    20   6 C       38   1 H                                       1.0946471
    20   6 C       39   1 H                                       1.0902157
    24   6 C       40   1 H                                       1.0901963
    24   6 C       41   1 H                                       1.0868743
    24   6 C       42   1 H                                       1.0903598

 * 5 distinct bonds (by element types)

   Z      Z             #   av. dist./Å        max./Å        min./Å
   1 H    6 C          17     1.0849234     1.0946471     1.0711843
   6 C    6 C           7     1.3840755     1.3909450     1.3694975
   1 H    7 N           1     1.0144950     1.0144950     1.0144950
   6 C    7 N           8     1.3772591     1.4344373     1.3280428
   6 C    8 O           7     1.2995393     1.4326599     1.1896831


optimized geometry written to: xtbopt.xyz


           -------------------------------------------------
          | TOTAL ENERGY              -72.192439483840 Eh   |
          | GRADIENT NORM               0.000587026345 Eh/α |
          | HOMO-LUMO GAP               2.719983773179 eV   |
           -------------------------------------------------

------------------------------------------------------------------------
 * finished run on 2024/12/20 at 06:42:39.321     
------------------------------------------------------------------------
 total:
 * wall-time:     0 d,  0 h,  0 min,  0.798 sec
 *  cpu-time:     0 d,  0 h,  0 min,  6.262 sec
 * ratio c/w:     7.847 speedup
 SCF:
 * wall-time:     0 d,  0 h,  0 min,  0.038 sec
 *  cpu-time:     0 d,  0 h,  0 min,  0.293 sec
 * ratio c/w:     7.783 speedup
 ANC optimizer:
 * wall-time:     0 d,  0 h,  0 min,  0.742 sec
 *  cpu-time:     0 d,  0 h,  0 min,  5.837 sec
 * ratio c/w:     7.864 speedup

