24
 energy: -29.716677519837 gnorm: 0.000630256848 xtb: 6.7.1 (edcfbbe)
Cl           1.14884522304865       -0.48931001831606        0.48239369995986
C            2.85611902829997       -0.15163922998454        0.02410000677771
C            3.14233391442653       -0.46415406592806       -1.43711683432148
N            2.56429326963896        0.48365213171821       -2.42962000790661
C            1.08117866513131        0.44143196437393       -2.54200616339463
C            0.64660789654071        1.21245743030772       -3.78161414393298
C            1.12273973829523        2.66016628497218       -3.70033768578592
C            2.63401274015511        2.69929502486719       -3.49137975698511
C            3.01582909401153        1.88921427336972       -2.25791388850146
H            3.07059510491116        0.88282701534120        0.28383503774720
H            3.47350569523926       -0.80505772177470        0.64053383794474
H            4.22784853153909       -0.46157486254445       -1.57344199920383
H            2.76593318820930       -1.46378308721067       -1.66700179062622
H            2.91631511016258        0.18615170312934       -3.34817765191973
H            0.65518453046302        0.88535061026531       -1.64275694272689
H            0.76172718985478       -0.59972346791388       -2.59773842775320
H           -0.43968540196436        1.17819059270319       -3.85293613147957
H            1.04857567267633        0.73625958856780       -4.67930501010591
H            0.86159640669807        3.18907725224830       -4.61519823568263
H            0.62356050544333        3.16551680245220       -2.87267707969534
H            3.14479910687892        2.30160202165272       -4.37154652239872
H            2.96910180097468        3.72701356451693       -3.35653098270998
H            4.09652107786656        1.89948179895548       -2.10549650597762
H            2.52544191149917        2.30446439423094       -1.37720682132170
