36
 energy: -40.242496666519 gnorm: 0.000327796524 xtb: 6.7.1 (edcfbbe)
C            0.57358219884303        0.10427140384461       -0.28702998031386
C            0.39617088227312       -0.52832206778073        1.08800307074459
C            1.24330482460317        0.14114407583428        2.17285105841444
C            0.95608447923378        1.62790216593839        2.40019229512643
C           -0.51207867727107        1.99198525233227        2.69234142990274
C           -1.17202055718878        1.18457353005288        3.84109795324503
N           -1.07771393259871        1.72126475472486        5.23117822925741
C           -2.04398623855395        2.82160753298510        5.42168498630604
C           -1.41780192829312        0.63141749816837        6.16684447665936
C            0.27563097177984        2.21090779294338        5.54100662179910
O           -0.66330250045098        3.37781097317609        2.95672433946480
C           -0.64414016688373        4.21961606181007        1.81985326197848
H            0.18768520378590        1.12039441622964       -0.31502919824980
H            0.04007110467111       -0.47643837148307       -1.03428532074543
H            1.62485433957427        0.12640939549001       -0.56194113201436
H           -0.66064610858666       -0.51338273405990        1.36522241113980
H            0.69878700943914       -1.57532957104107        1.03100954637404
H            1.13426399256386       -0.41838792605353        3.10632734944194
H            2.29284621981756        0.05986406399348        1.88471350847320
H            1.60225686231727        1.99725984206007        3.19659161286182
H            1.23788395739431        2.16609644476491        1.49482033346519
H           -1.09505792000104        1.74041473517528        1.79267440380495
H           -2.23686143812893        1.08421509513213        3.62242964149241
H           -0.72796210711932        0.18896193763770        3.82857342560132
H           -3.06117826233607        2.45378855860154        5.30164681700534
H           -1.93823193678672        3.23995713298560        6.42055654636165
H           -1.85344319105585        3.59659823180361        4.68259704569683
H           -0.67456094524558       -0.16242909092711        6.11525390641166
H           -1.44685173513140        1.01288282202717        7.18616253674075
H           -2.39356160767608        0.21362466854403        5.92491707402938
H            1.00565267875664        1.42077886137399        5.37810332462754
H            0.50364004528917        3.06287690171655        4.90416762708430
H            0.32586434228615        2.52382585134961        6.58258666802255
H           -0.90998528142779        5.21155331924667        2.17815756903012
H            0.34571491890678        4.25891303008693        1.36041446478807
H           -1.37689949680080        3.89091341131382        1.07737209597320
