      -----------------------------------------------------------      
     |                   =====================                   |     
     |                           x T B                           |     
     |                   =====================                   |     
     |                         S. Grimme                         |     
     |          Mulliken Center for Theoretical Chemistry        |     
     |                    University of Bonn                     |     
      -----------------------------------------------------------      

   * xtb version 6.7.1 (edcfbbe) compiled by 'conda@3ef47c1a292c' on 2024-11-25

   xtb is free software: you can redistribute it and/or modify it under
   the terms of the GNU Lesser General Public License as published by
   the Free Software Foundation, either version 3 of the License, or
   (at your option) any later version.
   
   xtb is distributed in the hope that it will be useful,
   but WITHOUT ANY WARRANTY; without even the implied warranty of
   MERCHANTABILITY or FITNESS FOR A PARTICULAR PURPOSE.  See the
   GNU Lesser General Public License for more details.
   
   Cite this work as:
   * C. Bannwarth, E. Caldeweyher, S. Ehlert, A. Hansen, P. Pracht,
     J. Seibert, S. Spicher, S. Grimme, WIREs Comput. Mol. Sci., 2020, 11,
     e01493. DOI: 10.1002/wcms.1493
   
   for GFN2-xTB:
   * C. Bannwarth, S. Ehlert and S. Grimme., J. Chem. Theory Comput., 2019,
     15, 1652-1671. DOI: 10.1021/acs.jctc.8b01176
   for GFN1-xTB:
   * S. Grimme, C. Bannwarth, P. Shushkov, J. Chem. Theory Comput., 2017,
     13, 1989-2009. DOI: 10.1021/acs.jctc.7b00118
   for GFN0-xTB:
   * P. Pracht, E. Caldeweyher, S. Ehlert, S. Grimme, ChemRxiv, 2019, preprint.
     DOI: 10.26434/chemrxiv.8326202.v1
   for GFN-FF:
   * S. Spicher and S. Grimme, Angew. Chem. Int. Ed., 2020, 59, 15665-15673.
     DOI: 10.1002/anie.202004239
   
   for ALPB and GBSA implicit solvation:
   * S. Ehlert, M. Stahn, S. Spicher, S. Grimme, J. Chem. Theory Comput.,
     2021, 17, 4250-4261. DOI: 10.1021/acs.jctc.1c00471
   
   for ddCOSMO and CPCM-X implicit solvation:
   * M. Stahn, S. Ehlert, S. Grimme, J. Phys. Chem. A,
     2023, XX, XXXX-XXXX. DOI: 10.1021/acs.jpca.3c04382
   
   for DFT-D4:
   * E. Caldeweyher, C. Bannwarth and S. Grimme, J. Chem. Phys., 2017,
     147, 034112. DOI: 10.1063/1.4993215
   * E. Caldeweyher, S. Ehlert, A. Hansen, H. Neugebauer, S. Spicher,
     C. Bannwarth and S. Grimme, J. Chem. Phys., 2019, 150, 154122.
     DOI: 10.1063/1.5090222
   * E. Caldeweyher, J.-M. Mewes, S. Ehlert and S. Grimme, Phys. Chem. Chem. Phys.
     2020, 22, 8499-8512. DOI: 10.1039/D0CP00502A
   
   for sTDA-xTB:
   * S. Grimme and C. Bannwarth, J. Chem. Phys., 2016, 145, 054103.
     DOI: 10.1063/1.4959605
   
   in the mass-spec context:
   * V. Asgeirsson, C. Bauer and S. Grimme, Chem. Sci., 2017, 8, 4879.
     DOI: 10.1039/c7sc00601b
   * J. Koopman and S. Grimme, ACS Omega 2019, 4, 12, 15120-15133.
     DOI: 10.1021/acsomega.9b02011
   
   for metadynamics refer to:
   * S. Grimme, J. Chem. Theory Comput., 2019, 155, 2847-2862
     DOI: 10.1021/acs.jctc.9b00143
   
   for SPH calculations refer to:
   * S. Spicher and S. Grimme, J. Chem. Theory Comput., 2021, 17, 1701-1714
     DOI: 10.1021/acs.jctc.0c01306
   
   for ONIOM refer to:
   * C. Plett, A. Katbashev, S. Ehlert, S. Grimme, M. Bursch,
     Phys. Chem. Chem. Phys., 2023, 25, 17860-17868. DOI: 10.1039/D3CP02178E
   
   for DIPRO refer to:
   * J. Kohn, N. Gildemeister, S. Grimme, D. Fazzi, A. Hansen,
     J. Chem. Phys., 2023, just accepted.
   
   for PTB refer to:
   * S. Grimme, M. Mueller, A. Hansen, J. Chem. Phys., 2023, 158, 124111.
     DOI: 10.1063/5.0137838
   
   with help from (in alphabetical order)
   P. Atkinson, C. Bannwarth, F. Bohle, G. Brandenburg, E. Caldeweyher
   M. Checinski, S. Dohm, S. Ehlert, S. Ehrlich, I. Gerasimov, C. Hölzer
   A. Katbashev, J. Kohn, J. Koopman, C. Lavigne, S. Lehtola, F. März, M. Müller,
   F. Musil, H. Neugebauer, J. Pisarek, C. Plett, P. Pracht, F. Pultar,
   J. Seibert, P. Shushkov, S. Spicher, M. Stahn, M. Steiner, T. Strunk,
   J. Stückrath, T. Rose, and J. Unsleber
   
 * started run on 2024/12/20 at 06:44:22.777     
   ID    Z sym.   atoms
    1    7 N      1, 4
    2    6 C      2, 3, 5-9
    3    1 H      10-16

           -------------------------------------------------
          |                Calculation Setup                |
           -------------------------------------------------

          program call               : xtb C0430.xyz --opt --namespace C0430 --charge +1
          calculation namespace      : C0430
          coordinate file            : C0430.xyz
          omp threads                :                     8


           -------------------------------------------------
          |                 G F N 2 - x T B                 |
           -------------------------------------------------

        Reference                      10.1021/acs.jctc.8b01176
      * Hamiltonian:
        H0-scaling (s, p, d)           1.850000    2.230000    2.230000
        zeta-weighting                 0.500000
      * Dispersion:
        s8                             2.700000
        a1                             0.520000
        a2                             5.000000
        s9                             5.000000
      * Repulsion:
        kExp                           1.500000    1.000000
        rExp                           1.000000
      * Coulomb:
        alpha                          2.000000
        third order                    shell-resolved
        anisotropic                    true
        a3                             3.000000
        a5                             4.000000
        cn-shift                       1.200000
        cn-exp                         4.000000
        max-rad                        5.000000


          ...................................................
          :                      SETUP                      :
          :.................................................:
          :  # basis functions                  43          :
          :  # atomic orbitals                  43          :
          :  # shells                           25          :
          :  # electrons                        44          :
          :  max. iterations                   250          :
          :  Hamiltonian                  GFN2-xTB          :
          :  restarted?                      false          :
          :  GBSA solvation                  false          :
          :  PC potential                    false          :
          :  electronic temp.          300.0000000     K    :
          :  accuracy                    1.0000000          :
          :  -> integral cutoff          0.2500000E+02      :
          :  -> integral neglect         0.1000000E-07      :
          :  -> SCF convergence          0.1000000E-05 Eh   :
          :  -> wf. convergence          0.1000000E-03 e    :
          :  Broyden damping             0.4000000          :
          :  net charge                          1          :
          :  unpaired electrons                  0          :
          ...................................................

 iter      E             dE          RMSdq      gap      omega  full diag
   1    -24.1304963 -0.241305E+02  0.605E+00    3.85       0.0  T
   2    -24.1623830 -0.318868E-01  0.451E+00    3.54       1.0  T
   3    -24.1765522 -0.141692E-01  0.320E+00    2.62       1.0  T
   4    -24.2219820 -0.454298E-01  0.157E+00    3.07       1.0  T
   5    -24.2529985 -0.310164E-01  0.315E-01    2.89       1.0  T
   6    -24.2542291 -0.123066E-02  0.159E-01    2.91       1.0  T
   7    -24.2543613 -0.132224E-03  0.688E-02    2.91       1.0  T
   8    -24.2543875 -0.262094E-04  0.136E-02    2.90       1.8  T
   9    -24.2543886 -0.104689E-05  0.529E-03    2.90       4.7  T
  10    -24.2543888 -0.195498E-06  0.184E-03    2.91      13.6  T
  11    -24.2543888 -0.108358E-07  0.747E-04    2.91      33.5  T
  12    -24.2543888 -0.294176E-08  0.194E-04    2.91     128.6  T

   *** convergence criteria satisfied after 12 iterations ***

         #    Occupation            Energy/Eh            Energy/eV
      -------------------------------------------------------------
         1        2.0000           -0.9009339             -24.5157
       ...           ...                  ...                  ...
        16        2.0000           -0.6507533             -17.7079
        17        2.0000           -0.6433728             -17.5071
        18        2.0000           -0.6423438             -17.4791
        19        2.0000           -0.6352342             -17.2856
        20        2.0000           -0.6223718             -16.9356
        21        2.0000           -0.6151857             -16.7401
        22        2.0000           -0.5923612             -16.1190 (HOMO)
        23                         -0.4855524             -13.2126 (LUMO)
        24                         -0.4523399             -12.3088
        25                         -0.4248845             -11.5617
        26                         -0.4136263             -11.2553
        27                         -0.3325511              -9.0492
       ...                                ...                  ...
        43                          0.4721315              12.8474
      -------------------------------------------------------------
                  HL-Gap            0.1068088 Eh            2.9064 eV
             Fermi-level           -0.5389568 Eh          -14.6658 eV

 SCC (total)                   0 d,  0 h,  0 min,  0.009 sec
 SCC setup                      ...        0 min,  0.000 sec (  1.022%)
 Dispersion                     ...        0 min,  0.000 sec (  1.167%)
 classical contributions        ...        0 min,  0.000 sec (  0.916%)
 integral evaluation            ...        0 min,  0.001 sec (  5.976%)
 iterations                     ...        0 min,  0.007 sec ( 77.550%)
 molecular gradient             ...        0 min,  0.001 sec ( 12.119%)
 printout                       ...        0 min,  0.000 sec (  1.092%)

         :::::::::::::::::::::::::::::::::::::::::::::::::::::
         ::                     SUMMARY                     ::
         :::::::::::::::::::::::::::::::::::::::::::::::::::::
         :: total energy             -23.888410689399 Eh    ::
         :: gradient norm              0.275345414265 Eh/a0 ::
         :: HOMO-LUMO gap              2.906415638017 eV    ::
         ::.................................................::
         :: SCC energy               -24.254354416398 Eh    ::
         :: -> isotropic ES            0.101319659991 Eh    ::
         :: -> anisotropic ES         -0.013888993614 Eh    ::
         :: -> anisotropic XC          0.035718132866 Eh    ::
         :: -> dispersion             -0.011256608120 Eh    ::
         :: repulsion energy           0.365943726999 Eh    ::
         :: add. restraining           0.000000000000 Eh    ::
         :: total charge               1.000000000000 e     ::
         :::::::::::::::::::::::::::::::::::::::::::::::::::::

      ----------------------------------------------------------- 
     |                   =====================                   |
     |                        A N C O P T                        |
     |                   =====================                   |
     |               Approximate Normal Coordinate               |
     |                Rational Function Optimizer                |
      ----------------------------------------------------------- 
      ----------------------------------------------------------- 
     |                   =====================                   |
     |                        A N C O P T                        |
     |                   =====================                   |
     |               Approximate Normal Coordinate               |
     |                Rational Function Optimizer                |
      ----------------------------------------------------------- 

          ...................................................
          :                      SETUP                      :
          :.................................................:
          :   optimization level            normal          :
          :   max. optcycles                   200          :
          :   ANC micro-cycles                  20          :
          :   degrees of freedom                42          :
          :.................................................:
          :   RF solver                   davidson          :
          :   write xtbopt.log                true          :
          :   linear?                        false          :
          :   energy convergence         0.5000000E-05 Eh   :
          :   grad. convergence          0.1000000E-02 Eh/α :
          :   maxmium RF displ.          1.0000000          :
          :   Hlow (freq-cutoff)         0.1000000E-01      :
          :   Hmax (freq-cutoff)         5.0000000          :
          :   S6 in model hess.         20.0000000          :
          ...................................................

generating ANC from exact Hessian ...
Using Lindh-Hessian (1995)
 Shifting diagonal of input Hessian by    6.7462442828079075E-003
 Lowest  eigenvalues of input Hessian
    0.000000    0.000000    0.000000    0.000000    0.000000    0.000000
    0.010000    0.010452    0.018492    0.022209    0.025021    0.030360
    0.034471    0.052434    0.061062    0.073643    0.079295    0.089048
 Highest eigenvalues
    1.591218    1.629718    1.910153    1.959381    2.064723    2.082542


........................................................................
.............................. CYCLE    1 ..............................
........................................................................

 iter      E             dE          RMSdq      gap      omega  full diag
   1    -24.2543888 -0.242544E+02  0.778E-05    2.91       0.0  T
   2    -24.2543888 -0.335980E-10  0.535E-05    2.91     467.6  T
   3    -24.2543888 -0.327987E-10  0.287E-05    2.91     869.8  T
     SCC iter.                  ...        0 min,  0.002 sec
     gradient                   ...        0 min,  0.001 sec
 * total energy  :   -23.8884107 Eh     change       -0.3138290E-09 Eh
   gradient norm :     0.2753377 Eh/α   predicted     0.0000000E+00 (-100.00%)
   displ. norm   :     0.3058806 α      lambda       -0.5719958E-01
   maximum displ.:     0.1698954 α      in ANC's #16, #40, #25, ...

........................................................................
.............................. CYCLE    2 ..............................
........................................................................

 iter      E             dE          RMSdq      gap      omega  full diag
   1    -24.3646087 -0.243646E+02  0.562E-01    2.81       0.0  T
   2    -24.3647432 -0.134513E-03  0.373E-01    2.79       1.0  T
   3    -24.3648272 -0.839845E-04  0.254E-01    2.86       1.0  T
   4    -24.3652594 -0.432185E-03  0.333E-02    2.84       1.0  T
   5    -24.3652680 -0.860625E-05  0.851E-03    2.85       2.9  T
   6    -24.3652680 -0.848640E-09  0.366E-03    2.84       6.8  T
   7    -24.3652681 -0.122881E-06  0.101E-03    2.84      24.7  T
   8    -24.3652681 -0.597056E-08  0.410E-04    2.84      61.0  T
   9    -24.3652681 -0.815323E-09  0.104E-04    2.84     239.7  T
     SCC iter.                  ...        0 min,  0.004 sec
     gradient                   ...        0 min,  0.001 sec
 * total energy  :   -23.9204664 Eh     change       -0.3205568E-01 Eh
   gradient norm :     0.0334948 Eh/α   predicted    -0.3127565E-01 (  -2.43%)
   displ. norm   :     0.2094947 α      lambda       -0.2527013E-02
   maximum displ.:     0.1248469 α      in ANC's #3, #16, #2, ...

........................................................................
.............................. CYCLE    3 ..............................
........................................................................

 iter      E             dE          RMSdq      gap      omega  full diag
   1    -24.3733488 -0.243733E+02  0.186E-01    2.90       0.0  T
   2    -24.3733856 -0.368651E-04  0.124E-01    2.85       1.0  T
   3    -24.3733543  0.312997E-04  0.706E-02    2.85       1.0  T
   4    -24.3734091 -0.547865E-04  0.227E-02    2.83       1.1  T
   5    -24.3734132 -0.404803E-05  0.626E-03    2.84       4.0  T
   6    -24.3734133 -0.187563E-06  0.233E-03    2.84      10.7  T
   7    -24.3734134 -0.477731E-07  0.762E-04    2.84      32.8  T
   8    -24.3734134 -0.417625E-08  0.198E-04    2.84     125.9  T
     SCC iter.                  ...        0 min,  0.003 sec
     gradient                   ...        0 min,  0.001 sec
 * total energy  :   -23.9220125 Eh     change       -0.1546093E-02 Eh
   gradient norm :     0.0075978 Eh/α   predicted    -0.1318959E-02 ( -14.69%)
   displ. norm   :     0.1259016 α      lambda       -0.2744987E-03
   maximum displ.:     0.0813722 α      in ANC's #2, #3, #1, ...

........................................................................
.............................. CYCLE    4 ..............................
........................................................................

 iter      E             dE          RMSdq      gap      omega  full diag
   1    -24.3752248 -0.243752E+02  0.114E-01    2.87       0.0  T
   2    -24.3752314 -0.654004E-05  0.672E-02    2.85       1.0  T
   3    -24.3752199  0.114951E-04  0.313E-02    2.85       1.0  T
   4    -24.3752336 -0.137116E-04  0.863E-03    2.85       2.9  T
   5    -24.3752343 -0.688095E-06  0.254E-03    2.85       9.9  T
   6    -24.3752343 -0.990677E-08  0.993E-04    2.85      25.2  T
   7    -24.3752343 -0.105733E-07  0.290E-04    2.85      86.1  T
     SCC iter.                  ...        0 min,  0.003 sec
     gradient                   ...        0 min,  0.001 sec
 * total energy  :   -23.9221784 Eh     change       -0.1659664E-03 Eh
   gradient norm :     0.0022199 Eh/α   predicted    -0.1394246E-03 ( -15.99%)
   displ. norm   :     0.0749694 α      lambda       -0.5066059E-04
   maximum displ.:     0.0551501 α      in ANC's #2, #1, #3, ...

........................................................................
.............................. CYCLE    5 ..............................
........................................................................

 iter      E             dE          RMSdq      gap      omega  full diag
   1    -24.3751435 -0.243751E+02  0.751E-02    2.86       0.0  T
   2    -24.3751449 -0.141765E-05  0.422E-02    2.86       1.0  T
   3    -24.3751449  0.227785E-07  0.666E-03    2.86       3.8  T
   4    -24.3751454 -0.500681E-06  0.277E-03    2.86       9.0  T
   5    -24.3751455 -0.425677E-07  0.120E-03    2.86      20.8  T
   6    -24.3751455 -0.598739E-08  0.400E-04    2.86      62.5  T
   7    -24.3751455 -0.221543E-08  0.101E-04    2.86     247.5  T
     SCC iter.                  ...        0 min,  0.003 sec
     gradient                   ...        0 min,  0.001 sec
 * total energy  :   -23.9222149 Eh     change       -0.3646030E-04 Eh
   gradient norm :     0.0017922 Eh/α   predicted    -0.2547445E-04 ( -30.13%)
   displ. norm   :     0.0848301 α      lambda       -0.2314949E-04
   maximum displ.:     0.0617243 α      in ANC's #2, #1, #3, ...

........................................................................
.............................. CYCLE    6 ..............................
........................................................................

 iter      E             dE          RMSdq      gap      omega  full diag
   1    -24.3746031 -0.243746E+02  0.925E-02    2.86       0.0  T
   2    -24.3746051 -0.195308E-05  0.518E-02    2.86       1.0  T
   3    -24.3746054 -0.289294E-06  0.664E-03    2.87       3.8  T
   4    -24.3746058 -0.454882E-06  0.275E-03    2.86       9.1  T
   5    -24.3746058 -0.224242E-08  0.128E-03    2.86      19.6  T
   6    -24.3746058 -0.228646E-07  0.224E-04    2.86     111.6  T
   7    -24.3746058 -0.190759E-09  0.101E-04    2.86     246.9  T
     SCC iter.                  ...        0 min,  0.003 sec
     gradient                   ...        0 min,  0.001 sec
 * total energy  :   -23.9222355 Eh     change       -0.2061735E-04 Eh
   gradient norm :     0.0011207 Eh/α   predicted    -0.1161305E-04 ( -43.67%)
   displ. norm   :     0.0379137 α      lambda       -0.6686088E-05
   maximum displ.:     0.0267469 α      in ANC's #1, #2, #3, ...

........................................................................
.............................. CYCLE    7 ..............................
........................................................................

 iter      E             dE          RMSdq      gap      omega  full diag
   1    -24.3749706 -0.243750E+02  0.440E-02    2.87       0.0  T
   2    -24.3749709 -0.324966E-06  0.251E-02    2.86       1.0  T
   3    -24.3749698  0.114359E-05  0.100E-02    2.87       2.5  T
   4    -24.3749712 -0.139220E-05  0.124E-03    2.86      20.2  T
   5    -24.3749712 -0.663931E-09  0.291E-04    2.86      85.8  T
   6    -24.3749712 -0.975035E-09  0.879E-05    2.86     284.6  T
     SCC iter.                  ...        0 min,  0.002 sec
     gradient                   ...        0 min,  0.001 sec
 * total energy  :   -23.9222424 Eh     change       -0.6877238E-05 Eh
   gradient norm :     0.0008049 Eh/α   predicted    -0.3345758E-05 ( -51.35%)
   displ. norm   :     0.0302429 α      lambda       -0.2903024E-05
   maximum displ.:     0.0232254 α      in ANC's #1, #2, #3, ...

........................................................................
.............................. CYCLE    8 ..............................
........................................................................

 iter      E             dE          RMSdq      gap      omega  full diag
   1    -24.3746200 -0.243746E+02  0.355E-02    2.87       0.0  T
   2    -24.3746202 -0.215474E-06  0.202E-02    2.87       1.2  T
   3    -24.3746200  0.208567E-06  0.464E-03    2.87       5.4  T
   4    -24.3746203 -0.310052E-06  0.103E-03    2.87      24.3  T
   5    -24.3746203 -0.922650E-09  0.411E-04    2.87      60.9  T
   6    -24.3746203 -0.161012E-08  0.110E-04    2.87     226.6  T
     SCC iter.                  ...        0 min,  0.002 sec
     gradient                   ...        0 min,  0.001 sec
 * total energy  :   -23.9222440 Eh     change       -0.1613413E-05 Eh
   gradient norm :     0.0015104 Eh/α   predicted    -0.1452487E-05 (  -9.97%)
   displ. norm   :     0.0066478 α      lambda       -0.1059974E-05
   maximum displ.:     0.0059473 α      in ANC's #1, #3, #2, ...

........................................................................
.............................. CYCLE    9 ..............................
........................................................................

 iter      E             dE          RMSdq      gap      omega  full diag
   1    -24.3750732 -0.243751E+02  0.655E-03    2.86       0.0  T
   2    -24.3750732 -0.960929E-08  0.380E-03    2.87       6.6  T
   3    -24.3750731  0.573387E-07  0.229E-03    2.87      10.9  T
   4    -24.3750732 -0.684247E-07  0.240E-04    2.87     104.0  T
   5    -24.3750732 -0.246068E-09  0.124E-04    2.87     201.9  T
     SCC iter.                  ...        0 min,  0.002 sec
     gradient                   ...        0 min,  0.001 sec
 * total energy  :   -23.9222447 Eh     change       -0.6801619E-06 Eh
   gradient norm :     0.0005472 Eh/α   predicted    -0.5286727E-06 ( -22.27%)
   displ. norm   :     0.0045370 α      lambda       -0.2224494E-06
   maximum displ.:     0.0031247 α      in ANC's #1, #2, #3, ...

   *** GEOMETRY OPTIMIZATION CONVERGED AFTER 9 ITERATIONS ***

------------------------------------------------------------------------
 total energy gain   :        -0.0338340 Eh      -21.2311 kcal/mol
 total RMSD          :         0.1519002 a0        0.0804 Å
 total power (kW/mol):        -9.8701256 (step)-2114.1618 (real)
------------------------------------------------------------------------

 ANCopt (total)                0 d,  0 h,  0 min,  0.042 sec
 optimizer setup                ...        0 min,  0.000 sec (  0.163%)
 model hessian                  ...        0 min,  0.002 sec (  5.364%)
 ANC generation                 ...        0 min,  0.000 sec (  0.689%)
 coordinate transformation      ...        0 min,  0.000 sec (  0.115%)
 single point calculation       ...        0 min,  0.037 sec ( 89.141%)
 optimization log               ...        0 min,  0.000 sec (  1.108%)
 hessian update                 ...        0 min,  0.000 sec (  0.251%)
 rational function              ...        0 min,  0.001 sec (  2.367%)

================
 final structure:
================
16
 xtb: 6.7.1 (edcfbbe)
N            1.22236330677629        0.03905358241217        0.06064851759978
C            2.35769603389651       -0.02561631892379        0.01336583140298
C            3.81377362640804       -0.06838260285333       -0.02936017902314
N            4.36623204411509        1.02076568828907        0.76570998649621
C            4.11560762066731        2.28267798987122        0.38653924418914
C            4.58354936818022        3.34968759022685        1.12281295185186
C            5.32466196887984        3.10844175765130        2.27439879930865
C            5.57076097489108        1.79315338191242        2.64759640014307
C            5.07365489728108        0.76540983079938        1.87201771545244
H            4.15119535468170       -1.03545316969078        0.35519922458056
H            4.13271851523014        0.02548790631487       -1.07456255526097
H            3.52954215305486        2.42496402824826       -0.51061670095438
H            4.36854998948951        4.35540549934854        0.79809806308858
H            5.70033002436253        3.92759508112602        2.86769037651228
H            6.14081907913700        1.56212158601438        3.53355793200734
H            5.24148504294871       -0.26893183074654        2.13584439260562

 Bond Distances (Angstroems)
 ---------------------------
N1-C2=1.1382         C2-N1=1.1382         C2-C3=1.4573         C3-C2=1.4573         C3-N4=1.4573         C3-H10=1.0941        
C3-H11=1.0968        N4-C3=1.4573         N4-C5=1.3413         N4-C9=1.3377         C5-N4=1.3413         C5-C6=1.3783         
C5-H12=1.0810        C6-C5=1.3783         C6-C7=1.3905         C6-H13=1.0785        C7-C6=1.3905         C7-C8=1.3892         
C7-H14=1.0790        C8-C7=1.3892         C8-C9=1.3802         C8-H15=1.0785        C9-N4=1.3377         C9-C8=1.3802         
C9-H16=1.0806        H10-C3=1.0941        H11-C3=1.0968        H12-C5=1.0810        H13-C6=1.0785        H14-C7=1.0790        
H15-C8=1.0785        H16-C9=1.0806        
 C  H  Rav=1.0841 sigma=0.0073  Rmin=1.0785  Rmax=1.0968     7
 C  C  Rav=1.3991 sigma=0.0295  Rmin=1.3783  Rmax=1.4573     5
 N  C  Rav=1.3186 sigma=0.1147  Rmin=1.1382  Rmax=1.4573     4

 selected bond angles (degree)
 --------------------
C3-C2-N1=178.27                N4-C3-C2=109.93                H10-C3-C2=108.89               H10-C3-N4=110.61               
H11-C3-C2=108.42               H11-C3-N4=110.23               H11-C3-H10=108.72              C5-N4-C3=118.56                
C9-N4-C3=120.60                C9-N4-C5=120.81                C6-C5-N4=120.92                H12-C5-N4=117.37               
H12-C5-C6=121.70               C7-C6-C5=119.28                H13-C6-C5=119.57               H13-C6-C7=121.16               
C8-C7-C6=118.76                H14-C7-C6=120.61               H14-C7-C8=120.63               C9-C8-C7=119.36                
H15-C8-C7=121.14               H15-C8-C9=119.50               C8-C9-N4=120.87                H16-C9-N4=117.82               
H16-C9-C8=121.31               

 selected dihedral angles (degree)
 ---------------------------------
N4-C3-C2-N1= 12.25            H10-C3-C2-N1=133.57           H11-C3-C2-N1=251.70           C5-N4-C3-C2=296.54            
C5-N4-C3-H10=176.26           C5-N4-C3-H11= 56.00           C9-N4-C3-C2=114.55            C9-N4-C3-H10=354.27           
C9-N4-C3-H11=234.01           C6-C5-N4-C3=178.24            C6-C5-N4-C9=  0.23            H12-C5-N4-C3=358.65           
H12-C5-N4-C9=180.65           C7-C6-C5-N4=359.96            C7-C6-C5-H12=179.53           H13-C6-C5-N4=180.04           
H13-C6-C5-H12=359.61          C8-C7-C6-C5=  0.00            C8-C7-C6-H13=179.92           H14-C7-C6-C5=180.08           
H14-C7-C6-H13=  0.00          C9-C8-C7-C6=359.85            C9-C8-C7-H14=179.77           H15-C8-C7-C6=180.02           
H15-C8-C7-H14=359.93          C8-C9-N4-C3=181.65            C8-C9-N4-C5=359.61            H16-C9-N4-C3=  1.65           
H16-C9-N4-C5=179.61           N4-C9-C8-C7=  0.34            N4-C9-C8-H15=180.18           H16-C9-C8-C7=180.34           
H16-C9-C8-H15=  0.18          
           -------------------------------------------------
          |                Final Singlepoint                |
           -------------------------------------------------

          ...................................................
          :                      SETUP                      :
          :.................................................:
          :  # basis functions                  43          :
          :  # atomic orbitals                  43          :
          :  # shells                           25          :
          :  # electrons                        44          :
          :  max. iterations                   250          :
          :  Hamiltonian                  GFN2-xTB          :
          :  restarted?                      false          :
          :  GBSA solvation                  false          :
          :  PC potential                    false          :
          :  electronic temp.          300.0000000     K    :
          :  accuracy                    1.0000000          :
          :  -> integral cutoff          0.2500000E+02      :
          :  -> integral neglect         0.1000000E-07      :
          :  -> SCF convergence          0.1000000E-05 Eh   :
          :  -> wf. convergence          0.1000000E-03 e    :
          :  Broyden damping             0.4000000          :
          :  net charge                          1          :
          :  unpaired electrons                  0          :
          ...................................................

 iter      E             dE          RMSdq      gap      omega  full diag
   1    -24.3750732 -0.243751E+02  0.550E-05    2.87       0.0  T
   2    -24.3750732 -0.131095E-10  0.338E-05    2.87     739.6  T
   3    -24.3750732 -0.127081E-10  0.175E-05    2.87    1425.7  T

   *** convergence criteria satisfied after 3 iterations ***

         #    Occupation            Energy/Eh            Energy/eV
      -------------------------------------------------------------
         1        2.0000           -0.9066856             -24.6722
       ...           ...                  ...                  ...
        16        2.0000           -0.6525275             -17.7562
        17        2.0000           -0.6506503             -17.7051
        18        2.0000           -0.6432898             -17.5048
        19        2.0000           -0.6409237             -17.4404
        20        2.0000           -0.6371298             -17.3372
        21        2.0000           -0.6344485             -17.2642
        22        2.0000           -0.5883271             -16.0092 (HOMO)
        23                         -0.4830224             -13.1437 (LUMO)
        24                         -0.4498562             -12.2412
        25                         -0.3844281             -10.4608
        26                         -0.3696623             -10.0590
        27                         -0.3289535              -8.9513
       ...                                ...                  ...
        43                          0.9864668              26.8431
      -------------------------------------------------------------
                  HL-Gap            0.1053047 Eh            2.8655 eV
             Fermi-level           -0.5356748 Eh          -14.5765 eV

 SCC (total)                   0 d,  0 h,  0 min,  0.003 sec
 SCC setup                      ...        0 min,  0.000 sec (  1.878%)
 Dispersion                     ...        0 min,  0.000 sec (  1.592%)
 classical contributions        ...        0 min,  0.000 sec (  0.317%)
 integral evaluation            ...        0 min,  0.000 sec ( 14.986%)
 iterations                     ...        0 min,  0.001 sec ( 42.895%)
 molecular gradient             ...        0 min,  0.001 sec ( 35.692%)
 printout                       ...        0 min,  0.000 sec (  2.174%)

         :::::::::::::::::::::::::::::::::::::::::::::::::::::
         ::                     SUMMARY                     ::
         :::::::::::::::::::::::::::::::::::::::::::::::::::::
         :: total energy             -23.922244680242 Eh    ::
         :: gradient norm              0.000546787874 Eh/a0 ::
         :: HOMO-LUMO gap              2.865487861022 eV    ::
         ::.................................................::
         :: SCC energy               -24.375036885385 Eh    ::
         :: -> isotropic ES            0.101950892835 Eh    ::
         :: -> anisotropic ES         -0.013288947696 Eh    ::
         :: -> anisotropic XC          0.033166635493 Eh    ::
         :: -> dispersion             -0.011521274160 Eh    ::
         :: repulsion energy           0.452792205144 Eh    ::
         :: add. restraining           0.000000000000 Eh    ::
         :: total charge               1.000000000000 e     ::
         :::::::::::::::::::::::::::::::::::::::::::::::::::::

           -------------------------------------------------
          |                Property Printout                |
           -------------------------------------------------

    * Orbital Energies and Occupations

         #    Occupation            Energy/Eh            Energy/eV
      -------------------------------------------------------------
         1        2.0000           -0.9066856             -24.6722
       ...           ...                  ...                  ...
        10        2.0000           -0.7429239             -20.2160
        11        2.0000           -0.7236474             -19.6914
        12        2.0000           -0.7128265             -19.3970
        13        2.0000           -0.7060285             -19.2120
        14        2.0000           -0.7009940             -19.0750
        15        2.0000           -0.6921580             -18.8346
        16        2.0000           -0.6525275             -17.7562
        17        2.0000           -0.6506503             -17.7051
        18        2.0000           -0.6432898             -17.5048
        19        2.0000           -0.6409237             -17.4404
        20        2.0000           -0.6371298             -17.3372
        21        2.0000           -0.6344485             -17.2642
        22        2.0000           -0.5883271             -16.0092 (HOMO)
        23                         -0.4830224             -13.1437 (LUMO)
        24                         -0.4498562             -12.2412
        25                         -0.3844281             -10.4608
        26                         -0.3696623             -10.0590
        27                         -0.3289535              -8.9513
        28                         -0.1861513              -5.0654
        29                         -0.0958036              -2.6069
        30                         -0.0718637              -1.9555
        31                         -0.0556716              -1.5149
        32                         -0.0470512              -1.2803
        33                         -0.0336417              -0.9154
       ...                                ...                  ...
        43                          0.9864668              26.8431
      -------------------------------------------------------------
                  HL-Gap            0.1053047 Eh            2.8655 eV
             Fermi-level           -0.5356748 Eh          -14.5765 eV

     #   Z          covCN         q      C6AA      α(0)
     1   7 N        0.911    -0.126    23.738     7.047
     2   6 C        1.897     0.109    28.405     8.608
     3   6 C        3.760    -0.024    21.052     6.541
     4   7 N        2.755     0.116    19.256     6.517
     5   6 C        2.890     0.036    27.192     8.549
     6   6 C        2.915    -0.005    28.143     8.699
     7   6 C        2.924     0.020    27.570     8.611
     8   6 C        2.915    -0.006    28.162     8.702
     9   6 C        2.886     0.035    27.210     8.552
    10   1 H        0.924     0.127     1.561     1.954
    11   1 H        0.924     0.131     1.525     1.931
    12   1 H        0.926     0.117     1.640     2.003
    13   1 H        0.926     0.119     1.621     1.991
    14   1 H        0.926     0.118     1.631     1.997
    15   1 H        0.926     0.118     1.627     1.995
    16   1 H        0.926     0.114     1.660     2.015

 Mol. C6AA /au·bohr⁶  :       2947.086292
 Mol. C8AA /au·bohr⁸  :      72255.762482
 Mol. α(0) /au        :         85.710946


Wiberg/Mayer (AO) data.
largest (>0.10) Wiberg bond orders for each atom

 ---------------------------------------------------------------------------
     #   Z sym  total        # sym  WBO       # sym  WBO       # sym  WBO
 ---------------------------------------------------------------------------
     1   7 N    3.049 --     2 C    2.902
     2   6 C    3.956 --     1 N    2.902     3 C    1.014
     3   6 C    3.944 --     2 C    1.014     4 N    0.960    10 H    0.938
                            11 H    0.927
     4   7 N    3.764 --     9 C    1.326     5 C    1.315     3 C    0.960
     5   6 C    3.955 --     6 C    1.471     4 N    1.315    12 H    0.954
     6   6 C    3.978 --     5 C    1.471     7 C    1.414    13 H    0.956
     7   6 C    3.961 --     8 C    1.423     6 C    1.414    14 H    0.959
     8   6 C    3.977 --     9 C    1.459     7 C    1.423    15 H    0.956
     9   6 C    3.955 --     8 C    1.459     4 N    1.326    16 H    0.953
    10   1 H    0.984 --     3 C    0.938
    11   1 H    0.983 --     3 C    0.927
    12   1 H    0.986 --     5 C    0.954
    13   1 H    0.985 --     6 C    0.956
    14   1 H    0.986 --     7 C    0.959
    15   1 H    0.986 --     8 C    0.956
    16   1 H    0.987 --     9 C    0.953
 ---------------------------------------------------------------------------

Topologies differ in total number of bonds
Writing topology from bond orders to xtbtopo.mol

molecular dipole:
                 x           y           z       tot (Debye)
 q only:        9.249       2.924       2.130
   full:        9.733       2.847       2.083      26.312
molecular quadrupole (traceless):
                xx          xy          yy          xz          yz          zz
 q only:       68.176      40.323     -28.333      34.753      12.859     -39.844
  q+dip:       71.082      38.949     -29.529      35.765      12.028     -41.553
   full:       71.058      39.205     -30.045      34.063      12.205     -41.013

           -------------------------------------------------
          |                Geometry Summary                 |
           -------------------------------------------------

      molecular mass/u    :      119.1441430
   center of mass at/Å    :        4.0473175       1.3471734       1.0011534
  moments of inertia/u·Å² :        0.1271775E+03   0.4492497E+03   0.5123178E+03
rotational constants/cm⁻¹ :        0.1325520E+00   0.3752397E-01   0.3290464E-01

 * 15 selected distances

     #   Z          #   Z                                           value/Å
     1   7 N        2   6 C                                       1.1381557
     3   6 C        4   7 N                                       1.4572547 (max)
     4   7 N        5   6 C                                       1.3412703
     5   6 C        6   6 C                                       1.3782519
     6   6 C        7   6 C                                       1.3905387
     7   6 C        8   6 C                                       1.3891814
     4   7 N        9   6 C                                       1.3377484
     8   6 C        9   6 C                                       1.3801789
     3   6 C       10   1 H                                       1.0940590
     3   6 C       11   1 H                                       1.0968071
     5   6 C       12   1 H                                       1.0810213
     6   6 C       13   1 H                                       1.0784865 (min)
     7   6 C       14   1 H                                       1.0789503
     8   6 C       15   1 H                                       1.0785499
     9   6 C       16   1 H                                       1.0805713

 * 3 distinct bonds (by element types)

   Z      Z             #   av. dist./Å        max./Å        min./Å
   1 H    6 C           7     1.0840636     1.0968071     1.0784865
   6 C    6 C           4     1.3845377     1.3905387     1.3782519
   6 C    7 N           4     1.3186073     1.4572547     1.1381557


optimized geometry written to: xtbopt.xyz


           -------------------------------------------------
          | TOTAL ENERGY              -23.922244680242 Eh   |
          | GRADIENT NORM               0.000546787874 Eh/α |
          | HOMO-LUMO GAP               2.865487861022 eV   |
           -------------------------------------------------

------------------------------------------------------------------------
 * finished run on 2024/12/20 at 06:44:22.847     
------------------------------------------------------------------------
 total:
 * wall-time:     0 d,  0 h,  0 min,  0.069 sec
 *  cpu-time:     0 d,  0 h,  0 min,  0.540 sec
 * ratio c/w:     7.793 speedup
 SCF:
 * wall-time:     0 d,  0 h,  0 min,  0.009 sec
 *  cpu-time:     0 d,  0 h,  0 min,  0.071 sec
 * ratio c/w:     7.880 speedup
 ANC optimizer:
 * wall-time:     0 d,  0 h,  0 min,  0.046 sec
 *  cpu-time:     0 d,  0 h,  0 min,  0.364 sec
 * ratio c/w:     7.989 speedup

