13
 energy: -21.392252438136 gnorm: 0.204118345952 xtb: 6.7.1 (edcfbbe)
N            1.18935000000000        0.02947000000000       -0.03000000000000
N            0.96761000000000        1.30606000000000       -0.73212000000000
N           -0.37557000000000        1.37983000000000       -0.92494000000000
C           -0.72586000000000        2.61722000000000       -0.50147000000000
N            0.32522000000000        3.21567000000000        0.07750000000000
C            1.34372000000000        2.39136000000000       -0.07298000000000
N            2.55839000000000        2.49706000000000        0.48959000000000
H            0.69826000000000        0.09374000000000        0.86925000000000
H            0.62871000000000       -0.67483000000000       -0.52059000000000
H            1.46150000000000        1.34151000000000       -1.61743000000000
H           -1.71957000000000        3.03026000000000       -0.57584000000000
H            2.94046000000000        1.57220000000000        0.60943000000000
H            2.54561000000000        3.04429000000000        1.33198000000000
13
 energy: -21.420709428073 gnorm: 0.114552149526 xtb: 6.7.1 (edcfbbe)
N            1.17742250107359        0.02036201892957       -0.04272459518911
N            0.92595386140754        1.27039425124779       -0.73655838965872
N           -0.42813482273421        1.42310394909669       -0.99183343332124
C           -0.72286610196382        2.61634037128212       -0.50822475877135
N            0.32801341472978        3.23693408458793        0.08155739916787
C            1.32632775925703        2.40102109980492       -0.02025148632322
N            2.54397753763553        2.49548325158065        0.52242875432450
H            0.70354016180364        0.08397257421839        0.86452403718322
H            0.65522863846631       -0.70589267663490       -0.54105486062216
H            1.45377980627672        1.28117785350898       -1.62391360359099
H           -1.71109226139095        3.02893330840812       -0.56118662266940
H            2.98920183119924        1.58677729567758        0.62783006260911
H            2.59647767423962        3.10523261829214        1.33178749686149
13
 energy: -21.434693201402 gnorm: 0.049159861866 xtb: 6.7.1 (edcfbbe)
N            1.15991828641898        0.02107693382086       -0.05412188003504
N            0.89041754181327        1.23418904736630       -0.73632998040834
N           -0.47453940277021        1.47641228067102       -1.03870456804797
C           -0.72159033416413        2.62565036705147       -0.53503131437856
N            0.31741677877361        3.23988349487265        0.11556557058512
C            1.30285447475766        2.41308717488886        0.04421487267436
N            2.51633524648073        2.48315974745555        0.55606061808430
H            0.71212468889187        0.06293581060464        0.86569835756889
H            0.70106329420704       -0.74341628758938       -0.56065852267976
H            1.44153365500181        1.21943054198748       -1.62339728125024
H           -1.70732161878574        3.04572314176018       -0.57325258378667
H            3.04467697642674        1.60658932699629        0.62451432890035
H            2.65494041294837        3.15911842011406        1.31782238277355
13
 energy: -21.438143102951 gnorm: 0.033921670863 xtb: 6.7.1 (edcfbbe)
N            1.14711127372158        0.01307207103346       -0.05864390867493
N            0.87611460956113        1.21182583186710       -0.73525307730156
N           -0.49212656885567        1.49743551350629       -1.05473478686281
C           -0.73080111347808        2.63342971825398       -0.52743139817171
N            0.30743606435903        3.23703324300999        0.14616806067544
C            1.28991913282172        2.42155940390792        0.08071577434128
N            2.50429767242555        2.48160320838635        0.57386114116736
H            0.70415959726504        0.02677194448159        0.86277698267617
H            0.74767668587585       -0.78244258882390       -0.57337653552328
H            1.42447589967872        1.18787026354695       -1.62169807216529
H           -1.70054132606612        3.09149606049188       -0.60612127261813
H            3.07327762617910        1.63304614428519        0.62146724331998
H            2.68683044651217        3.19113918605316        1.29464984913747
13
 energy: -21.439800376542 gnorm: 0.019635285244 xtb: 6.7.1 (edcfbbe)
N            1.13481322119222        0.00258232454547       -0.05734374643142
N            0.87194748640949        1.19362220181476       -0.73540986723564
N           -0.49523399325872        1.50734990964135       -1.05956248784534
C           -0.73322618940399        2.64482115700892       -0.53433885868161
N            0.30009773652114        3.23264839315811        0.16470420345696
C            1.28666756380715        2.43232361963995        0.10471694055676
N            2.49964178343914        2.48352209201889        0.59276945897736
H            0.68004353533406       -0.00282587263696        0.85538086842535
H            0.78513117750230       -0.80418581953511       -0.58336507053605
H            1.40691780728935        1.16260120752578       -1.62318436042719
H           -1.69629185457336        3.11986542924376       -0.61325240705349
H            3.09308120933528        1.66015246962535        0.61695079865958
H            2.70424051640597        3.21136288794969        1.27431452813470
13
 energy: -21.440503054439 gnorm: 0.015487760482 xtb: 6.7.1 (edcfbbe)
N            1.12167473010728       -0.00987565367225       -0.05467307572890
N            0.86993809557594        1.18312130864402       -0.73124778682076
N           -0.49203652373326        1.50589305879126       -1.05258637559887
C           -0.73518203999011        2.64571343150068       -0.52841787272355
N            0.29564460733028        3.22918148866380        0.17331284466671
C            1.28696958232360        2.43985824827494        0.12312906024817
N            2.49966035777313        2.48640287809165        0.60862644533475
H            0.63725787433117       -0.03150417533804        0.84160951170969
H            0.81452514682971       -0.81767047022753       -0.60066215327602
H            1.39219814354015        1.15276597734898       -1.62114005069388
H           -1.68855596727928        3.13642660982424       -0.62391169931927
H            3.10688121959058        1.67950816812255        0.61676056228045
H            2.72885477360083        3.24401912997566        1.25158058992147
13
 energy: -21.440845568083 gnorm: 0.011520478602 xtb: 6.7.1 (edcfbbe)
N            1.10915372503188       -0.01606962267608       -0.04556199489235
N            0.86887282185644        1.17829946772580       -0.72708523866892
N           -0.48513225977749        1.50328333272736       -1.04744687855648
C           -0.73280713545119        2.64612943129351       -0.52946469082430
N            0.29320313385963        3.22766920088603        0.17636920459913
C            1.29069299570582        2.44947435987646        0.13438131590309
N            2.49932182680501        2.49173019052845        0.62423713751403
H            0.58634772455912       -0.04580672845264        0.82970459510531
H            0.84081977255287       -0.82477826783924       -0.60769119171613
H            1.38586447963970        1.14712467559559       -1.61803016357947
H           -1.68288249375250        3.13770758855689       -0.62325740205973
H            3.12637268310289        1.69594598568334        0.59415396459334
H            2.73800272586783        3.25313038609450        1.24207134258246
13
 energy: -21.441012279085 gnorm: 0.012248172942 xtb: 6.7.1 (edcfbbe)
N            1.10238973980923       -0.02173869160152       -0.04249228888197
N            0.86547723312972        1.17639029634918       -0.72250823007491
N           -0.48073979119115        1.50083141221209       -1.04163316912207
C           -0.72974037755954        2.64598723380599       -0.52748862622980
N            0.29563181907798        3.23008297976794        0.17310446740790
C            1.29468474161351        2.45409071786475        0.14049995408983
N            2.49984327144218        2.48964649919529        0.63521166473040
H            0.54669504764049       -0.06183828993797        0.81398257880058
H            0.86292944132255       -0.82896172173611       -0.61785229287311
H            1.38435483713291        1.14706285424103       -1.61296408916368
H           -1.68087400455332        3.13350292517223       -0.61535462284969
H            3.11920929649366        1.69756312696680        0.59858318612584
H            2.75796874564179        3.28122065770025        1.22129146804067
13
 energy: -21.441125191270 gnorm: 0.005909133077 xtb: 6.7.1 (edcfbbe)
N            1.10304136082045       -0.02022513884504       -0.04027123750485
N            0.86239582838977        1.17824652222619       -0.72047740034798
N           -0.48133180718427        1.49986699952869       -1.03992790142497
C           -0.72999544993977        2.64448663925940       -0.52442620620332
N            0.29605996362591        3.23168241996905        0.17256195808076
C            1.29479028744186        2.45419322009876        0.13992608342601
N            2.49890733820445        2.48921527785437        0.63736660747941
H            0.54115965648707       -0.06192029440821        0.81044009741694
H            0.86722395826230       -0.82726648376280       -0.61343415311831
H            1.38861169868452        1.15095038781632       -1.60855815702350
H           -1.68209062033137        3.13217562597529       -0.62042750703960
H            3.12059597681310        1.69550822009140        0.58771944056963
H            2.75846180872598        3.27692660419654        1.22188837568976
13
 energy: -21.441184616760 gnorm: 0.005053903073 xtb: 6.7.1 (edcfbbe)
N            1.10305526174729       -0.01671577762645       -0.03434183051855
N            0.85677031086225        1.18025457711628       -0.71670663236408
N           -0.48412387835901        1.50138628522610       -1.03762817640981
C           -0.72986327922538        2.64750264880633       -0.52450414557360
N            0.29764917792958        3.23662883821441        0.16987426032754
C            1.29396768786971        2.45401080422712        0.13826972479669
N            2.49712122506079        2.48695298347001        0.63885615238440
H            0.52759771246469       -0.06742062624282        0.80642828727442
H            0.88523942963441       -0.83088033435026       -0.61234416566601
H            1.39541043833714        1.15549247916497       -1.59959505777963
H           -1.68516825840599        3.13111188507079       -0.62056844874536
H            3.11813399174683        1.69106962343361        0.57734385207829
H            2.76204018033769        3.27444661348985        1.21729618019568
13
 energy: -21.441208836579 gnorm: 0.003690522869 xtb: 6.7.1 (edcfbbe)
N            1.10416202979499       -0.01699723999729       -0.03520293214207
N            0.85507788104713        1.18015510166061       -0.71538992934229
N           -0.48554305232964        1.50149867868713       -1.03614663458009
C           -0.72958659333731        2.64882710914457       -0.52528310150367
N            0.29889756126832        3.23839428225014        0.16805352262069
C            1.29333982340809        2.45217866536307        0.13677408688406
N            2.49572525084425        2.48498509598960        0.63943902179703
H            0.53113689085787       -0.07192119321178        0.80527059925466
H            0.88458229860867       -0.82617174222099       -0.61155709833439
H            1.39867850251712        1.15850594986748       -1.59540882413593
H           -1.68627569668093        3.12980209138536       -0.62041891449685
H            3.11448280254963        1.68847066190487        0.57965919948246
H            2.76315230145183        3.27611253917719        1.21259100449636
13
 energy: -21.441226968786 gnorm: 0.002874198849 xtb: 6.7.1 (edcfbbe)
N            1.10324224384062       -0.01813746252810       -0.03476240584794
N            0.85425550210392        1.17902943456591       -0.71354288242043
N           -0.48680912040211        1.50153972205393       -1.03413827353548
C           -0.72996784984003        2.64993120320141       -0.52451530515523
N            0.29910712749234        3.23905337628480        0.16813028544733
C            1.29229473114771        2.45138556729210        0.13749570855239
N            2.49493034350678        2.48452606467429        0.63955716238807
H            0.52787494445917       -0.07739993475382        0.80455508065443
H            0.88979974478766       -0.82707563270044       -0.61502765520662
H            1.39808056759121        1.15944444878134       -1.59246077565106
H           -1.68541390661501        3.13263788308741       -0.62216215835864
H            3.11491700817129        1.68925527267822        0.58210328643148
H            2.76551866375646        3.27965005736290        1.20714793270168
13
 energy: -21.441243832902 gnorm: 0.002747726751 xtb: 6.7.1 (edcfbbe)
N            1.10218891129294       -0.01986270729304       -0.03421951607394
N            0.85315372499268        1.17770141982515       -0.71017471402307
N           -0.48928423511236        1.50179052137987       -1.03073975879826
C           -0.73023229227060        2.65238795368356       -0.52442679915153
N            0.29998681775672        3.24082221167726        0.16689456759252
C            1.29074689297259        2.45002335631757        0.13740771055116
N            2.49359362241818        2.48334268808625        0.63949827406165
H            0.52476040173961       -0.08493846254754        0.80348765986639
H            0.89889294945197       -0.82879027116927       -0.61957219042737
H            1.39672503324048        1.16197892464104       -1.58794029037539
H           -1.68409522445838        3.13687249289364       -0.62315707225889
H            3.11412274110723        1.68943430383240        0.58745072918461
H            2.76727065686895        3.28307756867305        1.19787139985209
13
 energy: -21.441250116511 gnorm: 0.002154469646 xtb: 6.7.1 (edcfbbe)
N            1.10148303662934       -0.02111953286186       -0.03414776630917
N            0.85264385097255        1.17740018117138       -0.70783863240558
N           -0.49043734942728        1.50143224579093       -1.02908368123721
C           -0.73035929447973        2.65298714800837       -0.52467783507835
N            0.30015418376767        3.24139569147843        0.16636037881208
C            1.29002085017554        2.44927215583941        0.13807681901007
N            2.49297134803923        2.48281883237322        0.64018805834727
H            0.52254446917077       -0.08834501332278        0.80223094430771
H            0.90268570497852       -0.82921535407804       -0.62152625176359
H            1.39564847163940        1.16392582202456       -1.58598549462250
H           -1.68357409187738        3.13851816243650       -0.62418180369406
H            3.11498656679625        1.68913564669896        0.58983963962288
H            2.76906225361516        3.28563401444087        1.19312562501044
13
 energy: -21.441255937688 gnorm: 0.001015915628 xtb: 6.7.1 (edcfbbe)
N            1.10182310129430       -0.02193090226738       -0.03423256643584
N            0.85245449709330        1.17781987692351       -0.70531255352859
N           -0.49174609616284        1.50078426532886       -1.02702284484665
C           -0.73034911034587        2.65335452067346       -0.52468434333932
N            0.30092500203509        3.24253144943860        0.16455631469595
C            1.28978166356854        2.44871755390450        0.13782368077759
N            2.49259690033225        2.48198514828431        0.64069517419768
H            0.52195309328967       -0.09079482022386        0.80099666924553
H            0.90711191523302       -0.82941801434348       -0.62289556579241
H            1.39343700936635        1.16629874062435       -1.58534958614445
H           -1.68299948302441        3.14023468475117       -0.62437221725528
H            3.11318352982761        1.68708044108929        0.59414268828815
H            2.76965797749300        3.28717705581662        1.18803515013762
13
 energy: -21.441257998200 gnorm: 0.000683845721 xtb: 6.7.1 (edcfbbe)
N            1.10295640238983       -0.02162273140523       -0.03412378210802
N            0.85248381413159        1.17848831495829       -0.70432031417201
N           -0.49227113178831        1.50030926518830       -1.02625879315773
C           -0.73034588634777        2.65339707194111       -0.52528969906895
N            0.30114888930807        3.24308568007625        0.16350232292974
C            1.28987046634411        2.44874106050839        0.13785480759078
N            2.49251273771586        2.48164165607906        0.64123165024047
H            0.52230467610056       -0.09129013590626        0.80045624332868
H            0.90885273129452       -0.82874977663035       -0.62305756896710
H            1.39157176732337        1.16675146909134       -1.58630315013288
H           -1.68309810337601        3.14052244804629       -0.62416203810983
H            3.11147282153674        1.68472003689615        0.59615425491907
H            2.77037081536747        3.28784564115659        1.18669606670778
