      -----------------------------------------------------------      
     |                   =====================                   |     
     |                           x T B                           |     
     |                   =====================                   |     
     |                         S. Grimme                         |     
     |          Mulliken Center for Theoretical Chemistry        |     
     |                    University of Bonn                     |     
      -----------------------------------------------------------      

   * xtb version 6.7.1 (edcfbbe) compiled by 'conda@3ef47c1a292c' on 2024-11-25

   xtb is free software: you can redistribute it and/or modify it under
   the terms of the GNU Lesser General Public License as published by
   the Free Software Foundation, either version 3 of the License, or
   (at your option) any later version.
   
   xtb is distributed in the hope that it will be useful,
   but WITHOUT ANY WARRANTY; without even the implied warranty of
   MERCHANTABILITY or FITNESS FOR A PARTICULAR PURPOSE.  See the
   GNU Lesser General Public License for more details.
   
   Cite this work as:
   * C. Bannwarth, E. Caldeweyher, S. Ehlert, A. Hansen, P. Pracht,
     J. Seibert, S. Spicher, S. Grimme, WIREs Comput. Mol. Sci., 2020, 11,
     e01493. DOI: 10.1002/wcms.1493
   
   for GFN2-xTB:
   * C. Bannwarth, S. Ehlert and S. Grimme., J. Chem. Theory Comput., 2019,
     15, 1652-1671. DOI: 10.1021/acs.jctc.8b01176
   for GFN1-xTB:
   * S. Grimme, C. Bannwarth, P. Shushkov, J. Chem. Theory Comput., 2017,
     13, 1989-2009. DOI: 10.1021/acs.jctc.7b00118
   for GFN0-xTB:
   * P. Pracht, E. Caldeweyher, S. Ehlert, S. Grimme, ChemRxiv, 2019, preprint.
     DOI: 10.26434/chemrxiv.8326202.v1
   for GFN-FF:
   * S. Spicher and S. Grimme, Angew. Chem. Int. Ed., 2020, 59, 15665-15673.
     DOI: 10.1002/anie.202004239
   
   for ALPB and GBSA implicit solvation:
   * S. Ehlert, M. Stahn, S. Spicher, S. Grimme, J. Chem. Theory Comput.,
     2021, 17, 4250-4261. DOI: 10.1021/acs.jctc.1c00471
   
   for ddCOSMO and CPCM-X implicit solvation:
   * M. Stahn, S. Ehlert, S. Grimme, J. Phys. Chem. A,
     2023, XX, XXXX-XXXX. DOI: 10.1021/acs.jpca.3c04382
   
   for DFT-D4:
   * E. Caldeweyher, C. Bannwarth and S. Grimme, J. Chem. Phys., 2017,
     147, 034112. DOI: 10.1063/1.4993215
   * E. Caldeweyher, S. Ehlert, A. Hansen, H. Neugebauer, S. Spicher,
     C. Bannwarth and S. Grimme, J. Chem. Phys., 2019, 150, 154122.
     DOI: 10.1063/1.5090222
   * E. Caldeweyher, J.-M. Mewes, S. Ehlert and S. Grimme, Phys. Chem. Chem. Phys.
     2020, 22, 8499-8512. DOI: 10.1039/D0CP00502A
   
   for sTDA-xTB:
   * S. Grimme and C. Bannwarth, J. Chem. Phys., 2016, 145, 054103.
     DOI: 10.1063/1.4959605
   
   in the mass-spec context:
   * V. Asgeirsson, C. Bauer and S. Grimme, Chem. Sci., 2017, 8, 4879.
     DOI: 10.1039/c7sc00601b
   * J. Koopman and S. Grimme, ACS Omega 2019, 4, 12, 15120-15133.
     DOI: 10.1021/acsomega.9b02011
   
   for metadynamics refer to:
   * S. Grimme, J. Chem. Theory Comput., 2019, 155, 2847-2862
     DOI: 10.1021/acs.jctc.9b00143
   
   for SPH calculations refer to:
   * S. Spicher and S. Grimme, J. Chem. Theory Comput., 2021, 17, 1701-1714
     DOI: 10.1021/acs.jctc.0c01306
   
   for ONIOM refer to:
   * C. Plett, A. Katbashev, S. Ehlert, S. Grimme, M. Bursch,
     Phys. Chem. Chem. Phys., 2023, 25, 17860-17868. DOI: 10.1039/D3CP02178E
   
   for DIPRO refer to:
   * J. Kohn, N. Gildemeister, S. Grimme, D. Fazzi, A. Hansen,
     J. Chem. Phys., 2023, just accepted.
   
   for PTB refer to:
   * S. Grimme, M. Mueller, A. Hansen, J. Chem. Phys., 2023, 158, 124111.
     DOI: 10.1063/5.0137838
   
   with help from (in alphabetical order)
   P. Atkinson, C. Bannwarth, F. Bohle, G. Brandenburg, E. Caldeweyher
   M. Checinski, S. Dohm, S. Ehlert, S. Ehrlich, I. Gerasimov, C. Hölzer
   A. Katbashev, J. Kohn, J. Koopman, C. Lavigne, S. Lehtola, F. März, M. Müller,
   F. Musil, H. Neugebauer, J. Pisarek, C. Plett, P. Pracht, F. Pultar,
   J. Seibert, P. Shushkov, S. Spicher, M. Stahn, M. Steiner, T. Strunk,
   J. Stückrath, T. Rose, and J. Unsleber
   
 * started run on 2024/12/20 at 06:44:54.071     
   ID    Z sym.   atoms
    1    6 C      1, 2, 5, 6, 8-15
    2    8 O      3
    3    7 N      4, 7
    4    1 H      16-28

           -------------------------------------------------
          |                Calculation Setup                |
           -------------------------------------------------

          program call               : xtb C0443.xyz --opt --namespace C0443 --charge +1
          calculation namespace      : C0443
          coordinate file            : C0443.xyz
          omp threads                :                     8


           -------------------------------------------------
          |                 G F N 2 - x T B                 |
           -------------------------------------------------

        Reference                      10.1021/acs.jctc.8b01176
      * Hamiltonian:
        H0-scaling (s, p, d)           1.850000    2.230000    2.230000
        zeta-weighting                 0.500000
      * Dispersion:
        s8                             2.700000
        a1                             0.520000
        a2                             5.000000
        s9                             5.000000
      * Repulsion:
        kExp                           1.500000    1.000000
        rExp                           1.000000
      * Coulomb:
        alpha                          2.000000
        third order                    shell-resolved
        anisotropic                    true
        a3                             3.000000
        a5                             4.000000
        cn-shift                       1.200000
        cn-exp                         4.000000
        max-rad                        5.000000


          ...................................................
          :                      SETUP                      :
          :.................................................:
          :  # basis functions                  73          :
          :  # atomic orbitals                  73          :
          :  # shells                           43          :
          :  # electrons                        76          :
          :  max. iterations                   250          :
          :  Hamiltonian                  GFN2-xTB          :
          :  restarted?                      false          :
          :  GBSA solvation                  false          :
          :  PC potential                    false          :
          :  electronic temp.          300.0000000     K    :
          :  accuracy                    1.0000000          :
          :  -> integral cutoff          0.2500000E+02      :
          :  -> integral neglect         0.1000000E-07      :
          :  -> SCF convergence          0.1000000E-05 Eh   :
          :  -> wf. convergence          0.1000000E-03 e    :
          :  Broyden damping             0.4000000          :
          :  net charge                          1          :
          :  unpaired electrons                  0          :
          ...................................................

 iter      E             dE          RMSdq      gap      omega  full diag
   1    -42.3356844 -0.423357E+02  0.436E+00    3.89       0.0  T
   2    -42.4526150 -0.116931E+00  0.271E+00    2.56       1.0  T
   3    -42.4594832 -0.686826E-02  0.148E+00    2.10       1.0  T
   4    -42.4634650 -0.398178E-02  0.366E-01    1.51       1.0  T
   5    -42.4662480 -0.278298E-02  0.116E-01    1.60       1.0  T
   6    -42.4664699 -0.221952E-03  0.576E-02    1.65       1.0  T
   7    -42.4664997 -0.297161E-04  0.231E-02    1.66       1.0  T
   8    -42.4665006 -0.966484E-06  0.835E-03    1.67       2.3  T
   9    -42.4665008 -0.121130E-06  0.345E-03    1.67       5.5  T
  10    -42.4665010 -0.241199E-06  0.135E-03    1.66      14.0  T
  11    -42.4665010 -0.155390E-07  0.609E-04    1.66      31.0  T
  12    -42.4665010 -0.190602E-08  0.170E-04    1.66     111.2  T

   *** convergence criteria satisfied after 12 iterations ***

         #    Occupation            Energy/Eh            Energy/eV
      -------------------------------------------------------------
         1        2.0000           -0.9094909             -24.7485
       ...           ...                  ...                  ...
        32        2.0000           -0.5938254             -16.1588
        33        2.0000           -0.5932452             -16.1430
        34        2.0000           -0.5792932             -15.7634
        35        2.0000           -0.5441361             -14.8067
        36        2.0000           -0.5392895             -14.6748
        37        2.0000           -0.5235314             -14.2460
        38        2.0000           -0.5221618             -14.2087 (HOMO)
        39                         -0.4609953             -12.5443 (LUMO)
        40                         -0.4028915             -10.9632
        41                         -0.3610428              -9.8245
        42                         -0.3530118              -9.6059
        43                         -0.3447636              -9.3815
       ...                                ...                  ...
        73                          0.5104022              13.8888
      -------------------------------------------------------------
                  HL-Gap            0.0611665 Eh            1.6644 eV
             Fermi-level           -0.4915785 Eh          -13.3765 eV

 SCC (total)                   0 d,  0 h,  0 min,  0.017 sec
 SCC setup                      ...        0 min,  0.000 sec (  0.817%)
 Dispersion                     ...        0 min,  0.000 sec (  1.499%)
 classical contributions        ...        0 min,  0.000 sec (  0.292%)
 integral evaluation            ...        0 min,  0.001 sec (  6.947%)
 iterations                     ...        0 min,  0.013 sec ( 73.658%)
 molecular gradient             ...        0 min,  0.003 sec ( 16.068%)
 printout                       ...        0 min,  0.000 sec (  0.627%)

         :::::::::::::::::::::::::::::::::::::::::::::::::::::
         ::                     SUMMARY                     ::
         :::::::::::::::::::::::::::::::::::::::::::::::::::::
         :: total energy             -41.830844988519 Eh    ::
         :: gradient norm              0.095553237452 Eh/a0 ::
         :: HOMO-LUMO gap              1.664424853536 eV    ::
         ::.................................................::
         :: SCC energy               -42.466333877974 Eh    ::
         :: -> isotropic ES            0.107946854524 Eh    ::
         :: -> anisotropic ES         -0.010087107661 Eh    ::
         :: -> anisotropic XC          0.025688463368 Eh    ::
         :: -> dispersion             -0.024554777043 Eh    ::
         :: repulsion energy           0.635488889455 Eh    ::
         :: add. restraining           0.000000000000 Eh    ::
         :: total charge               1.000000000000 e     ::
         :::::::::::::::::::::::::::::::::::::::::::::::::::::

      ----------------------------------------------------------- 
     |                   =====================                   |
     |                        A N C O P T                        |
     |                   =====================                   |
     |               Approximate Normal Coordinate               |
     |                Rational Function Optimizer                |
      ----------------------------------------------------------- 
      ----------------------------------------------------------- 
     |                   =====================                   |
     |                        A N C O P T                        |
     |                   =====================                   |
     |               Approximate Normal Coordinate               |
     |                Rational Function Optimizer                |
      ----------------------------------------------------------- 

          ...................................................
          :                      SETUP                      :
          :.................................................:
          :   optimization level            normal          :
          :   max. optcycles                   200          :
          :   ANC micro-cycles                  20          :
          :   degrees of freedom                78          :
          :.................................................:
          :   RF solver                   davidson          :
          :   write xtbopt.log                true          :
          :   linear?                        false          :
          :   energy convergence         0.5000000E-05 Eh   :
          :   grad. convergence          0.1000000E-02 Eh/α :
          :   maxmium RF displ.          1.0000000          :
          :   Hlow (freq-cutoff)         0.1000000E-01      :
          :   Hmax (freq-cutoff)         5.0000000          :
          :   S6 in model hess.         20.0000000          :
          ...................................................

generating ANC from exact Hessian ...
Using Lindh-Hessian (1995)
 Shifting diagonal of input Hessian by    9.4138601655477834E-003
 Lowest  eigenvalues of input Hessian
    0.000000    0.000000    0.000000    0.000000    0.000000    0.000000
    0.010000    0.010632    0.010987    0.012450    0.016556    0.017253
    0.018702    0.022539    0.023356    0.026649    0.028035    0.030173
 Highest eigenvalues
    1.929655    1.944594    1.991893    2.052180    2.250396    2.348623


........................................................................
.............................. CYCLE    1 ..............................
........................................................................

 iter      E             dE          RMSdq      gap      omega  full diag
   1    -42.4665010 -0.424665E+02  0.959E-05    1.66       0.0  T
   2    -42.4665010 -0.335802E-10  0.616E-05    1.66     306.9  T
   3    -42.4665010 -0.270788E-10  0.380E-05    1.66     496.9  T
     SCC iter.                  ...        0 min,  0.003 sec
     gradient                   ...        0 min,  0.003 sec
 * total energy  :   -41.8308450 Eh     change       -0.2731397E-09 Eh
   gradient norm :     0.0955534 Eh/α   predicted     0.0000000E+00 (-100.00%)
   displ. norm   :     0.2132323 α      lambda       -0.1120855E-01
   maximum displ.:     0.0820288 α      in ANC's #27, #45, #40, ...

........................................................................
.............................. CYCLE    2 ..............................
........................................................................

 iter      E             dE          RMSdq      gap      omega  full diag
   1    -42.5033171 -0.425033E+02  0.223E-01    1.84       0.0  T
   2    -42.5036563 -0.339182E-03  0.125E-01    1.85       1.0  T
   3    -42.5036680 -0.116603E-04  0.629E-02    1.83       1.0  T
   4    -42.5036713 -0.336221E-05  0.258E-02    1.84       1.0  T
   5    -42.5036849 -0.135660E-04  0.519E-03    1.84       3.6  T
   6    -42.5036851 -0.198148E-06  0.252E-03    1.84       7.5  T
   7    -42.5036851 -0.513748E-07  0.108E-03    1.84      17.5  T
   8    -42.5036851 -0.315215E-08  0.424E-04    1.84      44.6  T
   9    -42.5036851 -0.205427E-08  0.202E-04    1.84      93.4  T
     SCC iter.                  ...        0 min,  0.007 sec
     gradient                   ...        0 min,  0.003 sec
 * total energy  :   -41.8387457 Eh     change       -0.7900670E-02 Eh
   gradient norm :     0.0472259 Eh/α   predicted    -0.5861189E-02 ( -25.81%)
   displ. norm   :     0.1878150 α      lambda       -0.4066467E-02
   maximum displ.:     0.1003231 α      in ANC's #7, #40, #45, ...

........................................................................
.............................. CYCLE    3 ..............................
........................................................................

 iter      E             dE          RMSdq      gap      omega  full diag
   1    -42.5210285 -0.425210E+02  0.180E-01    1.99       0.0  T
   2    -42.5213249 -0.296380E-03  0.979E-02    1.99       1.0  T
   3    -42.5213354 -0.104844E-04  0.501E-02    1.97       1.0  T
   4    -42.5213334  0.201142E-05  0.227E-02    1.97       1.0  T
   5    -42.5213423 -0.898583E-05  0.463E-03    1.96       4.1  T
   6    -42.5213425 -0.171702E-06  0.201E-03    1.97       9.4  T
   7    -42.5213425 -0.319945E-07  0.926E-04    1.97      20.4  T
   8    -42.5213425 -0.288740E-08  0.348E-04    1.97      54.3  T
     SCC iter.                  ...        0 min,  0.006 sec
     gradient                   ...        0 min,  0.003 sec
 * total energy  :   -41.8411275 Eh     change       -0.2381855E-02 Eh
   gradient norm :     0.0148576 Eh/α   predicted    -0.2105161E-02 ( -11.62%)
   displ. norm   :     0.1179120 α      lambda       -0.5456767E-03
   maximum displ.:     0.0857111 α      in ANC's #7, #19, #3, ...

........................................................................
.............................. CYCLE    4 ..............................
........................................................................

 iter      E             dE          RMSdq      gap      omega  full diag
   1    -42.5200144 -0.425200E+02  0.671E-02    2.00       0.0  T
   2    -42.5200434 -0.290237E-04  0.363E-02    1.99       1.0  T
   3    -42.5200439 -0.530323E-06  0.172E-02    1.99       1.1  T
   4    -42.5200442 -0.305915E-06  0.677E-03    1.99       2.8  T
   5    -42.5200450 -0.770594E-06  0.169E-03    1.99      11.2  T
   6    -42.5200450 -0.271035E-07  0.744E-04    1.99      25.4  T
   7    -42.5200450 -0.235392E-08  0.341E-04    1.99      55.4  T
     SCC iter.                  ...        0 min,  0.006 sec
     gradient                   ...        0 min,  0.003 sec
 * total energy  :   -41.8415157 Eh     change       -0.3881672E-03 Eh
   gradient norm :     0.0097430 Eh/α   predicted    -0.2766397E-03 ( -28.73%)
   displ. norm   :     0.1248974 α      lambda       -0.2868610E-03
   maximum displ.:     0.0914482 α      in ANC's #7, #3, #19, ...

........................................................................
.............................. CYCLE    5 ..............................
........................................................................

 iter      E             dE          RMSdq      gap      omega  full diag
   1    -42.5175012 -0.425175E+02  0.574E-02    2.00       0.0  T
   2    -42.5175141 -0.129321E-04  0.318E-02    2.00       1.0  T
   3    -42.5175140  0.121642E-06  0.121E-02    1.99       1.6  T
   4    -42.5175142 -0.275529E-06  0.435E-03    1.99       4.3  T
   5    -42.5175147 -0.434453E-06  0.110E-03    1.99      17.2  T
   6    -42.5175147 -0.881447E-08  0.521E-04    1.99      36.2  T
   7    -42.5175147 -0.115424E-08  0.176E-04    1.99     107.1  T
     SCC iter.                  ...        0 min,  0.006 sec
     gradient                   ...        0 min,  0.003 sec
 * total energy  :   -41.8416892 Eh     change       -0.1734843E-03 Eh
   gradient norm :     0.0042913 Eh/α   predicted    -0.1457126E-03 ( -16.01%)
   displ. norm   :     0.0557044 α      lambda       -0.4714330E-04
   maximum displ.:     0.0350358 α      in ANC's #7, #3, #1, ...

........................................................................
.............................. CYCLE    6 ..............................
........................................................................

 iter      E             dE          RMSdq      gap      omega  full diag
   1    -42.5173940 -0.425174E+02  0.202E-02    2.00       0.0  T
   2    -42.5173946 -0.617195E-06  0.115E-02    2.00       1.6  T
   3    -42.5173946  0.632748E-07  0.296E-03    2.00       6.4  T
   4    -42.5173947 -0.905197E-07  0.110E-03    2.00      17.2  T
   5    -42.5173947 -0.283603E-07  0.342E-04    2.00      55.3  T
   6    -42.5173947 -0.517971E-09  0.150E-04    2.00     126.3  T
     SCC iter.                  ...        0 min,  0.005 sec
     gradient                   ...        0 min,  0.003 sec
 * total energy  :   -41.8417217 Eh     change       -0.3253970E-04 Eh
   gradient norm :     0.0017669 Eh/α   predicted    -0.2365156E-04 ( -27.31%)
   displ. norm   :     0.0815244 α      lambda       -0.2425134E-04
   maximum displ.:     0.0537211 α      in ANC's #3, #1, #7, ...

........................................................................
.............................. CYCLE    7 ..............................
........................................................................

 iter      E             dE          RMSdq      gap      omega  full diag
   1    -42.5180736 -0.425181E+02  0.255E-02    2.00       0.0  T
   2    -42.5180740 -0.483248E-06  0.146E-02    2.00       1.3  T
   3    -42.5180739  0.125532E-06  0.348E-03    2.00       5.4  T
   4    -42.5180741 -0.196343E-06  0.994E-04    2.00      19.0  T
   5    -42.5180741 -0.171453E-07  0.423E-04    2.00      44.7  T
     SCC iter.                  ...        0 min,  0.004 sec
     gradient                   ...        0 min,  0.003 sec
 * total energy  :   -41.8417413 Eh     change       -0.1961796E-04 Eh
   gradient norm :     0.0022302 Eh/α   predicted    -0.1217124E-04 ( -37.96%)
   displ. norm   :     0.0272249 α      lambda       -0.9361010E-05
   maximum displ.:     0.0205602 α      in ANC's #3, #1, #11, ...

........................................................................
.............................. CYCLE    8 ..............................
........................................................................

 iter      E             dE          RMSdq      gap      omega  full diag
   1    -42.5182856 -0.425183E+02  0.880E-03    2.00       0.0  T
   2    -42.5182856 -0.421526E-07  0.517E-03    2.00       3.7  T
   3    -42.5182856  0.264549E-07  0.112E-03    2.00      16.9  T
   4    -42.5182856 -0.320387E-07  0.352E-04    2.00      53.7  T
   5    -42.5182856 -0.243602E-08  0.111E-04    2.00     170.7  T
     SCC iter.                  ...        0 min,  0.004 sec
     gradient                   ...        0 min,  0.003 sec
 * total energy  :   -41.8417497 Eh     change       -0.8339117E-05 Eh
   gradient norm :     0.0017196 Eh/α   predicted    -0.4687132E-05 ( -43.79%)
   displ. norm   :     0.0949412 α      lambda       -0.1877856E-04
   maximum displ.:     0.0706989 α      in ANC's #3, #1, #11, ...

........................................................................
.............................. CYCLE    9 ..............................
........................................................................

 iter      E             dE          RMSdq      gap      omega  full diag
   1    -42.5185196 -0.425185E+02  0.305E-02    2.00       0.0  T
   2    -42.5185200 -0.425350E-06  0.179E-02    2.00       1.1  T
   3    -42.5185197  0.334388E-06  0.394E-03    2.00       4.8  T
   4    -42.5185201 -0.417956E-06  0.104E-03    2.00      18.2  T
   5    -42.5185201 -0.156100E-07  0.398E-04    2.00      47.5  T
   6    -42.5185201 -0.260123E-09  0.195E-04    2.00      96.7  T
     SCC iter.                  ...        0 min,  0.005 sec
     gradient                   ...        0 min,  0.003 sec
 * total energy  :   -41.8417672 Eh     change       -0.1752851E-04 Eh
   gradient norm :     0.0009223 Eh/α   predicted    -0.9429580E-05 ( -46.20%)
   displ. norm   :     0.0618217 α      lambda       -0.6545795E-05
   maximum displ.:     0.0474566 α      in ANC's #3, #1, #11, ...

........................................................................
.............................. CYCLE   10 ..............................
........................................................................

 iter      E             dE          RMSdq      gap      omega  full diag
   1    -42.5183793 -0.425184E+02  0.187E-02    2.00       0.0  T
   2    -42.5183794 -0.613963E-07  0.110E-02    2.00       1.7  T
   3    -42.5183793  0.825910E-07  0.191E-03    2.00       9.9  T
   4    -42.5183794 -0.108618E-06  0.435E-04    2.00      43.5  T
   5    -42.5183794 -0.125569E-08  0.221E-04    2.00      85.5  T
     SCC iter.                  ...        0 min,  0.004 sec
     gradient                   ...        0 min,  0.003 sec
 * total energy  :   -41.8417760 Eh     change       -0.8770869E-05 Eh
   gradient norm :     0.0009969 Eh/α   predicted    -0.3291764E-05 ( -62.47%)
   displ. norm   :     0.0726385 α      lambda       -0.9175344E-05
   maximum displ.:     0.0541066 α      in ANC's #3, #1, #2, ...

........................................................................
.............................. CYCLE   11 ..............................
........................................................................

 iter      E             dE          RMSdq      gap      omega  full diag
   1    -42.5182818 -0.425183E+02  0.221E-02    2.00       0.0  T
   2    -42.5182819 -0.585930E-07  0.130E-02    2.00       1.5  T
   3    -42.5182818  0.644448E-07  0.170E-03    2.00      11.1  T
   4    -42.5182819 -0.941626E-07  0.448E-04    2.00      42.1  T
   5    -42.5182819 -0.393506E-09  0.179E-04    2.00     105.8  T
     SCC iter.                  ...        0 min,  0.004 sec
     gradient                   ...        0 min,  0.003 sec
 * total energy  :   -41.8417882 Eh     change       -0.1223789E-04 Eh
   gradient norm :     0.0008190 Eh/α   predicted    -0.4605839E-05 ( -62.36%)
   displ. norm   :     0.1174651 α      lambda       -0.1283984E-04
   maximum displ.:     0.0861526 α      in ANC's #3, #1, #2, ...

........................................................................
.............................. CYCLE   12 ..............................
........................................................................

 iter      E             dE          RMSdq      gap      omega  full diag
   1    -42.5181335 -0.425181E+02  0.358E-02    2.00       0.0  T
   2    -42.5181337 -0.172108E-06  0.210E-02    2.00       1.0  T
   3    -42.5181335  0.247225E-06  0.329E-03    2.00       5.8  T
   4    -42.5181338 -0.335425E-06  0.711E-04    2.00      26.6  T
   5    -42.5181338 -0.898780E-09  0.328E-04    2.00      57.7  T
     SCC iter.                  ...        0 min,  0.004 sec
     gradient                   ...        0 min,  0.003 sec
 * total energy  :   -41.8418040 Eh     change       -0.1579918E-04 Eh
   gradient norm :     0.0007527 Eh/α   predicted    -0.6463968E-05 ( -59.09%)
   displ. norm   :     0.1241931 α      lambda       -0.1001565E-04
   maximum displ.:     0.0921057 α      in ANC's #3, #1, #2, ...

........................................................................
.............................. CYCLE   13 ..............................
........................................................................

 iter      E             dE          RMSdq      gap      omega  full diag
   1    -42.5180978 -0.425181E+02  0.373E-02    2.01       0.0  T
   2    -42.5180980 -0.200507E-06  0.219E-02    2.01       1.0  T
   3    -42.5180977  0.294196E-06  0.362E-03    2.01       5.2  T
   4    -42.5180981 -0.399162E-06  0.785E-04    2.01      24.1  T
   5    -42.5180981 -0.107169E-08  0.376E-04    2.01      50.3  T
     SCC iter.                  ...        0 min,  0.004 sec
     gradient                   ...        0 min,  0.003 sec
 * total energy  :   -41.8418157 Eh     change       -0.1168738E-04 Eh
   gradient norm :     0.0006653 Eh/α   predicted    -0.5043223E-05 ( -56.85%)
   displ. norm   :     0.0853910 α      lambda       -0.5599872E-05
   maximum displ.:     0.0657807 α      in ANC's #3, #1, #2, ...

........................................................................
.............................. CYCLE   14 ..............................
........................................................................

 iter      E             dE          RMSdq      gap      omega  full diag
   1    -42.5182335 -0.425182E+02  0.270E-02    2.01       0.0  T
   2    -42.5182336 -0.105358E-06  0.159E-02    2.01       1.2  T
   3    -42.5182334  0.167695E-06  0.271E-03    2.01       7.0  T
   4    -42.5182336 -0.222275E-06  0.550E-04    2.01      34.4  T
   5    -42.5182336 -0.681858E-09  0.269E-04    2.01      70.3  T
     SCC iter.                  ...        0 min,  0.004 sec
     gradient                   ...        0 min,  0.003 sec
 * total energy  :   -41.8418225 Eh     change       -0.6862762E-05 Eh
   gradient norm :     0.0004879 Eh/α   predicted    -0.2810188E-05 ( -59.05%)
   displ. norm   :     0.0522699 α      lambda       -0.3553512E-05
   maximum displ.:     0.0429177 α      in ANC's #3, #1, #2, ...

........................................................................
.............................. CYCLE   15 ..............................
........................................................................

 iter      E             dE          RMSdq      gap      omega  full diag
   1    -42.5184171 -0.425184E+02  0.174E-02    2.01       0.0  T
   2    -42.5184172 -0.392976E-07  0.103E-02    2.01       1.8  T
   3    -42.5184171  0.455612E-07  0.147E-03    2.01      12.8  T
   4    -42.5184172 -0.664472E-07  0.389E-04    2.01      48.5  T
   5    -42.5184172 -0.290093E-09  0.183E-04    2.01     103.4  T
     SCC iter.                  ...        0 min,  0.004 sec
     gradient                   ...        0 min,  0.024 sec
 * total energy  :   -41.8418273 Eh     change       -0.4782802E-05 Eh
   gradient norm :     0.0003248 Eh/α   predicted    -0.1781142E-05 ( -62.76%)
   displ. norm   :     0.0436370 α      lambda       -0.3370170E-05
   maximum displ.:     0.0373348 α      in ANC's #3, #1, #4, ...

   *** GEOMETRY OPTIMIZATION CONVERGED AFTER 15 ITERATIONS ***

------------------------------------------------------------------------
 total energy gain   :        -0.0109823 Eh       -6.8915 kcal/mol
 total RMSD          :         0.1934312 a0        0.1024 Å
 total power (kW/mol):        -1.9222757 (step) -179.0803 (real)
------------------------------------------------------------------------

 ANCopt (total)                0 d,  0 h,  0 min,  0.161 sec
 optimizer setup                ...        0 min,  0.000 sec (  0.056%)
 model hessian                  ...        0 min,  0.007 sec (  4.267%)
 ANC generation                 ...        0 min,  0.001 sec (  0.322%)
 coordinate transformation      ...        0 min,  0.000 sec (  0.072%)
 single point calculation       ...        0 min,  0.150 sec ( 92.971%)
 optimization log               ...        0 min,  0.001 sec (  0.714%)
 hessian update                 ...        0 min,  0.001 sec (  0.624%)
 rational function              ...        0 min,  0.001 sec (  0.626%)

================
 final structure:
================
28
 xtb: 6.7.1 (edcfbbe)
C            1.44557031486794        0.67282170351884       -0.17271762140373
C            0.26408323007981        1.08563136889024        0.61907634761331
O           -0.88515775870825        1.01317046288263        0.33244159057085
N            0.58943460436543        1.65543169177143        1.92844620727572
C            1.80702764053134        1.90481833440861        2.50335432612706
C            1.56630528632802        2.44785256787459        3.72551207032075
N            0.21138760151406        2.51863103276308        3.88812457110875
C           -0.35812318750019        2.04278842905650        2.79655139640932
C           -0.48109155775410        3.11119869035808        5.01670142666654
C           -0.90477881059391        4.52224203180004        4.66512763643843
C           -0.01690617186836        5.57767508666550        4.82694708843283
C           -0.39806779639269        6.86313614178023        4.48332754426002
C           -1.66328969361270        7.09832450180856        3.97144038293592
C           -2.54977467798670        6.04724616517227        3.80580588977225
C           -2.17106521077950        4.76060762261410        4.14744069865410
H            1.10558929042524        0.24333076306799       -1.11216998338263
H            2.03200739290608       -0.06917146569513        0.36709216525695
H            2.08303036410701        1.52980493742976       -0.38631753843867
H            2.73997291845985        1.68845348115812        2.02568876931644
H            2.25523925280609        2.77555005665347        4.47773043591056
H           -1.41182636156491        1.96451028203182        2.60411655501769
H           -1.35556655558817        2.50110663784251        5.25138133169960
H            0.19784572841045        3.11282456815245        5.87090217396494
H            0.96754548595522        5.40074734375829        5.23531096238118
H            0.29234036184501        7.68057439910054        4.61976535434596
H           -1.96027535993250        8.10082652595083        3.70686577515216
H           -3.53852902552483        6.22749881328313        3.41432173749728
H           -2.87105730479425        3.94625782590217        4.02912270609583

 Bond Distances (Angstroems)
 ---------------------------
C1-C2=1.4810         C1-H16=1.0875        C1-H17=1.0890        C1-H18=1.0892        C2-C1=1.4810         C2-O3=1.1867         
C2-N4=1.4646         O3-C2=1.1867         N4-C2=1.4646         N4-C5=1.3694         N4-C8=1.3422         C5-N4=1.3694         
C5-C6=1.3589         C5-H19=1.0702        C6-C5=1.3589         C6-N7=1.3665         C6-H20=1.0714        N7-C6=1.3665         
N7-C8=1.3200         N7-C9=1.4506         C8-N4=1.3422         C8-N7=1.3200         C8-H21=1.0740        C9-N7=1.4506         
C9-C10=1.5146        C9-H22=1.0918        C9-H23=1.0912        C10-C9=1.5146        C10-C11=1.3887       C10-C15=1.3886       
C11-C10=1.3887       C11-C12=1.3841       C11-H24=1.0804       C12-C11=1.3841       C12-C13=1.3850       C12-H25=1.0786       
C13-C12=1.3850       C13-C14=1.3849       C13-H26=1.0785       C14-C13=1.3849       C14-C15=1.3840       C14-H27=1.0786       
C15-C10=1.3886       C15-C14=1.3840       C15-H28=1.0803       H16-C1=1.0875        H17-C1=1.0890        H18-C1=1.0892        
H19-C5=1.0702        H20-C6=1.0714        H21-C8=1.0740        H22-C9=1.0918        H23-C9=1.0912        H24-C11=1.0804       
H25-C12=1.0786       H26-C13=1.0785       H27-C14=1.0786       H28-C15=1.0803       
 C  H  Rav=1.0816 sigma=0.0071  Rmin=1.0702  Rmax=1.0918    13
 C  C  Rav=1.4078 sigma=0.0495  Rmin=1.3589  Rmax=1.5146     9
 N  C  Rav=1.3855 sigma=0.0537  Rmin=1.3200  Rmax=1.4646     6
 O  C  Rav=1.1867 sigma=0.0000  Rmin=1.1867  Rmax=1.1867     1

 selected bond angles (degree)
 --------------------
H16-C1-C2=108.82               H17-C1-C2=110.76               H17-C1-H16=109.12              H18-C1-C2=110.64               
H18-C1-H16=108.92              H18-C1-H17=108.55              O3-C2-C1=128.79                N4-C2-C1=114.16                
N4-C2-O3=117.06                C5-N4-C2=130.07                C8-N4-C2=122.25                C8-N4-C5=107.68                
C6-C5-N4=107.03                H19-C5-N4=123.43               H19-C5-C6=129.54               N7-C6-C5=107.66                
H20-C6-C5=129.78               H20-C6-N7=122.56               C8-N7-C6=108.10                C9-N7-C6=125.95                
C9-N7-C8=125.78                N7-C8-N4=109.53                H21-C8-N4=123.76               H21-C8-N7=126.71               
C10-C9-N7=109.48               H22-C9-N7=108.74               H22-C9-C10=110.27              H23-C9-N7=108.22               
H23-C9-C10=110.76              H23-C9-H22=109.33              C11-C10-C9=120.14              C15-C10-C9=120.10              
C15-C10-C11=119.74             

 selected dihedral angles (degree)
 ---------------------------------
O3-C2-C1-H16=358.75           O3-C2-C1-H17=238.80           O3-C2-C1-H18=118.38           N4-C2-C1-H16=178.68           
N4-C2-C1-H17= 58.74           N4-C2-C1-H18=298.31           C5-N4-C2-C1=  2.61            C5-N4-C2-O3=182.56            
C8-N4-C2-C1=182.21            C8-N4-C2-O3=  2.16            C6-C5-N4-C2=179.56            C6-C5-N4-C8=359.92            
H19-C5-N4-C2=359.55           H19-C5-N4-C8=179.90           N7-C6-C5-N4=  0.30            N7-C6-C5-H19=180.32           
H20-C6-C5-N4=179.83           H20-C6-C5-H19=359.85          C8-N7-C6-C5=359.58            C8-N7-C6-H20=180.01           
C9-N7-C6-C5=184.09            C9-N7-C6-H20=  4.52           N7-C8-N4-C2=180.14            N7-C8-N4-C5=359.81            
H21-C8-N4-C2=  0.17           H21-C8-N4-C5=179.84           N4-C8-N7-C6=  0.38            N4-C8-N7-C9=175.88            
H21-C8-N7-C6=180.35           H21-C8-N7-C9=355.85           C10-C9-N7-C6= 97.70           C10-C9-N7-C8=282.98           
H22-C9-N7-C6=218.23           H22-C9-N7-C8= 43.52           H23-C9-N7-C6=336.89           H23-C9-N7-C8=162.17           
C11-C10-C9-N7=275.03          C11-C10-C9-H22=155.43         C11-C10-C9-H23= 34.29         C15-C10-C9-N7= 93.38          
C15-C10-C9-H22=333.78         C15-C10-C9-H23=212.64         
           -------------------------------------------------
          |                Final Singlepoint                |
           -------------------------------------------------

          ...................................................
          :                      SETUP                      :
          :.................................................:
          :  # basis functions                  73          :
          :  # atomic orbitals                  73          :
          :  # shells                           43          :
          :  # electrons                        76          :
          :  max. iterations                   250          :
          :  Hamiltonian                  GFN2-xTB          :
          :  restarted?                      false          :
          :  GBSA solvation                  false          :
          :  PC potential                    false          :
          :  electronic temp.          300.0000000     K    :
          :  accuracy                    1.0000000          :
          :  -> integral cutoff          0.2500000E+02      :
          :  -> integral neglect         0.1000000E-07      :
          :  -> SCF convergence          0.1000000E-05 Eh   :
          :  -> wf. convergence          0.1000000E-03 e    :
          :  Broyden damping             0.4000000          :
          :  net charge                          1          :
          :  unpaired electrons                  0          :
          ...................................................

 iter      E             dE          RMSdq      gap      omega  full diag
   1    -42.5184172 -0.425184E+02  0.651E-05    2.01       0.0  T
   2    -42.5184172 -0.228653E-10  0.431E-05    2.01     438.3  T
   3    -42.5184172 -0.145519E-10  0.282E-05    2.01     669.1  T

   *** convergence criteria satisfied after 3 iterations ***

         #    Occupation            Energy/Eh            Energy/eV
      -------------------------------------------------------------
         1        2.0000           -0.9060206             -24.6541
       ...           ...                  ...                  ...
        32        2.0000           -0.5951837             -16.1958
        33        2.0000           -0.5941300             -16.1671
        34        2.0000           -0.5890484             -16.0288
        35        2.0000           -0.5438310             -14.7984
        36        2.0000           -0.5392893             -14.6748
        37        2.0000           -0.5250332             -14.2869
        38        2.0000           -0.5241499             -14.2628 (HOMO)
        39                         -0.4502448             -12.2518 (LUMO)
        40                         -0.3941394             -10.7251
        41                         -0.3636721              -9.8960
        42                         -0.3490599              -9.4984
        43                         -0.3422080              -9.3120
       ...                                ...                  ...
        73                          0.5443126              14.8115
      -------------------------------------------------------------
                  HL-Gap            0.0739051 Eh            2.0111 eV
             Fermi-level           -0.4871973 Eh          -13.2573 eV

 SCC (total)                   0 d,  0 h,  0 min,  0.027 sec
 SCC setup                      ...        0 min,  0.000 sec (  0.261%)
 Dispersion                     ...        0 min,  0.001 sec (  4.573%)
 classical contributions        ...        0 min,  0.000 sec (  0.070%)
 integral evaluation            ...        0 min,  0.006 sec ( 23.099%)
 iterations                     ...        0 min,  0.010 sec ( 36.373%)
 molecular gradient             ...        0 min,  0.009 sec ( 35.091%)
 printout                       ...        0 min,  0.000 sec (  0.453%)

         :::::::::::::::::::::::::::::::::::::::::::::::::::::
         ::                     SUMMARY                     ::
         :::::::::::::::::::::::::::::::::::::::::::::::::::::
         :: total energy             -41.841827331292 Eh    ::
         :: gradient norm              0.000324158514 Eh/a0 ::
         :: HOMO-LUMO gap              2.011061203753 eV    ::
         ::.................................................::
         :: SCC energy               -42.518221203018 Eh    ::
         :: -> isotropic ES            0.102898669545 Eh    ::
         :: -> anisotropic ES         -0.009314274088 Eh    ::
         :: -> anisotropic XC          0.024111667590 Eh    ::
         :: -> dispersion             -0.024664156697 Eh    ::
         :: repulsion energy           0.676393871726 Eh    ::
         :: add. restraining           0.000000000000 Eh    ::
         :: total charge               1.000000000000 e     ::
         :::::::::::::::::::::::::::::::::::::::::::::::::::::

           -------------------------------------------------
          |                Property Printout                |
           -------------------------------------------------

    * Orbital Energies and Occupations

         #    Occupation            Energy/Eh            Energy/eV
      -------------------------------------------------------------
         1        2.0000           -0.9060206             -24.6541
       ...           ...                  ...                  ...
        26        2.0000           -0.6327175             -17.2171
        27        2.0000           -0.6261326             -17.0379
        28        2.0000           -0.6162296             -16.7685
        29        2.0000           -0.6044179             -16.4470
        30        2.0000           -0.6011543             -16.3582
        31        2.0000           -0.5969029             -16.2426
        32        2.0000           -0.5951837             -16.1958
        33        2.0000           -0.5941300             -16.1671
        34        2.0000           -0.5890484             -16.0288
        35        2.0000           -0.5438310             -14.7984
        36        2.0000           -0.5392893             -14.6748
        37        2.0000           -0.5250332             -14.2869
        38        2.0000           -0.5241499             -14.2628 (HOMO)
        39                         -0.4502448             -12.2518 (LUMO)
        40                         -0.3941394             -10.7251
        41                         -0.3636721              -9.8960
        42                         -0.3490599              -9.4984
        43                         -0.3422080              -9.3120
        44                         -0.2221952              -6.0462
        45                         -0.1936550              -5.2696
        46                         -0.1393323              -3.7914
        47                         -0.0639447              -1.7400
        48                         -0.0524500              -1.4272
        49                         -0.0449420              -1.2229
       ...                                ...                  ...
        73                          0.5443126              14.8115
      -------------------------------------------------------------
                  HL-Gap            0.0739051 Eh            2.0111 eV
             Fermi-level           -0.4871973 Eh          -13.2573 eV

     #   Z          covCN         q      C6AA      α(0)
     1   6 C        3.754    -0.160    23.667     6.937
     2   6 C        2.749     0.293    22.039     7.687
     3   8 O        0.858    -0.280    19.423     5.909
     4   7 N        2.868     0.011    21.062     6.816
     5   6 C        3.049     0.002    27.926     8.667
     6   6 C        3.075    -0.001    27.977     8.672
     7   7 N        2.864     0.082    19.815     6.611
     8   6 C        3.088     0.070    26.338     8.412
     9   6 C        3.748    -0.032    21.214     6.569
    10   6 C        2.973    -0.004    28.113     8.697
    11   6 C        2.922    -0.036    28.892     8.815
    12   6 C        2.919    -0.021    28.536     8.760
    13   6 C        2.920    -0.019    28.475     8.751
    14   6 C        2.919    -0.021    28.522     8.758
    15   6 C        2.922    -0.037    28.922     8.819
    16   1 H        0.925     0.120     1.616     1.988
    17   1 H        0.925     0.109     1.703     2.041
    18   1 H        0.925     0.110     1.694     2.035
    19   1 H        0.927     0.114     1.666     2.018
    20   1 H        0.926     0.114     1.659     2.014
    21   1 H        0.926     0.135     1.495     1.912
    22   1 H        0.924     0.092     1.857     2.131
    23   1 H        0.924     0.095     1.831     2.116
    24   1 H        0.926     0.040     2.442     2.444
    25   1 H        0.926     0.059     2.211     2.325
    26   1 H        0.926     0.062     2.171     2.304
    27   1 H        0.926     0.060     2.195     2.317
    28   1 H        0.926     0.041     2.436     2.441

 Mol. C6AA /au·bohr⁶  :       8687.920768
 Mol. C8AA /au·bohr⁸  :     209007.315342
 Mol. α(0) /au        :        146.967017


Wiberg/Mayer (AO) data.
largest (>0.10) Wiberg bond orders for each atom

 ---------------------------------------------------------------------------
     #   Z sym  total        # sym  WBO       # sym  WBO       # sym  WBO
 ---------------------------------------------------------------------------
     1   6 C    3.977 --     2 C    1.034    16 H    0.967    17 H    0.943
                            18 H    0.940
     2   6 C    3.918 --     3 O    1.897     1 C    1.034     4 N    0.921
     3   8 O    2.166 --     2 C    1.897
     4   7 N    3.686 --     8 C    1.313     5 C    1.199     2 C    0.921
     5   6 C    3.947 --     6 C    1.619     4 N    1.199    19 H    0.959
     6   6 C    3.947 --     5 C    1.619     7 N    1.205    20 H    0.959
     7   7 N    3.732 --     8 C    1.414     6 C    1.205     9 C    0.953
     8   6 C    3.943 --     7 N    1.414     4 N    1.313    21 H    0.948
     9   6 C    3.926 --    10 C    0.971    23 H    0.963    22 H    0.959
                             7 N    0.953
    10   6 C    3.973 --    11 C    1.414    15 C    1.414     9 C    0.971
                            13 C    0.109
    11   6 C    3.991 --    12 C    1.442    10 C    1.414    24 H    0.968
                            14 C    0.111
    12   6 C    3.990 --    11 C    1.442    13 C    1.439    25 H    0.968
                            15 C    0.111
    13   6 C    3.987 --    12 C    1.439    14 C    1.438    26 H    0.968
                            10 C    0.109
    14   6 C    3.989 --    15 C    1.442    13 C    1.438    27 H    0.968
                            11 C    0.111
    15   6 C    3.991 --    14 C    1.442    10 C    1.414    28 H    0.968
                            12 C    0.111
    16   1 H    0.985 --     1 C    0.967
    17   1 H    0.988 --     1 C    0.943
    18   1 H    0.988 --     1 C    0.940
    19   1 H    0.987 --     5 C    0.959
    20   1 H    0.986 --     6 C    0.959
    21   1 H    0.982 --     8 C    0.948
    22   1 H    0.991 --     9 C    0.959
    23   1 H    0.990 --     9 C    0.963
    24   1 H    0.998 --    11 C    0.968
    25   1 H    0.996 --    12 C    0.968
    26   1 H    0.995 --    13 C    0.968
    27   1 H    0.996 --    14 C    0.968
    28   1 H    0.998 --    15 C    0.968
 ---------------------------------------------------------------------------

Topologies differ in total number of bonds
Writing topology from bond orders to xtbtopo.mol

molecular dipole:
                 x           y           z       tot (Debye)
 q only:        1.409       4.923       5.645
   full:        1.535       4.846       5.736      19.480
molecular quadrupole (traceless):
                xx          xy          yy          xz          yz          zz
 q only:      -30.203      -1.216      10.348       1.025      52.609      19.855
  q+dip:      -27.860       0.418       9.687       3.464      51.213      18.173
   full:      -29.958      -0.028      10.120       1.876      50.716      19.838

           -------------------------------------------------
          |                Geometry Summary                 |
           -------------------------------------------------

      molecular mass/u    :      201.2448719
   center of mass at/Å    :       -0.2184554       3.3503607       3.0426047
  moments of inertia/u·Å² :        0.4018093E+03   0.1582959E+04   0.1724498E+04
rotational constants/cm⁻¹ :        0.4195432E-01   0.1064944E-01   0.9775386E-02

 * 27 selected distances

     #   Z          #   Z                                           value/Å
     1   6 C        2   6 C                                       1.4809665 (max)
     2   6 C        3   8 O                                       1.1866614
     4   7 N        5   6 C                                       1.3693963
     5   6 C        6   6 C                                       1.3588610
     6   6 C        7   7 N                                       1.3664753
     4   7 N        8   6 C                                       1.3422064
     7   7 N        8   6 C                                       1.3199625
     7   7 N        9   6 C                                       1.4506378
    10   6 C       11   6 C                                       1.3886838
    11   6 C       12   6 C                                       1.3841131
    12   6 C       13   6 C                                       1.3849653
    13   6 C       14   6 C                                       1.3849391
    10   6 C       15   6 C                                       1.3886322
    14   6 C       15   6 C                                       1.3840427
     1   6 C       16   1 H                                       1.0874836
     1   6 C       17   1 H                                       1.0889707
     1   6 C       18   1 H                                       1.0892202
     5   6 C       19   1 H                                       1.0702174 (min)
     6   6 C       20   1 H                                       1.0713768
     8   6 C       21   1 H                                       1.0739875
     9   6 C       22   1 H                                       1.0917846
     9   6 C       23   1 H                                       1.0911543
    11   6 C       24   1 H                                       1.0803748
    12   6 C       25   1 H                                       1.0786493
    13   6 C       26   1 H                                       1.0785225
    14   6 C       27   1 H                                       1.0786038
    15   6 C       28   1 H                                       1.0803490

 * 4 distinct bonds (by element types)

   Z      Z             #   av. dist./Å        max./Å        min./Å
   1 H    6 C          13     1.0815919     1.0917846     1.0702174
   6 C    6 C           8     1.3944005     1.4809665     1.3588610
   6 C    7 N           5     1.3697356     1.4506378     1.3199625
   6 C    8 O           1     1.1866614     1.1866614     1.1866614


optimized geometry written to: xtbopt.xyz


           -------------------------------------------------
          | TOTAL ENERGY              -41.841827331292 Eh   |
          | GRADIENT NORM               0.000324158514 Eh/α |
          | HOMO-LUMO GAP               2.011061203753 eV   |
           -------------------------------------------------

------------------------------------------------------------------------
 * finished run on 2024/12/20 at 06:44:54.294     
------------------------------------------------------------------------
 total:
 * wall-time:     0 d,  0 h,  0 min,  0.223 sec
 *  cpu-time:     0 d,  0 h,  0 min,  1.685 sec
 * ratio c/w:     7.551 speedup
 SCF:
 * wall-time:     0 d,  0 h,  0 min,  0.017 sec
 *  cpu-time:     0 d,  0 h,  0 min,  0.137 sec
 * ratio c/w:     7.917 speedup
 ANC optimizer:
 * wall-time:     0 d,  0 h,  0 min,  0.189 sec
 *  cpu-time:     0 d,  0 h,  0 min,  1.427 sec
 * ratio c/w:     7.551 speedup

