      -----------------------------------------------------------      
     |                   =====================                   |     
     |                           x T B                           |     
     |                   =====================                   |     
     |                         S. Grimme                         |     
     |          Mulliken Center for Theoretical Chemistry        |     
     |                    University of Bonn                     |     
      -----------------------------------------------------------      

   * xtb version 6.7.1 (edcfbbe) compiled by 'conda@3ef47c1a292c' on 2024-11-25

   xtb is free software: you can redistribute it and/or modify it under
   the terms of the GNU Lesser General Public License as published by
   the Free Software Foundation, either version 3 of the License, or
   (at your option) any later version.
   
   xtb is distributed in the hope that it will be useful,
   but WITHOUT ANY WARRANTY; without even the implied warranty of
   MERCHANTABILITY or FITNESS FOR A PARTICULAR PURPOSE.  See the
   GNU Lesser General Public License for more details.
   
   Cite this work as:
   * C. Bannwarth, E. Caldeweyher, S. Ehlert, A. Hansen, P. Pracht,
     J. Seibert, S. Spicher, S. Grimme, WIREs Comput. Mol. Sci., 2020, 11,
     e01493. DOI: 10.1002/wcms.1493
   
   for GFN2-xTB:
   * C. Bannwarth, S. Ehlert and S. Grimme., J. Chem. Theory Comput., 2019,
     15, 1652-1671. DOI: 10.1021/acs.jctc.8b01176
   for GFN1-xTB:
   * S. Grimme, C. Bannwarth, P. Shushkov, J. Chem. Theory Comput., 2017,
     13, 1989-2009. DOI: 10.1021/acs.jctc.7b00118
   for GFN0-xTB:
   * P. Pracht, E. Caldeweyher, S. Ehlert, S. Grimme, ChemRxiv, 2019, preprint.
     DOI: 10.26434/chemrxiv.8326202.v1
   for GFN-FF:
   * S. Spicher and S. Grimme, Angew. Chem. Int. Ed., 2020, 59, 15665-15673.
     DOI: 10.1002/anie.202004239
   
   for ALPB and GBSA implicit solvation:
   * S. Ehlert, M. Stahn, S. Spicher, S. Grimme, J. Chem. Theory Comput.,
     2021, 17, 4250-4261. DOI: 10.1021/acs.jctc.1c00471
   
   for ddCOSMO and CPCM-X implicit solvation:
   * M. Stahn, S. Ehlert, S. Grimme, J. Phys. Chem. A,
     2023, XX, XXXX-XXXX. DOI: 10.1021/acs.jpca.3c04382
   
   for DFT-D4:
   * E. Caldeweyher, C. Bannwarth and S. Grimme, J. Chem. Phys., 2017,
     147, 034112. DOI: 10.1063/1.4993215
   * E. Caldeweyher, S. Ehlert, A. Hansen, H. Neugebauer, S. Spicher,
     C. Bannwarth and S. Grimme, J. Chem. Phys., 2019, 150, 154122.
     DOI: 10.1063/1.5090222
   * E. Caldeweyher, J.-M. Mewes, S. Ehlert and S. Grimme, Phys. Chem. Chem. Phys.
     2020, 22, 8499-8512. DOI: 10.1039/D0CP00502A
   
   for sTDA-xTB:
   * S. Grimme and C. Bannwarth, J. Chem. Phys., 2016, 145, 054103.
     DOI: 10.1063/1.4959605
   
   in the mass-spec context:
   * V. Asgeirsson, C. Bauer and S. Grimme, Chem. Sci., 2017, 8, 4879.
     DOI: 10.1039/c7sc00601b
   * J. Koopman and S. Grimme, ACS Omega 2019, 4, 12, 15120-15133.
     DOI: 10.1021/acsomega.9b02011
   
   for metadynamics refer to:
   * S. Grimme, J. Chem. Theory Comput., 2019, 155, 2847-2862
     DOI: 10.1021/acs.jctc.9b00143
   
   for SPH calculations refer to:
   * S. Spicher and S. Grimme, J. Chem. Theory Comput., 2021, 17, 1701-1714
     DOI: 10.1021/acs.jctc.0c01306
   
   for ONIOM refer to:
   * C. Plett, A. Katbashev, S. Ehlert, S. Grimme, M. Bursch,
     Phys. Chem. Chem. Phys., 2023, 25, 17860-17868. DOI: 10.1039/D3CP02178E
   
   for DIPRO refer to:
   * J. Kohn, N. Gildemeister, S. Grimme, D. Fazzi, A. Hansen,
     J. Chem. Phys., 2023, just accepted.
   
   for PTB refer to:
   * S. Grimme, M. Mueller, A. Hansen, J. Chem. Phys., 2023, 158, 124111.
     DOI: 10.1063/5.0137838
   
   with help from (in alphabetical order)
   P. Atkinson, C. Bannwarth, F. Bohle, G. Brandenburg, E. Caldeweyher
   M. Checinski, S. Dohm, S. Ehlert, S. Ehrlich, I. Gerasimov, C. Hölzer
   A. Katbashev, J. Kohn, J. Koopman, C. Lavigne, S. Lehtola, F. März, M. Müller,
   F. Musil, H. Neugebauer, J. Pisarek, C. Plett, P. Pracht, F. Pultar,
   J. Seibert, P. Shushkov, S. Spicher, M. Stahn, M. Steiner, T. Strunk,
   J. Stückrath, T. Rose, and J. Unsleber
   
 * started run on 2024/12/20 at 06:45:00.381     
   ID    Z sym.   atoms
    1    7 N      1-3, 5, 7
    2    6 C      4, 6
    3    1 H      8-13

           -------------------------------------------------
          |                Calculation Setup                |
           -------------------------------------------------

          program call               : xtb C0448.xyz --opt --namespace C0448 --charge +1
          calculation namespace      : C0448
          coordinate file            : C0448.xyz
          omp threads                :                     8


           -------------------------------------------------
          |                 G F N 2 - x T B                 |
           -------------------------------------------------

        Reference                      10.1021/acs.jctc.8b01176
      * Hamiltonian:
        H0-scaling (s, p, d)           1.850000    2.230000    2.230000
        zeta-weighting                 0.500000
      * Dispersion:
        s8                             2.700000
        a1                             0.520000
        a2                             5.000000
        s9                             5.000000
      * Repulsion:
        kExp                           1.500000    1.000000
        rExp                           1.000000
      * Coulomb:
        alpha                          2.000000
        third order                    shell-resolved
        anisotropic                    true
        a3                             3.000000
        a5                             4.000000
        cn-shift                       1.200000
        cn-exp                         4.000000
        max-rad                        5.000000


          ...................................................
          :                      SETUP                      :
          :.................................................:
          :  # basis functions                  34          :
          :  # atomic orbitals                  34          :
          :  # shells                           20          :
          :  # electrons                        38          :
          :  max. iterations                   250          :
          :  Hamiltonian                  GFN2-xTB          :
          :  restarted?                      false          :
          :  GBSA solvation                  false          :
          :  PC potential                    false          :
          :  electronic temp.          300.0000000     K    :
          :  accuracy                    1.0000000          :
          :  -> integral cutoff          0.2500000E+02      :
          :  -> integral neglect         0.1000000E-07      :
          :  -> SCF convergence          0.1000000E-05 Eh   :
          :  -> wf. convergence          0.1000000E-03 e    :
          :  Broyden damping             0.4000000          :
          :  net charge                          1          :
          :  unpaired electrons                  0          :
          ...................................................

 iter      E             dE          RMSdq      gap      omega  full diag
   1    -21.5211979 -0.215212E+02  0.436E+00    2.55       0.0  T
   2    -21.6153522 -0.941544E-01  0.337E+00    2.73       1.0  T
   3    -21.6450692 -0.297170E-01  0.177E+00    2.73       1.0  T
   4    -21.6450568  0.123862E-04  0.690E-01    2.54       1.0  T
   5    -21.6471862 -0.212935E-02  0.148E-01    2.47       1.0  T
   6    -21.6472308 -0.446255E-04  0.711E-02    2.49       1.0  T
   7    -21.6472346 -0.376638E-05  0.311E-02    2.48       1.0  T
   8    -21.6472401 -0.548212E-05  0.931E-03    2.49       3.0  T
   9    -21.6472403 -0.208926E-06  0.284E-03    2.49       9.8  T
  10    -21.6472403 -0.104934E-07  0.684E-04    2.49      40.6  T
  11    -21.6472403 -0.117979E-08  0.216E-04    2.49     128.2  T

   *** convergence criteria satisfied after 11 iterations ***

         #    Occupation            Energy/Eh            Energy/eV
      -------------------------------------------------------------
         1        2.0000           -0.9775250             -26.5998
       ...           ...                  ...                  ...
        13        2.0000           -0.7229163             -19.6716
        14        2.0000           -0.6945868             -18.9007
        15        2.0000           -0.6853598             -18.6496
        16        2.0000           -0.6456370             -17.5687
        17        2.0000           -0.6370132             -17.3340
        18        2.0000           -0.6129982             -16.6805
        19        2.0000           -0.5977780             -16.2664 (HOMO)
        20                         -0.5063749             -13.7792 (LUMO)
        21                         -0.4102404             -11.1632
        22                         -0.3187715              -8.6742
        23                         -0.2142334              -5.8296
        24                         -0.1368878              -3.7249
       ...                                ...                  ...
        34                          0.2773940               7.5483
      -------------------------------------------------------------
                  HL-Gap            0.0914031 Eh            2.4872 eV
             Fermi-level           -0.5520765 Eh          -15.0228 eV

 SCC (total)                   0 d,  0 h,  0 min,  0.006 sec
 SCC setup                      ...        0 min,  0.000 sec (  1.835%)
 Dispersion                     ...        0 min,  0.000 sec (  0.885%)
 classical contributions        ...        0 min,  0.000 sec (  0.628%)
 integral evaluation            ...        0 min,  0.000 sec (  6.216%)
 iterations                     ...        0 min,  0.005 sec ( 77.584%)
 molecular gradient             ...        0 min,  0.001 sec ( 11.333%)
 printout                       ...        0 min,  0.000 sec (  1.295%)

         :::::::::::::::::::::::::::::::::::::::::::::::::::::
         ::                     SUMMARY                     ::
         :::::::::::::::::::::::::::::::::::::::::::::::::::::
         :: total energy             -21.392252438097 Eh    ::
         :: gradient norm              0.204118323580 Eh/a0 ::
         :: HOMO-LUMO gap              2.487205266157 eV    ::
         ::.................................................::
         :: SCC energy               -21.647228331799 Eh    ::
         :: -> isotropic ES            0.137222618040 Eh    ::
         :: -> anisotropic ES          0.005085143105 Eh    ::
         :: -> anisotropic XC          0.033394799817 Eh    ::
         :: -> dispersion             -0.008078731117 Eh    ::
         :: repulsion energy           0.254975893702 Eh    ::
         :: add. restraining           0.000000000000 Eh    ::
         :: total charge               1.000000000000 e     ::
         :::::::::::::::::::::::::::::::::::::::::::::::::::::

      ----------------------------------------------------------- 
     |                   =====================                   |
     |                        A N C O P T                        |
     |                   =====================                   |
     |               Approximate Normal Coordinate               |
     |                Rational Function Optimizer                |
      ----------------------------------------------------------- 
      ----------------------------------------------------------- 
     |                   =====================                   |
     |                        A N C O P T                        |
     |                   =====================                   |
     |               Approximate Normal Coordinate               |
     |                Rational Function Optimizer                |
      ----------------------------------------------------------- 

          ...................................................
          :                      SETUP                      :
          :.................................................:
          :   optimization level            normal          :
          :   max. optcycles                   200          :
          :   ANC micro-cycles                  20          :
          :   degrees of freedom                33          :
          :.................................................:
          :   RF solver                   davidson          :
          :   write xtbopt.log                true          :
          :   linear?                        false          :
          :   energy convergence         0.5000000E-05 Eh   :
          :   grad. convergence          0.1000000E-02 Eh/α :
          :   maxmium RF displ.          1.0000000          :
          :   Hlow (freq-cutoff)         0.1000000E-01      :
          :   Hmax (freq-cutoff)         5.0000000          :
          :   S6 in model hess.         20.0000000          :
          ...................................................

generating ANC from exact Hessian ...
Using Lindh-Hessian (1995)
 Shifting diagonal of input Hessian by    0.0000000000000000     
 Lowest  eigenvalues of input Hessian
    0.000000    0.000000    0.000000    0.000000    0.000000    0.000000
    0.014075    0.017541    0.019839    0.026069    0.042394    0.057546
    0.063843    0.089873    0.108876    0.129442    0.147703    0.150905
 Highest eigenvalues
    1.536202    1.611623    1.849986    1.873227    2.277241    2.361153


........................................................................
.............................. CYCLE    1 ..............................
........................................................................

 iter      E             dE          RMSdq      gap      omega  full diag
   1    -21.6472403 -0.216472E+02  0.546E-05    2.49       0.0  T
   2    -21.6472403 -0.395062E-11  0.294E-05    2.49     943.5  T
   3    -21.6472403  0.444089E-12  0.171E-05    2.49    1623.7  T
     SCC iter.                  ...        0 min,  0.001 sec
     gradient                   ...        0 min,  0.001 sec
 * total energy  :   -21.3922524 Eh     change       -0.3928946E-10 Eh
   gradient norm :     0.2041183 Eh/α   predicted     0.0000000E+00 (-100.00%)
   displ. norm   :     0.3433479 α      lambda       -0.3811112E-01
   maximum displ.:     0.1402821 α      in ANC's #7, #9, #15, ...

........................................................................
.............................. CYCLE    2 ..............................
........................................................................

 iter      E             dE          RMSdq      gap      omega  full diag
   1    -21.6654447 -0.216654E+02  0.417E-01    2.82       0.0  T
   2    -21.6657489 -0.304182E-03  0.223E-01    2.81       1.0  T
   3    -21.6657619 -0.130032E-04  0.914E-02    2.83       1.0  T
   4    -21.6657694 -0.752674E-05  0.349E-02    2.82       1.0  T
   5    -21.6657790 -0.954780E-05  0.124E-02    2.82       2.2  T
   6    -21.6657792 -0.199753E-06  0.471E-03    2.82       5.9  T
   7    -21.6657792 -0.354690E-07  0.112E-03    2.82      24.8  T
   8    -21.6657792 -0.315588E-08  0.527E-04    2.82      52.6  T
   9    -21.6657792 -0.894410E-09  0.230E-04    2.82     120.8  T
     SCC iter.                  ...        0 min,  0.003 sec
     gradient                   ...        0 min,  0.001 sec
 * total energy  :   -21.4207094 Eh     change       -0.2845699E-01 Eh
   gradient norm :     0.1145515 Eh/α   predicted    -0.2130197E-01 ( -25.14%)
   displ. norm   :     0.3683735 α      lambda       -0.2193115E-01
   maximum displ.:     0.1671706 α      in ANC's #7, #9, #15, ...

........................................................................
.............................. CYCLE    3 ..............................
........................................................................

 iter      E             dE          RMSdq      gap      omega  full diag
   1    -21.6828406 -0.216828E+02  0.429E-01    3.22       0.0  T
   2    -21.6832566 -0.415995E-03  0.219E-01    3.17       1.0  T
   3    -21.6832724 -0.157888E-04  0.105E-01    3.20       1.0  T
   4    -21.6832803 -0.794235E-05  0.283E-02    3.19       1.0  T
   5    -21.6832882 -0.791729E-05  0.129E-02    3.20       2.2  T
   6    -21.6832886 -0.361104E-06  0.325E-03    3.20       8.5  T
   7    -21.6832886 -0.268456E-07  0.111E-03    3.20      24.9  T
   8    -21.6832886 -0.360806E-08  0.508E-04    3.20      54.6  T
   9    -21.6832886 -0.746635E-09  0.173E-04    3.20     160.1  T
     SCC iter.                  ...        0 min,  0.029 sec
     gradient                   ...        0 min,  0.003 sec
 * total energy  :   -21.4346932 Eh     change       -0.1398377E-01 Eh
   gradient norm :     0.0491551 Eh/α   predicted    -0.1245360E-01 ( -10.94%)
   displ. norm   :     0.2611717 α      lambda       -0.4999687E-02
   maximum displ.:     0.1277410 α      in ANC's #2, #3, #1, ...

........................................................................
.............................. CYCLE    4 ..............................
........................................................................

 iter      E             dE          RMSdq      gap      omega  full diag
   1    -21.6884752 -0.216885E+02  0.273E-01    3.33       0.0  T
   2    -21.6885865 -0.111305E-03  0.156E-01    3.33       1.0  T
   3    -21.6885824  0.412418E-05  0.651E-02    3.35       1.0  T
   4    -21.6885978 -0.153652E-04  0.197E-02    3.35       1.4  T
   5    -21.6885999 -0.210319E-05  0.689E-03    3.35       4.0  T
   6    -21.6885999 -0.398907E-07  0.181E-03    3.35      15.3  T
   7    -21.6885999 -0.946498E-08  0.809E-04    3.35      34.3  T
   8    -21.6885999 -0.472469E-08  0.257E-04    3.35     107.8  T
     SCC iter.                  ...        0 min,  0.014 sec
     gradient                   ...        0 min,  0.001 sec
 * total energy  :   -21.4381431 Eh     change       -0.3449902E-02 Eh
   gradient norm :     0.0339158 Eh/α   predicted    -0.2670358E-02 ( -22.60%)
   displ. norm   :     0.1890842 α      lambda       -0.2460777E-02
   maximum displ.:     0.0973767 α      in ANC's #1, #2, #3, ...

........................................................................
.............................. CYCLE    5 ..............................
........................................................................

 iter      E             dE          RMSdq      gap      omega  full diag
   1    -21.6950194 -0.216950E+02  0.190E-01    3.41       0.0  T
   2    -21.6951014 -0.820242E-04  0.112E-01    3.43       1.0  T
   3    -21.6951022 -0.800596E-06  0.566E-02    3.43       1.0  T
   4    -21.6951132 -0.110269E-04  0.165E-02    3.43       1.7  T
   5    -21.6951146 -0.136672E-05  0.532E-03    3.43       5.2  T
   6    -21.6951146 -0.222396E-07  0.135E-03    3.43      20.5  T
   7    -21.6951146 -0.245621E-08  0.431E-04    3.43      64.4  T
   8    -21.6951146 -0.103300E-08  0.190E-04    3.43     145.7  T
     SCC iter.                  ...        0 min,  0.009 sec
     gradient                   ...        0 min,  0.004 sec
 * total energy  :   -21.4398004 Eh     change       -0.1657274E-02 Eh
   gradient norm :     0.0196335 Eh/α   predicted    -0.1274379E-02 ( -23.10%)
   displ. norm   :     0.1796348 α      lambda       -0.1045076E-02
   maximum displ.:     0.1348485 α      in ANC's #1, #4, #2, ...

........................................................................
.............................. CYCLE    6 ..............................
........................................................................

 iter      E             dE          RMSdq      gap      omega  full diag
   1    -21.6978097 -0.216978E+02  0.144E-01    3.45       0.0  T
   2    -21.6978465 -0.368205E-04  0.843E-02    3.47       1.0  T
   3    -21.6978459  0.601675E-06  0.446E-02    3.47       1.0  T
   4    -21.6978535 -0.762460E-05  0.981E-03    3.47       2.8  T
   5    -21.6978541 -0.527252E-06  0.359E-03    3.47       7.7  T
   6    -21.6978541 -0.952828E-08  0.787E-04    3.47      35.2  T
   7    -21.6978541 -0.703153E-09  0.286E-04    3.47      97.1  T
     SCC iter.                  ...        0 min,  0.006 sec
     gradient                   ...        0 min,  0.004 sec
 * total energy  :   -21.4405031 Eh     change       -0.7026779E-03 Eh
   gradient norm :     0.0154792 Eh/α   predicted    -0.5393975E-03 ( -23.24%)
   displ. norm   :     0.1487256 α      lambda       -0.6160991E-03
   maximum displ.:     0.0939690 α      in ANC's #1, #4, #3, ...

........................................................................
.............................. CYCLE    7 ..............................
........................................................................

 iter      E             dE          RMSdq      gap      omega  full diag
   1    -21.7009252 -0.217009E+02  0.108E-01    3.48       0.0  T
   2    -21.7009429 -0.177886E-04  0.611E-02    3.49       1.0  T
   3    -21.7009423  0.641249E-06  0.306E-02    3.49       1.0  T
   4    -21.7009456 -0.329113E-05  0.723E-03    3.49       3.8  T
   5    -21.7009459 -0.343215E-06  0.289E-03    3.49       9.6  T
   6    -21.7009459 -0.711234E-08  0.713E-04    3.49      38.9  T
   7    -21.7009459 -0.151791E-08  0.196E-04    3.49     141.2  T
     SCC iter.                  ...        0 min,  0.009 sec
     gradient                   ...        0 min,  0.001 sec
 * total energy  :   -21.4408456 Eh     change       -0.3425136E-03 Eh
   gradient norm :     0.0115181 Eh/α   predicted    -0.3148653E-03 (  -8.07%)
   displ. norm   :     0.1324060 α      lambda       -0.3735913E-03
   maximum displ.:     0.0987278 α      in ANC's #1, #4, #15, ...

........................................................................
.............................. CYCLE    8 ..............................
........................................................................

 iter      E             dE          RMSdq      gap      omega  full diag
   1    -21.7015420 -0.217015E+02  0.857E-02    3.49       0.0  T
   2    -21.7015468 -0.482357E-05  0.480E-02    3.49       1.0  T
   3    -21.7015470 -0.207778E-06  0.137E-02    3.49       2.0  T
   4    -21.7015475 -0.524843E-06  0.348E-03    3.49       8.0  T
   5    -21.7015475 -0.323466E-07  0.196E-03    3.49      14.2  T
   6    -21.7015476 -0.106113E-07  0.468E-04    3.49      59.3  T
   7    -21.7015476 -0.109679E-08  0.132E-04    3.49     209.4  T
     SCC iter.                  ...        0 min,  0.002 sec
     gradient                   ...        0 min,  0.001 sec
 * total energy  :   -21.4410123 Eh     change       -0.1667110E-03 Eh
   gradient norm :     0.0122404 Eh/α   predicted    -0.1900707E-03 (  14.01%)
   displ. norm   :     0.0357827 α      lambda       -0.1635686E-03
   maximum displ.:     0.0208560 α      in ANC's #3, #4, #15, ...

........................................................................
.............................. CYCLE    9 ..............................
........................................................................

 iter      E             dE          RMSdq      gap      omega  full diag
   1    -21.7016785 -0.217017E+02  0.361E-02    3.49       0.0  T
   2    -21.7016803 -0.178278E-05  0.212E-02    3.49       1.3  T
   3    -21.7016801  0.155952E-06  0.972E-03    3.49       2.9  T
   4    -21.7016807 -0.520754E-06  0.254E-03    3.49      10.9  T
   5    -21.7016807 -0.334508E-07  0.822E-04    3.49      33.7  T
   6    -21.7016807 -0.458261E-09  0.250E-04    3.49     110.9  T
     SCC iter.                  ...        0 min,  0.002 sec
     gradient                   ...        0 min,  0.001 sec
 * total energy  :   -21.4411252 Eh     change       -0.1129122E-03 Eh
   gradient norm :     0.0059065 Eh/α   predicted    -0.8188749E-04 ( -27.48%)
   displ. norm   :     0.0618271 α      lambda       -0.1226576E-03
   maximum displ.:     0.0487520 α      in ANC's #4, #6, #3, ...

........................................................................
.............................. CYCLE   10 ..............................
........................................................................

 iter      E             dE          RMSdq      gap      omega  full diag
   1    -21.7004755 -0.217005E+02  0.493E-02    3.49       0.0  T
   2    -21.7004796 -0.407264E-05  0.290E-02    3.49       1.0  T
   3    -21.7004794  0.122011E-06  0.141E-02    3.49       2.0  T
   4    -21.7004803 -0.884503E-06  0.366E-03    3.49       7.6  T
   5    -21.7004804 -0.749419E-07  0.112E-03    3.48      24.9  T
   6    -21.7004804 -0.798487E-09  0.349E-04    3.48      79.4  T
   7    -21.7004804 -0.248559E-09  0.914E-05    3.48     303.6  T
     SCC iter.                  ...        0 min,  0.002 sec
     gradient                   ...        0 min,  0.001 sec
 * total energy  :   -21.4411846 Eh     change       -0.5942549E-04 Eh
   gradient norm :     0.0050472 Eh/α   predicted    -0.6156253E-04 (   3.60%)
   displ. norm   :     0.0255388 α      lambda       -0.5186335E-04
   maximum displ.:     0.0131188 α      in ANC's #6, #2, #3, ...

........................................................................
.............................. CYCLE   11 ..............................
........................................................................

 iter      E             dE          RMSdq      gap      omega  full diag
   1    -21.7013178 -0.217013E+02  0.303E-02    3.49       0.0  T
   2    -21.7013189 -0.111238E-05  0.174E-02    3.48       1.6  T
   3    -21.7013188  0.118745E-06  0.732E-03    3.48       3.8  T
   4    -21.7013191 -0.268964E-06  0.194E-03    3.48      14.3  T
   5    -21.7013191 -0.270933E-07  0.587E-04    3.48      47.3  T
   6    -21.7013191 -0.226066E-09  0.187E-04    3.48     148.0  T
     SCC iter.                  ...        0 min,  0.002 sec
     gradient                   ...        0 min,  0.001 sec
 * total energy  :   -21.4412088 Eh     change       -0.2421982E-04 Eh
   gradient norm :     0.0036901 Eh/α   predicted    -0.2594973E-04 (   7.14%)
   displ. norm   :     0.0250981 α      lambda       -0.2365512E-04
   maximum displ.:     0.0155565 α      in ANC's #1, #2, #4, ...

........................................................................
.............................. CYCLE   12 ..............................
........................................................................

 iter      E             dE          RMSdq      gap      omega  full diag
   1    -21.7011694 -0.217012E+02  0.174E-02    3.48       0.0  T
   2    -21.7011695 -0.890857E-07  0.103E-02    3.48       2.7  T
   3    -21.7011694  0.470848E-07  0.272E-03    3.48      10.2  T
   4    -21.7011695 -0.733963E-07  0.667E-04    3.48      41.6  T
   5    -21.7011695 -0.156566E-08  0.272E-04    3.48     101.9  T
     SCC iter.                  ...        0 min,  0.001 sec
     gradient                   ...        0 min,  0.001 sec
 * total energy  :   -21.4412270 Eh     change       -0.1813221E-04 Eh
   gradient norm :     0.0028725 Eh/α   predicted    -0.1183518E-04 ( -34.73%)
   displ. norm   :     0.0382112 α      lambda       -0.2843381E-04
   maximum displ.:     0.0240542 α      in ANC's #2, #1, #4, ...

........................................................................
.............................. CYCLE   13 ..............................
........................................................................

 iter      E             dE          RMSdq      gap      omega  full diag
   1    -21.7014517 -0.217015E+02  0.287E-02    3.48       0.0  T
   2    -21.7014521 -0.344232E-06  0.165E-02    3.48       1.7  T
   3    -21.7014521 -0.224665E-07  0.261E-03    3.48      10.6  T
   4    -21.7014521 -0.246320E-07  0.103E-03    3.48      26.9  T
   5    -21.7014521 -0.520938E-08  0.460E-04    3.48      60.4  T
   6    -21.7014521 -0.409390E-09  0.135E-04    3.48     205.1  T
     SCC iter.                  ...        0 min,  0.002 sec
     gradient                   ...        0 min,  0.001 sec
 * total energy  :   -21.4412438 Eh     change       -0.1686412E-04 Eh
   gradient norm :     0.0027467 Eh/α   predicted    -0.1423789E-04 ( -15.57%)
   displ. norm   :     0.0192657 α      lambda       -0.8791552E-05
   maximum displ.:     0.0108911 α      in ANC's #1, #2, #4, ...

........................................................................
.............................. CYCLE   14 ..............................
........................................................................

 iter      E             dE          RMSdq      gap      omega  full diag
   1    -21.7013869 -0.217014E+02  0.144E-02    3.48       0.0  T
   2    -21.7013871 -0.143400E-06  0.822E-03    3.48       3.4  T
   3    -21.7013870  0.426310E-07  0.312E-03    3.48       8.9  T
   4    -21.7013871 -0.720861E-07  0.668E-04    3.48      41.5  T
   5    -21.7013871 -0.280897E-08  0.272E-04    3.48     102.0  T
     SCC iter.                  ...        0 min,  0.001 sec
     gradient                   ...        0 min,  0.001 sec
 * total energy  :   -21.4412501 Eh     change       -0.6283609E-05 Eh
   gradient norm :     0.0021532 Eh/α   predicted    -0.4398379E-05 ( -30.00%)
   displ. norm   :     0.0205980 α      lambda       -0.9655824E-05
   maximum displ.:     0.0132979 α      in ANC's #2, #4, #3, ...

........................................................................
.............................. CYCLE   15 ..............................
........................................................................

 iter      E             dE          RMSdq      gap      omega  full diag
   1    -21.7015427 -0.217015E+02  0.183E-02    3.47       0.0  T
   2    -21.7015430 -0.333904E-06  0.103E-02    3.47       2.7  T
   3    -21.7015430  0.682117E-07  0.473E-03    3.47       5.9  T
   4    -21.7015431 -0.141762E-06  0.960E-04    3.47      28.9  T
   5    -21.7015431 -0.441477E-08  0.385E-04    3.47      72.0  T
     SCC iter.                  ...        0 min,  0.010 sec
     gradient                   ...        0 min,  0.003 sec
 * total energy  :   -21.4412559 Eh     change       -0.5821176E-05 Eh
   gradient norm :     0.0010155 Eh/α   predicted    -0.4831648E-05 ( -17.00%)
   displ. norm   :     0.0104114 α      lambda       -0.2598540E-05
   maximum displ.:     0.0054096 α      in ANC's #2, #3, #4, ...

........................................................................
.............................. CYCLE   16 ..............................
........................................................................

 iter      E             dE          RMSdq      gap      omega  full diag
   1    -21.7013580 -0.217014E+02  0.100E-02    3.47       0.0  T
   2    -21.7013581 -0.113386E-06  0.577E-03    3.47       4.8  T
   3    -21.7013581  0.162874E-07  0.282E-03    3.47       9.8  T
   4    -21.7013582 -0.529117E-07  0.502E-04    3.47      55.3  T
   5    -21.7013582 -0.106518E-08  0.206E-04    3.47     134.4  T
     SCC iter.                  ...        0 min,  0.016 sec
     gradient                   ...        0 min,  0.002 sec
 * total energy  :   -21.4412580 Eh     change       -0.2060513E-05 Eh
   gradient norm :     0.0006837 Eh/α   predicted    -0.1300662E-05 ( -36.88%)
   displ. norm   :     0.0075720 α      lambda       -0.9621037E-06
   maximum displ.:     0.0051840 α      in ANC's #1, #2, #3, ...

   *** GEOMETRY OPTIMIZATION CONVERGED AFTER 16 ITERATIONS ***

------------------------------------------------------------------------
 total energy gain   :        -0.0490056 Eh      -30.7515 kcal/mol
 total RMSD          :         0.3975921 a0        0.2104 Å
 total power (kW/mol):        -8.0415050 (step) -812.1524 (real)
------------------------------------------------------------------------

 ANCopt (total)                0 d,  0 h,  0 min,  0.158 sec
 optimizer setup                ...        0 min,  0.000 sec (  0.042%)
 model hessian                  ...        0 min,  0.003 sec (  1.691%)
 ANC generation                 ...        0 min,  0.000 sec (  0.122%)
 coordinate transformation      ...        0 min,  0.000 sec (  0.059%)
 single point calculation       ...        0 min,  0.151 sec ( 95.418%)
 optimization log               ...        0 min,  0.001 sec (  0.517%)
 hessian update                 ...        0 min,  0.001 sec (  0.813%)
 rational function              ...        0 min,  0.002 sec (  0.964%)

================
 final structure:
================
13
 xtb: 6.7.1 (edcfbbe)
N            1.10295640238983       -0.02162273140523       -0.03412378210802
N            0.85248381413159        1.17848831495829       -0.70432031417201
N           -0.49227113178831        1.50030926518830       -1.02625879315773
C           -0.73034588634777        2.65339707194111       -0.52528969906895
N            0.30114888930807        3.24308568007625        0.16350232292974
C            1.28987046634411        2.44874106050839        0.13785480759078
N            2.49251273771586        2.48164165607906        0.64123165024047
H            0.52230467610056       -0.09129013590626        0.80045624332868
H            0.90885273129452       -0.82874977663035       -0.62305756896710
H            1.39157176732337        1.16675146909134       -1.58630315013288
H           -1.68309810337601        3.14052244804629       -0.62416203810983
H            3.11147282153674        1.68472003689615        0.59615425491907
H            2.77037081536747        3.28784564115659        1.18669606670778

 Bond Distances (Angstroems)
 ---------------------------
N1-N2=1.3972         N1-H8=1.0191         N1-H9=1.0178         N2-N1=1.3972         N2-N3=1.4197         N2-C6=1.5856         
N2-H10=1.0338        N3-N2=1.4197         N3-C4=1.2796         C4-N3=1.2796         C4-N5=1.3734         C4-H11=1.0746        
N5-C4=1.3734         N5-C6=1.2685         C6-N2=1.5856         C6-N5=1.2685         C6-N7=1.3042         N7-C6=1.3042         
N7-H12=1.0101        N7-H13=1.0123        H8-N1=1.0191         H9-N1=1.0178         H10-N2=1.0338        H11-C4=1.0746        
H12-N7=1.0101        H13-N7=1.0123        
 C  H  Rav=1.0746 sigma=0.0000  Rmin=1.0746  Rmax=1.0746     1
 N  H  Rav=1.0186 sigma=0.0083  Rmin=1.0101  Rmax=1.0338     5
 N  C  Rav=1.3622 sigma=0.1175  Rmin=1.2685  Rmax=1.5856     5
 N  N  Rav=1.4085 sigma=0.0113  Rmin=1.3972  Rmax=1.4197     2

 selected bond angles (degree)
 --------------------
H8-N1-N2=110.45                H9-N1-N2=111.68                H9-N1-H8=108.12                N3-N2-N1=118.25                
C6-N2-N1=112.57                C6-N2-N3=101.54                H10-N2-N1=107.82               H10-N2-N3=107.64               
H10-N2-C6=108.57               C4-N3-N2=106.96                N5-C4-N3=116.33                H11-C4-N3=122.51               
H11-C4-N5=121.16               C6-N5-C4=107.84                N5-C6-N2=107.30                N7-C6-N2=118.66                
N7-C6-N5=134.04                H12-N7-C6=121.87               H13-N7-C6=118.76               H13-N7-H12=118.96              

 selected dihedral angles (degree)
 ---------------------------------
N3-N2-N1-H8=307.62            N3-N2-N1-H9= 67.98            C6-N2-N1-H8= 65.62            C6-N2-N1-H9=185.98            
H10-N2-N1-H8=185.34           H10-N2-N1-H9=305.70           C4-N3-N2-N1=124.85            C4-N3-N2-C6=  1.18            
C4-N3-N2-H10=247.22           N5-C4-N3-N2=359.37            H11-C4-N3-N2=179.86           C6-N5-C4-N3=359.60            
C6-N5-C4-H11=179.11           N5-C6-N2-N1=231.09            N5-C6-N2-N3=358.54            N5-C6-N2-H10=111.80           
N7-C6-N2-N1= 50.73            N7-C6-N2-N3=178.18            N7-C6-N2-H10=291.44           N2-C6-N5-C4=  1.13            
N7-C6-N5-C4=181.58            H12-N7-C6-N2=353.18           H12-N7-C6-N5=172.70           H13-N7-C6-N2=180.58           
H13-N7-C6-N5=  0.10           
           -------------------------------------------------
          |                Final Singlepoint                |
           -------------------------------------------------

          ...................................................
          :                      SETUP                      :
          :.................................................:
          :  # basis functions                  34          :
          :  # atomic orbitals                  34          :
          :  # shells                           20          :
          :  # electrons                        38          :
          :  max. iterations                   250          :
          :  Hamiltonian                  GFN2-xTB          :
          :  restarted?                      false          :
          :  GBSA solvation                  false          :
          :  PC potential                    false          :
          :  electronic temp.          300.0000000     K    :
          :  accuracy                    1.0000000          :
          :  -> integral cutoff          0.2500000E+02      :
          :  -> integral neglect         0.1000000E-07      :
          :  -> SCF convergence          0.1000000E-05 Eh   :
          :  -> wf. convergence          0.1000000E-03 e    :
          :  Broyden damping             0.4000000          :
          :  net charge                          1          :
          :  unpaired electrons                  0          :
          ...................................................

 iter      E             dE          RMSdq      gap      omega  full diag
   1    -21.7013582 -0.217014E+02  0.554E-05    3.47       0.0  T
   2    -21.7013582 -0.772360E-11  0.317E-05    3.47     876.1  T
   3    -21.7013582 -0.200728E-11  0.179E-05    3.47    1552.5  T

   *** convergence criteria satisfied after 3 iterations ***

         #    Occupation            Energy/Eh            Energy/eV
      -------------------------------------------------------------
         1        2.0000           -0.9341672             -25.4200
       ...           ...                  ...                  ...
        13        2.0000           -0.7085379             -19.2803
        14        2.0000           -0.6834128             -18.5966
        15        2.0000           -0.6767916             -18.4164
        16        2.0000           -0.6325530             -17.2126
        17        2.0000           -0.6128119             -16.6755
        18        2.0000           -0.6066863             -16.5088
        19        2.0000           -0.5993964             -16.3104 (HOMO)
        20                         -0.4718169             -12.8388 (LUMO)
        21                         -0.3784793             -10.2989
        22                         -0.3140990              -8.5471
        23                         -0.2605413              -7.0897
        24                         -0.2038667              -5.5475
       ...                                ...                  ...
        34                          0.4178742              11.3709
      -------------------------------------------------------------
                  HL-Gap            0.1275795 Eh            3.4716 eV
             Fermi-level           -0.5356066 Eh          -14.5746 eV

 SCC (total)                   0 d,  0 h,  0 min,  0.004 sec
 SCC setup                      ...        0 min,  0.000 sec (  1.396%)
 Dispersion                     ...        0 min,  0.000 sec (  0.805%)
 classical contributions        ...        0 min,  0.000 sec (  1.313%)
 integral evaluation            ...        0 min,  0.001 sec ( 34.670%)
 iterations                     ...        0 min,  0.001 sec ( 22.954%)
 molecular gradient             ...        0 min,  0.002 sec ( 36.958%)
 printout                       ...        0 min,  0.000 sec (  1.568%)

         :::::::::::::::::::::::::::::::::::::::::::::::::::::
         ::                     SUMMARY                     ::
         :::::::::::::::::::::::::::::::::::::::::::::::::::::
         :: total energy             -21.441257998236 Eh    ::
         :: gradient norm              0.000684041539 Eh/a0 ::
         :: HOMO-LUMO gap              3.471614782550 eV    ::
         ::.................................................::
         :: SCC energy               -21.701343822077 Eh    ::
         :: -> isotropic ES            0.124365724356 Eh    ::
         :: -> anisotropic ES         -0.000145894279 Eh    ::
         :: -> anisotropic XC          0.028749144499 Eh    ::
         :: -> dispersion             -0.007921084427 Eh    ::
         :: repulsion energy           0.260085823841 Eh    ::
         :: add. restraining           0.000000000000 Eh    ::
         :: total charge               1.000000000000 e     ::
         :::::::::::::::::::::::::::::::::::::::::::::::::::::

           -------------------------------------------------
          |                Property Printout                |
           -------------------------------------------------

    * Orbital Energies and Occupations

         #    Occupation            Energy/Eh            Energy/eV
      -------------------------------------------------------------
         1        2.0000           -0.9341672             -25.4200
       ...           ...                  ...                  ...
         7        2.0000           -0.8150270             -22.1780
         8        2.0000           -0.7877515             -21.4358
         9        2.0000           -0.7719260             -21.0052
        10        2.0000           -0.7537890             -20.5116
        11        2.0000           -0.7411756             -20.1684
        12        2.0000           -0.7328377             -19.9415
        13        2.0000           -0.7085379             -19.2803
        14        2.0000           -0.6834128             -18.5966
        15        2.0000           -0.6767916             -18.4164
        16        2.0000           -0.6325530             -17.2126
        17        2.0000           -0.6128119             -16.6755
        18        2.0000           -0.6066863             -16.5088
        19        2.0000           -0.5993964             -16.3104 (HOMO)
        20                         -0.4718169             -12.8388 (LUMO)
        21                         -0.3784793             -10.2989
        22                         -0.3140990              -8.5471
        23                         -0.2605413              -7.0897
        24                         -0.2038667              -5.5475
        25                         -0.1681318              -4.5751
        26                         -0.1513767              -4.1192
        27                         -0.0760392              -2.0691
        28                         -0.0344684              -0.9379
        29                          0.0024304               0.0661
        30                          0.0243268               0.6620
       ...                                ...                  ...
        34                          0.4178742              11.3709
      -------------------------------------------------------------
                  HL-Gap            0.1275795 Eh            3.4716 eV
             Fermi-level           -0.5356066 Eh          -14.5746 eV

     #   Z          covCN         q      C6AA      α(0)
     1   7 N        2.701    -0.274    27.081     7.729
     2   7 N        3.813     0.196    17.997     6.301
     3   7 N        1.927    -0.217    26.556     7.641
     4   6 C        3.078     0.158    24.512     8.117
     5   7 N        1.855    -0.209    26.386     7.613
     6   6 C        2.958     0.201    23.733     7.991
     7   7 N        2.635    -0.184    24.996     7.425
     8   1 H        0.860     0.214     1.037     1.595
     9   1 H        0.860     0.224     0.989     1.558
    10   1 H        0.859     0.232     0.959     1.534
    11   1 H        0.926     0.139     1.467     1.894
    12   1 H        0.860     0.251     0.880     1.470
    13   1 H        0.860     0.269     0.813     1.412

 Mol. C6AA /au·bohr⁶  :       1644.307376
 Mol. C8AA /au·bohr⁸  :      36019.803094
 Mol. α(0) /au        :         62.280133


Wiberg/Mayer (AO) data.
largest (>0.10) Wiberg bond orders for each atom

 ---------------------------------------------------------------------------
     #   Z sym  total        # sym  WBO       # sym  WBO       # sym  WBO
 ---------------------------------------------------------------------------
     1   7 N    2.990 --     2 N    1.022     8 H    0.938     9 H    0.931
     2   7 N    3.814 --     1 N    1.022     3 N    0.982    10 H    0.896
                             6 C    0.765
     3   7 N    2.983 --     4 C    1.726     2 N    0.982
     4   6 C    3.937 --     3 N    1.726     5 N    1.161    11 H    0.943
     5   7 N    3.134 --     6 C    1.627     4 C    1.161     7 N    0.159
     6   6 C    3.959 --     5 N    1.627     7 N    1.405     2 N    0.765
     7   7 N    3.490 --     6 C    1.405    12 H    0.914    13 H    0.900
                             5 N    0.159
     8   1 H    0.954 --     1 N    0.938
     9   1 H    0.950 --     1 N    0.931
    10   1 H    0.946 --     2 N    0.896
    11   1 H    0.981 --     4 C    0.943
    12   1 H    0.937 --     7 N    0.914
    13   1 H    0.928 --     7 N    0.900
 ---------------------------------------------------------------------------

Topologies differ in total number of bonds
Writing topology from bond orders to xtbtopo.mol

molecular dipole:
                 x           y           z       tot (Debye)
 q only:        2.880       2.829      -0.127
   full:        2.928       2.636      -0.241      10.032
molecular quadrupole (traceless):
                xx          xy          yy          xz          yz          zz
 q only:        6.766      13.812       4.840       2.801       1.696     -11.606
  q+dip:        7.363      14.219       2.801       1.064       1.531     -10.164
   full:        6.840      14.614       2.600       0.787       0.547      -9.440

           -------------------------------------------------
          |                Geometry Summary                 |
           -------------------------------------------------

      molecular mass/u    :      100.1026324
   center of mass at/Å    :        0.7334643       1.8691761      -0.1833277
  moments of inertia/u·Å² :        0.1307070E+03   0.1442920E+03   0.2565956E+03
rotational constants/cm⁻¹ :        0.1289727E+00   0.1168300E+00   0.6569727E-01

 * 11 selected distances

     #   Z          #   Z                                           value/Å
     1   7 N        2   7 N                                       1.3971996 (max)
     3   7 N        4   6 C                                       1.2795552
     4   6 C        5   7 N                                       1.3733714
     5   7 N        6   6 C                                       1.2685471
     6   6 C        7   7 N                                       1.3041547
     1   7 N        8   1 H                                       1.0190849
     1   7 N        9   1 H                                       1.0178278
     2   7 N       10   1 H                                       1.0337541
     4   6 C       11   1 H                                       1.0746180
     7   7 N       12   1 H                                       1.0100633 (min)
     7   7 N       13   1 H                                       1.0122755

 * 4 distinct bonds (by element types)

   Z      Z             #   av. dist./Å        max./Å        min./Å
   1 H    6 C           1     1.0746180     1.0746180     1.0746180
   1 H    7 N           5     1.0186011     1.0337541     1.0100633
   6 C    7 N           4     1.3064071     1.3733714     1.2685471
   7 N    7 N           1     1.3971996     1.3971996     1.3971996


optimized geometry written to: xtbopt.xyz


           -------------------------------------------------
          | TOTAL ENERGY              -21.441257998236 Eh   |
          | GRADIENT NORM               0.000684041539 Eh/α |
          | HOMO-LUMO GAP               3.471614782550 eV   |
           -------------------------------------------------

------------------------------------------------------------------------
 * finished run on 2024/12/20 at 06:45:00.565     
------------------------------------------------------------------------
 total:
 * wall-time:     0 d,  0 h,  0 min,  0.185 sec
 *  cpu-time:     0 d,  0 h,  0 min,  1.325 sec
 * ratio c/w:     7.182 speedup
 SCF:
 * wall-time:     0 d,  0 h,  0 min,  0.007 sec
 *  cpu-time:     0 d,  0 h,  0 min,  0.051 sec
 * ratio c/w:     7.851 speedup
 ANC optimizer:
 * wall-time:     0 d,  0 h,  0 min,  0.163 sec
 *  cpu-time:     0 d,  0 h,  0 min,  1.171 sec
 * ratio c/w:     7.173 speedup

