      -----------------------------------------------------------      
     |                   =====================                   |     
     |                           x T B                           |     
     |                   =====================                   |     
     |                         S. Grimme                         |     
     |          Mulliken Center for Theoretical Chemistry        |     
     |                    University of Bonn                     |     
      -----------------------------------------------------------      

   * xtb version 6.7.1 (edcfbbe) compiled by 'conda@3ef47c1a292c' on 2024-11-25

   xtb is free software: you can redistribute it and/or modify it under
   the terms of the GNU Lesser General Public License as published by
   the Free Software Foundation, either version 3 of the License, or
   (at your option) any later version.
   
   xtb is distributed in the hope that it will be useful,
   but WITHOUT ANY WARRANTY; without even the implied warranty of
   MERCHANTABILITY or FITNESS FOR A PARTICULAR PURPOSE.  See the
   GNU Lesser General Public License for more details.
   
   Cite this work as:
   * C. Bannwarth, E. Caldeweyher, S. Ehlert, A. Hansen, P. Pracht,
     J. Seibert, S. Spicher, S. Grimme, WIREs Comput. Mol. Sci., 2020, 11,
     e01493. DOI: 10.1002/wcms.1493
   
   for GFN2-xTB:
   * C. Bannwarth, S. Ehlert and S. Grimme., J. Chem. Theory Comput., 2019,
     15, 1652-1671. DOI: 10.1021/acs.jctc.8b01176
   for GFN1-xTB:
   * S. Grimme, C. Bannwarth, P. Shushkov, J. Chem. Theory Comput., 2017,
     13, 1989-2009. DOI: 10.1021/acs.jctc.7b00118
   for GFN0-xTB:
   * P. Pracht, E. Caldeweyher, S. Ehlert, S. Grimme, ChemRxiv, 2019, preprint.
     DOI: 10.26434/chemrxiv.8326202.v1
   for GFN-FF:
   * S. Spicher and S. Grimme, Angew. Chem. Int. Ed., 2020, 59, 15665-15673.
     DOI: 10.1002/anie.202004239
   
   for ALPB and GBSA implicit solvation:
   * S. Ehlert, M. Stahn, S. Spicher, S. Grimme, J. Chem. Theory Comput.,
     2021, 17, 4250-4261. DOI: 10.1021/acs.jctc.1c00471
   
   for ddCOSMO and CPCM-X implicit solvation:
   * M. Stahn, S. Ehlert, S. Grimme, J. Phys. Chem. A,
     2023, XX, XXXX-XXXX. DOI: 10.1021/acs.jpca.3c04382
   
   for DFT-D4:
   * E. Caldeweyher, C. Bannwarth and S. Grimme, J. Chem. Phys., 2017,
     147, 034112. DOI: 10.1063/1.4993215
   * E. Caldeweyher, S. Ehlert, A. Hansen, H. Neugebauer, S. Spicher,
     C. Bannwarth and S. Grimme, J. Chem. Phys., 2019, 150, 154122.
     DOI: 10.1063/1.5090222
   * E. Caldeweyher, J.-M. Mewes, S. Ehlert and S. Grimme, Phys. Chem. Chem. Phys.
     2020, 22, 8499-8512. DOI: 10.1039/D0CP00502A
   
   for sTDA-xTB:
   * S. Grimme and C. Bannwarth, J. Chem. Phys., 2016, 145, 054103.
     DOI: 10.1063/1.4959605
   
   in the mass-spec context:
   * V. Asgeirsson, C. Bauer and S. Grimme, Chem. Sci., 2017, 8, 4879.
     DOI: 10.1039/c7sc00601b
   * J. Koopman and S. Grimme, ACS Omega 2019, 4, 12, 15120-15133.
     DOI: 10.1021/acsomega.9b02011
   
   for metadynamics refer to:
   * S. Grimme, J. Chem. Theory Comput., 2019, 155, 2847-2862
     DOI: 10.1021/acs.jctc.9b00143
   
   for SPH calculations refer to:
   * S. Spicher and S. Grimme, J. Chem. Theory Comput., 2021, 17, 1701-1714
     DOI: 10.1021/acs.jctc.0c01306
   
   for ONIOM refer to:
   * C. Plett, A. Katbashev, S. Ehlert, S. Grimme, M. Bursch,
     Phys. Chem. Chem. Phys., 2023, 25, 17860-17868. DOI: 10.1039/D3CP02178E
   
   for DIPRO refer to:
   * J. Kohn, N. Gildemeister, S. Grimme, D. Fazzi, A. Hansen,
     J. Chem. Phys., 2023, just accepted.
   
   for PTB refer to:
   * S. Grimme, M. Mueller, A. Hansen, J. Chem. Phys., 2023, 158, 124111.
     DOI: 10.1063/5.0137838
   
   with help from (in alphabetical order)
   P. Atkinson, C. Bannwarth, F. Bohle, G. Brandenburg, E. Caldeweyher
   M. Checinski, S. Dohm, S. Ehlert, S. Ehrlich, I. Gerasimov, C. Hölzer
   A. Katbashev, J. Kohn, J. Koopman, C. Lavigne, S. Lehtola, F. März, M. Müller,
   F. Musil, H. Neugebauer, J. Pisarek, C. Plett, P. Pracht, F. Pultar,
   J. Seibert, P. Shushkov, S. Spicher, M. Stahn, M. Steiner, T. Strunk,
   J. Stückrath, T. Rose, and J. Unsleber
   
 * started run on 2024/12/20 at 06:45:12.531     
   ID    Z sym.   atoms
    1    6 C      1-3, 5, 7-17
    2    7 N      4, 6, 18
    3    1 H      19-34

           -------------------------------------------------
          |                Calculation Setup                |
           -------------------------------------------------

          program call               : xtb C0453.xyz --opt --namespace C0453 --charge +1
          calculation namespace      : C0453
          coordinate file            : C0453.xyz
          omp threads                :                     8


           -------------------------------------------------
          |                 G F N 2 - x T B                 |
           -------------------------------------------------

        Reference                      10.1021/acs.jctc.8b01176
      * Hamiltonian:
        H0-scaling (s, p, d)           1.850000    2.230000    2.230000
        zeta-weighting                 0.500000
      * Dispersion:
        s8                             2.700000
        a1                             0.520000
        a2                             5.000000
        s9                             5.000000
      * Repulsion:
        kExp                           1.500000    1.000000
        rExp                           1.000000
      * Coulomb:
        alpha                          2.000000
        third order                    shell-resolved
        anisotropic                    true
        a3                             3.000000
        a5                             4.000000
        cn-shift                       1.200000
        cn-exp                         4.000000
        max-rad                        5.000000


          ...................................................
          :                      SETUP                      :
          :.................................................:
          :  # basis functions                  88          :
          :  # atomic orbitals                  88          :
          :  # shells                           52          :
          :  # electrons                        90          :
          :  max. iterations                   250          :
          :  Hamiltonian                  GFN2-xTB          :
          :  restarted?                      false          :
          :  GBSA solvation                  false          :
          :  PC potential                    false          :
          :  electronic temp.          300.0000000     K    :
          :  accuracy                    1.0000000          :
          :  -> integral cutoff          0.2500000E+02      :
          :  -> integral neglect         0.1000000E-07      :
          :  -> SCF convergence          0.1000000E-05 Eh   :
          :  -> wf. convergence          0.1000000E-03 e    :
          :  Broyden damping             0.4000000          :
          :  net charge                          1          :
          :  unpaired electrons                  0          :
          ...................................................

 iter      E             dE          RMSdq      gap      omega  full diag
   1    -49.2805306 -0.492805E+02  0.449E+00    3.82       0.0  T
   2    -49.3783949 -0.978643E-01  0.295E+00    3.42       1.0  T
   3    -49.3649466  0.134483E-01  0.170E+00    3.28       1.0  T
   4    -49.3835527 -0.186061E-01  0.848E-01    3.11       1.0  T
   5    -49.4015513 -0.179986E-01  0.137E-01    3.12       1.0  T
   6    -49.4017002 -0.148963E-03  0.805E-02    3.15       1.0  T
   7    -49.4017968 -0.965599E-04  0.371E-02    3.14       1.0  T
   8    -49.4018092 -0.123780E-04  0.147E-02    3.15       1.2  T
   9    -49.4018109 -0.177226E-05  0.712E-03    3.16       2.4  T
  10    -49.4018121 -0.115490E-05  0.188E-03    3.15       9.1  T
  11    -49.4018121 -0.342128E-07  0.896E-04    3.15      19.1  T
  12    -49.4018121 -0.137724E-07  0.357E-04    3.15      48.1  T

   *** convergence criteria satisfied after 12 iterations ***

         #    Occupation            Energy/Eh            Energy/eV
      -------------------------------------------------------------
         1        2.0000           -0.8800081             -23.9462
       ...           ...                  ...                  ...
        39        2.0000           -0.5618795             -15.2895
        40        2.0000           -0.5500762             -14.9683
        41        2.0000           -0.5466036             -14.8738
        42        2.0000           -0.5420541             -14.7500
        43        2.0000           -0.5398675             -14.6905
        44        2.0000           -0.5247530             -14.2793
        45        2.0000           -0.5231192             -14.2348 (HOMO)
        46                         -0.4071970             -11.0804 (LUMO)
        47                         -0.3845379             -10.4638
        48                         -0.3485573              -9.4847
        49                         -0.3464855              -9.4283
        50                         -0.3422741              -9.3138
       ...                                ...                  ...
        88                          0.9160061              24.9258
      -------------------------------------------------------------
                  HL-Gap            0.1159222 Eh            3.1544 eV
             Fermi-level           -0.4651581 Eh          -12.6576 eV

 SCC (total)                   0 d,  0 h,  0 min,  0.029 sec
 SCC setup                      ...        0 min,  0.000 sec (  0.433%)
 Dispersion                     ...        0 min,  0.000 sec (  1.358%)
 classical contributions        ...        0 min,  0.000 sec (  0.160%)
 integral evaluation            ...        0 min,  0.002 sec (  5.805%)
 iterations                     ...        0 min,  0.022 sec ( 77.104%)
 molecular gradient             ...        0 min,  0.004 sec ( 14.626%)
 printout                       ...        0 min,  0.000 sec (  0.455%)

         :::::::::::::::::::::::::::::::::::::::::::::::::::::
         ::                     SUMMARY                     ::
         :::::::::::::::::::::::::::::::::::::::::::::::::::::
         :: total energy             -48.592104485657 Eh    ::
         :: gradient norm              0.082804408996 Eh/a0 ::
         :: HOMO-LUMO gap              3.154404455520 eV    ::
         ::.................................................::
         :: SCC energy               -49.401591767253 Eh    ::
         :: -> isotropic ES            0.081333700416 Eh    ::
         :: -> anisotropic ES         -0.008602869588 Eh    ::
         :: -> anisotropic XC          0.048746936779 Eh    ::
         :: -> dispersion             -0.032137241056 Eh    ::
         :: repulsion energy           0.809487281596 Eh    ::
         :: add. restraining           0.000000000000 Eh    ::
         :: total charge               1.000000000000 e     ::
         :::::::::::::::::::::::::::::::::::::::::::::::::::::

      ----------------------------------------------------------- 
     |                   =====================                   |
     |                        A N C O P T                        |
     |                   =====================                   |
     |               Approximate Normal Coordinate               |
     |                Rational Function Optimizer                |
      ----------------------------------------------------------- 
      ----------------------------------------------------------- 
     |                   =====================                   |
     |                        A N C O P T                        |
     |                   =====================                   |
     |               Approximate Normal Coordinate               |
     |                Rational Function Optimizer                |
      ----------------------------------------------------------- 

          ...................................................
          :                      SETUP                      :
          :.................................................:
          :   optimization level            normal          :
          :   max. optcycles                   200          :
          :   ANC micro-cycles                  20          :
          :   degrees of freedom                96          :
          :.................................................:
          :   RF solver                   davidson          :
          :   write xtbopt.log                true          :
          :   linear?                        false          :
          :   energy convergence         0.5000000E-05 Eh   :
          :   grad. convergence          0.1000000E-02 Eh/α :
          :   maxmium RF displ.          1.0000000          :
          :   Hlow (freq-cutoff)         0.1000000E-01      :
          :   Hmax (freq-cutoff)         5.0000000          :
          :   S6 in model hess.         20.0000000          :
          ...................................................

generating ANC from exact Hessian ...
Using Lindh-Hessian (1995)
 Shifting diagonal of input Hessian by    9.4077484312215243E-003
 Lowest  eigenvalues of input Hessian
    0.000000    0.000000    0.000000    0.000000    0.000000    0.000000
    0.010000    0.010278    0.010552    0.010820    0.011008    0.011836
    0.012803    0.014501    0.014701    0.017392    0.018771    0.020579
 Highest eigenvalues
    1.884300    1.948651    1.998917    2.024668    2.101588    2.458516


........................................................................
.............................. CYCLE    1 ..............................
........................................................................

 iter      E             dE          RMSdq      gap      omega  full diag
   1    -49.4018121 -0.494018E+02  0.153E-04    3.15       0.0  T
   2    -49.4018121 -0.811227E-10  0.100E-04    3.15     171.0  T
   3    -49.4018121 -0.590390E-10  0.718E-05    3.15     238.8  T
     SCC iter.                  ...        0 min,  0.004 sec
     gradient                   ...        0 min,  0.004 sec
 * total energy  :   -48.5921045 Eh     change       -0.1361677E-08 Eh
   gradient norm :     0.0828045 Eh/α   predicted     0.0000000E+00 (-100.00%)
   displ. norm   :     0.3057030 α      lambda       -0.1151578E-01
   maximum displ.:     0.1396821 α      in ANC's #12, #18, #22, ...

........................................................................
.............................. CYCLE    2 ..............................
........................................................................

 iter      E             dE          RMSdq      gap      omega  full diag
   1    -49.4601162 -0.494601E+02  0.220E-01    3.28       0.0  T
   2    -49.4601912 -0.749264E-04  0.127E-01    3.26       1.0  T
   3    -49.4601152  0.759328E-04  0.702E-02    3.25       1.0  T
   4    -49.4602085 -0.932797E-04  0.197E-02    3.25       1.0  T
   5    -49.4602178 -0.931978E-05  0.443E-03    3.26       3.9  T
   6    -49.4602180 -0.217705E-06  0.249E-03    3.25       6.9  T
   7    -49.4602181 -0.513328E-07  0.634E-04    3.26      27.0  T
   8    -49.4602181 -0.536488E-08  0.247E-04    3.26      69.5  T
     SCC iter.                  ...        0 min,  0.009 sec
     gradient                   ...        0 min,  0.004 sec
 * total energy  :   -48.5993920 Eh     change       -0.7287467E-02 Eh
   gradient norm :     0.0285536 Eh/α   predicted    -0.6303656E-02 ( -13.50%)
   displ. norm   :     0.2814565 α      lambda       -0.2904976E-02
   maximum displ.:     0.1726535 α      in ANC's #12, #18, #7, ...

........................................................................
.............................. CYCLE    3 ..............................
........................................................................

 iter      E             dE          RMSdq      gap      omega  full diag
   1    -49.4787469 -0.494787E+02  0.189E-01    3.33       0.0  T
   2    -49.4787910 -0.440645E-04  0.106E-01    3.31       1.0  T
   3    -49.4787801  0.109485E-04  0.323E-02    3.30       1.0  T
   4    -49.4787957 -0.156301E-04  0.107E-02    3.31       1.6  T
   5    -49.4787984 -0.274678E-05  0.385E-03    3.31       4.4  T
   6    -49.4787986 -0.183845E-06  0.195E-03    3.31       8.8  T
   7    -49.4787987 -0.413034E-07  0.487E-04    3.31      35.2  T
   8    -49.4787987 -0.367849E-08  0.182E-04    3.31      94.2  T
     SCC iter.                  ...        0 min,  0.009 sec
     gradient                   ...        0 min,  0.004 sec
 * total energy  :   -48.6010209 Eh     change       -0.1628946E-02 Eh
   gradient norm :     0.0101804 Eh/α   predicted    -0.1567544E-02 (  -3.77%)
   displ. norm   :     0.2298929 α      lambda       -0.9561942E-03
   maximum displ.:     0.1105961 α      in ANC's #10, #12, #18, ...

........................................................................
.............................. CYCLE    4 ..............................
........................................................................

 iter      E             dE          RMSdq      gap      omega  full diag
   1    -49.4812544 -0.494813E+02  0.211E-01    3.32       0.0  T
   2    -49.4812746 -0.201445E-04  0.118E-01    3.32       1.0  T
   3    -49.4812653  0.930996E-05  0.243E-02    3.31       1.0  T
   4    -49.4812810 -0.157651E-04  0.697E-03    3.32       2.5  T
   5    -49.4812821 -0.101151E-05  0.276E-03    3.32       6.2  T
   6    -49.4812821 -0.406321E-07  0.121E-03    3.32      14.2  T
   7    -49.4812821 -0.223398E-07  0.295E-04    3.32      58.1  T
   8    -49.4812821 -0.121610E-08  0.149E-04    3.32     115.5  T
     SCC iter.                  ...        0 min,  0.009 sec
     gradient                   ...        0 min,  0.004 sec
 * total energy  :   -48.6012000 Eh     change       -0.1791033E-03 Eh
   gradient norm :     0.0122821 Eh/α   predicted    -0.5034930E-03 ( 181.12%)
   displ. norm   :     0.1580991 α      lambda       -0.7548173E-03
   maximum displ.:     0.0893503 α      in ANC's #7, #1, #12, ...

........................................................................
.............................. CYCLE    5 ..............................
........................................................................

 iter      E             dE          RMSdq      gap      omega  full diag
   1    -49.4799583 -0.494800E+02  0.211E-01    3.31       0.0  T
   2    -49.4799733 -0.149579E-04  0.117E-01    3.31       1.0  T
   3    -49.4799707  0.258463E-05  0.182E-02    3.31       1.0  T
   4    -49.4799800 -0.927094E-05  0.367E-03    3.31       4.7  T
   5    -49.4799800 -0.103356E-07  0.116E-03    3.31      14.8  T
   6    -49.4799800 -0.216624E-07  0.342E-04    3.31      50.1  T
   7    -49.4799800 -0.207778E-08  0.143E-04    3.31     119.9  T
     SCC iter.                  ...        0 min,  0.008 sec
     gradient                   ...        0 min,  0.004 sec
 * total energy  :   -48.6016261 Eh     change       -0.4260982E-03 Eh
   gradient norm :     0.0061783 Eh/α   predicted    -0.3868633E-03 (  -9.21%)
   displ. norm   :     0.1508233 α      lambda       -0.2740022E-03
   maximum displ.:     0.0846299 α      in ANC's #7, #1, #2, ...

........................................................................
.............................. CYCLE    6 ..............................
........................................................................

 iter      E             dE          RMSdq      gap      omega  full diag
   1    -49.4767485 -0.494767E+02  0.101E-01    3.30       0.0  T
   2    -49.4767517 -0.319708E-05  0.573E-02    3.30       1.0  T
   3    -49.4767512  0.492933E-06  0.841E-03    3.31       2.0  T
   4    -49.4767527 -0.157089E-05  0.313E-03    3.30       5.5  T
   5    -49.4767528 -0.788991E-07  0.155E-03    3.30      11.1  T
   6    -49.4767528 -0.202412E-07  0.542E-04    3.31      31.7  T
   7    -49.4767528 -0.667816E-08  0.134E-04    3.30     128.3  T
     SCC iter.                  ...        0 min,  0.008 sec
     gradient                   ...        0 min,  0.004 sec
 * total energy  :   -48.6017853 Eh     change       -0.1592298E-03 Eh
   gradient norm :     0.0041626 Eh/α   predicted    -0.1401233E-03 ( -12.00%)
   displ. norm   :     0.2211399 α      lambda       -0.2325246E-03
   maximum displ.:     0.1095651 α      in ANC's #7, #1, #3, ...

........................................................................
.............................. CYCLE    7 ..............................
........................................................................

 iter      E             dE          RMSdq      gap      omega  full diag
   1    -49.4745824 -0.494746E+02  0.117E-01    3.30       0.0  T
   2    -49.4745859 -0.351897E-05  0.667E-02    3.30       1.0  T
   3    -49.4745855  0.447371E-06  0.835E-03    3.30       2.1  T
   4    -49.4745872 -0.176352E-05  0.311E-03    3.30       5.5  T
   5    -49.4745873 -0.484400E-07  0.141E-03    3.30      12.2  T
   6    -49.4745873 -0.312053E-07  0.514E-04    3.30      33.4  T
   7    -49.4745873 -0.649951E-08  0.117E-04    3.30     146.4  T
     SCC iter.                  ...        0 min,  0.008 sec
     gradient                   ...        0 min,  0.004 sec
 * total energy  :   -48.6019603 Eh     change       -0.1749297E-03 Eh
   gradient norm :     0.0069193 Eh/α   predicted    -0.1219492E-03 ( -30.29%)
   displ. norm   :     0.3487533 α      lambda       -0.3082850E-03
   maximum displ.:     0.1610298 α      in ANC's #7, #1, #3, ...

........................................................................
.............................. CYCLE    8 ..............................
........................................................................

 iter      E             dE          RMSdq      gap      omega  full diag
   1    -49.4753142 -0.494753E+02  0.152E-01    3.31       0.0  T
   2    -49.4753183 -0.414201E-05  0.880E-02    3.31       1.0  T
   3    -49.4753163  0.205131E-05  0.116E-02    3.31       1.5  T
   4    -49.4753199 -0.366638E-05  0.374E-03    3.31       4.6  T
   5    -49.4753200 -0.646453E-07  0.210E-03    3.31       8.2  T
   6    -49.4753201 -0.713663E-07  0.611E-04    3.31      28.1  T
   7    -49.4753201 -0.892998E-08  0.147E-04    3.31     117.0  T
     SCC iter.                  ...        0 min,  0.008 sec
     gradient                   ...        0 min,  0.004 sec
 * total energy  :   -48.6021837 Eh     change       -0.2234791E-03 Eh
   gradient norm :     0.0058656 Eh/α   predicted    -0.1728913E-03 ( -22.64%)
   displ. norm   :     0.3899657 α      lambda       -0.2748328E-03
   maximum displ.:     0.1910662 α      in ANC's #1, #7, #3, ...

........................................................................
.............................. CYCLE    9 ..............................
........................................................................

 iter      E             dE          RMSdq      gap      omega  full diag
   1    -49.4747654 -0.494748E+02  0.197E-01    3.33       0.0  T
   2    -49.4747742 -0.882421E-05  0.113E-01    3.32       1.0  T
   3    -49.4747750 -0.815583E-06  0.107E-02    3.33       1.6  T
   4    -49.4747774 -0.239081E-05  0.494E-03    3.32       3.5  T
   5    -49.4747775 -0.130505E-06  0.221E-03    3.32       7.8  T
   6    -49.4747776 -0.899165E-07  0.645E-04    3.32      26.6  T
   7    -49.4747776 -0.991107E-08  0.176E-04    3.32      97.2  T
     SCC iter.                  ...        0 min,  0.008 sec
     gradient                   ...        0 min,  0.004 sec
 * total energy  :   -48.6023862 Eh     change       -0.2025009E-03 Eh
   gradient norm :     0.0076831 Eh/α   predicted    -0.1583165E-03 ( -21.82%)
   displ. norm   :     0.3576992 α      lambda       -0.2694201E-03
   maximum displ.:     0.1839063 α      in ANC's #1, #3, #7, ...

........................................................................
.............................. CYCLE   10 ..............................
........................................................................

 iter      E             dE          RMSdq      gap      omega  full diag
   1    -49.4784844 -0.494785E+02  0.162E-01    3.35       0.0  T
   2    -49.4784887 -0.438565E-05  0.938E-02    3.34       1.0  T
   3    -49.4784808  0.792194E-05  0.186E-02    3.34       1.0  T
   4    -49.4784909 -0.100757E-04  0.392E-03    3.34       4.4  T
   5    -49.4784910 -0.735560E-07  0.194E-03    3.34       8.8  T
   6    -49.4784910 -0.483403E-07  0.516E-04    3.34      33.3  T
   7    -49.4784910 -0.493428E-08  0.159E-04    3.34     108.0  T
     SCC iter.                  ...        0 min,  0.008 sec
     gradient                   ...        0 min,  0.004 sec
 * total energy  :   -48.6025752 Eh     change       -0.1889206E-03 Eh
   gradient norm :     0.0040914 Eh/α   predicted    -0.1519471E-03 ( -19.57%)
   displ. norm   :     0.4105688 α      lambda       -0.2036892E-03
   maximum displ.:     0.2282393 α      in ANC's #1, #3, #7, ...

........................................................................
.............................. CYCLE   11 ..............................
........................................................................

 iter      E             dE          RMSdq      gap      omega  full diag
   1    -49.4762221 -0.494762E+02  0.217E-01    3.35       0.0  T
   2    -49.4762332 -0.110554E-04  0.124E-01    3.35       1.0  T
   3    -49.4762363 -0.311109E-05  0.909E-03    3.35       1.9  T
   4    -49.4762372 -0.869749E-06  0.522E-03    3.35       3.3  T
   5    -49.4762374 -0.241510E-06  0.186E-03    3.35       9.2  T
   6    -49.4762375 -0.620860E-07  0.491E-04    3.35      34.9  T
   7    -49.4762375 -0.571320E-08  0.193E-04    3.35      88.9  T
     SCC iter.                  ...        0 min,  0.008 sec
     gradient                   ...        0 min,  0.004 sec
 * total energy  :   -48.6027088 Eh     change       -0.1336866E-03 Eh
   gradient norm :     0.0107119 Eh/α   predicted    -0.1190141E-03 ( -10.98%)
   displ. norm   :     0.2844181 α      lambda       -0.1887215E-03
   maximum displ.:     0.1696410 α      in ANC's #1, #3, #6, ...

........................................................................
.............................. CYCLE   12 ..............................
........................................................................

 iter      E             dE          RMSdq      gap      omega  full diag
   1    -49.4799484 -0.494799E+02  0.126E-01    3.36       0.0  T
   2    -49.4799514 -0.306444E-05  0.731E-02    3.36       1.0  T
   3    -49.4799320  0.194320E-04  0.274E-02    3.36       1.0  T
   4    -49.4799544 -0.223561E-04  0.314E-03    3.36       5.5  T
   5    -49.4799544 -0.317496E-07  0.164E-03    3.36      10.4  T
   6    -49.4799544 -0.273022E-07  0.536E-04    3.36      32.0  T
   7    -49.4799544 -0.834422E-08  0.130E-04    3.36     132.2  T
     SCC iter.                  ...        0 min,  0.008 sec
     gradient                   ...        0 min,  0.005 sec
 * total energy  :   -48.6028353 Eh     change       -0.1264913E-03 Eh
   gradient norm :     0.0051673 Eh/α   predicted    -0.1019987E-03 ( -19.36%)
   displ. norm   :     0.3940063 α      lambda       -0.1412943E-03
   maximum displ.:     0.2425002 α      in ANC's #1, #3, #5, ...

........................................................................
.............................. CYCLE   13 ..............................
........................................................................

 iter      E             dE          RMSdq      gap      omega  full diag
   1    -49.4765886 -0.494766E+02  0.185E-01    3.36       0.0  T
   2    -49.4765958 -0.716149E-05  0.106E-01    3.35       1.0  T
   3    -49.4765965 -0.739413E-06  0.992E-03    3.36       1.7  T
   4    -49.4765985 -0.196357E-05  0.457E-03    3.35       3.8  T
   5    -49.4765986 -0.125588E-06  0.199E-03    3.35       8.6  T
   6    -49.4765987 -0.725330E-07  0.496E-04    3.35      34.6  T
   7    -49.4765987 -0.620134E-08  0.178E-04    3.35      96.5  T
     SCC iter.                  ...        0 min,  0.008 sec
     gradient                   ...        0 min,  0.004 sec
 * total energy  :   -48.6029276 Eh     change       -0.9222235E-04 Eh
   gradient norm :     0.0053521 Eh/α   predicted    -0.8161941E-04 ( -11.50%)
   displ. norm   :     0.2521114 α      lambda       -0.1578767E-03
   maximum displ.:     0.1745667 α      in ANC's #1, #6, #5, ...

........................................................................
.............................. CYCLE   14 ..............................
........................................................................

 iter      E             dE          RMSdq      gap      omega  full diag
   1    -49.4794684 -0.494795E+02  0.107E-01    3.36       0.0  T
   2    -49.4794713 -0.288228E-05  0.616E-02    3.36       1.0  T
   3    -49.4794511  0.201403E-04  0.281E-02    3.36       1.0  T
   4    -49.4794746 -0.234419E-04  0.290E-03    3.36       5.9  T
   5    -49.4794746 -0.201028E-08  0.159E-03    3.36      10.8  T
   6    -49.4794746 -0.474317E-07  0.294E-04    3.36      58.3  T
   7    -49.4794746 -0.194154E-08  0.116E-04    3.36     147.8  T
     SCC iter.                  ...        0 min,  0.021 sec
     gradient                   ...        0 min,  0.012 sec
 * total energy  :   -48.6030237 Eh     change       -0.9613318E-04 Eh
   gradient norm :     0.0045001 Eh/α   predicted    -0.8395758E-04 ( -12.67%)
   displ. norm   :     0.2596228 α      lambda       -0.8473958E-04
   maximum displ.:     0.1865769 α      in ANC's #1, #6, #5, ...

........................................................................
.............................. CYCLE   15 ..............................
........................................................................

 iter      E             dE          RMSdq      gap      omega  full diag
   1    -49.4782302 -0.494782E+02  0.111E-01    3.36       0.0  T
   2    -49.4782328 -0.256789E-05  0.642E-02    3.36       1.0  T
   3    -49.4782301  0.267119E-05  0.115E-02    3.36       1.5  T
   4    -49.4782340 -0.389679E-05  0.282E-03    3.36       6.1  T
   5    -49.4782340 -0.134745E-07  0.150E-03    3.36      11.4  T
   6    -49.4782340 -0.381213E-07  0.326E-04    3.36      52.7  T
   7    -49.4782340 -0.276831E-08  0.116E-04    3.36     147.7  T
     SCC iter.                  ...        0 min,  0.010 sec
     gradient                   ...        0 min,  0.004 sec
 * total energy  :   -48.6030872 Eh     change       -0.6350177E-04 Eh
   gradient norm :     0.0037859 Eh/α   predicted    -0.4522773E-04 ( -28.78%)
   displ. norm   :     0.2584021 α      lambda       -0.1148735E-03
   maximum displ.:     0.2075202 α      in ANC's #1, #6, #5, ...

........................................................................
.............................. CYCLE   16 ..............................
........................................................................

 iter      E             dE          RMSdq      gap      omega  full diag
   1    -49.4801686 -0.494802E+02  0.999E-02    3.37       0.0  T
   2    -49.4801715 -0.288438E-05  0.574E-02    3.36       1.0  T
   3    -49.4801683  0.314043E-05  0.122E-02    3.37       1.4  T
   4    -49.4801727 -0.437882E-05  0.309E-03    3.36       5.5  T
   5    -49.4801728 -0.862228E-07  0.166E-03    3.36      10.3  T
   6    -49.4801728 -0.279833E-07  0.520E-04    3.36      33.0  T
   7    -49.4801728 -0.682690E-08  0.123E-04    3.36     139.2  T
     SCC iter.                  ...        0 min,  0.008 sec
     gradient                   ...        0 min,  0.004 sec
 * total energy  :   -48.6031615 Eh     change       -0.7430343E-04 Eh
   gradient norm :     0.0031788 Eh/α   predicted    -0.6127480E-04 ( -17.53%)
   displ. norm   :     0.2804637 α      lambda       -0.6116610E-04
   maximum displ.:     0.2290419 α      in ANC's #1, #6, #5, ...

........................................................................
.............................. CYCLE   17 ..............................
........................................................................

 iter      E             dE          RMSdq      gap      omega  full diag
   1    -49.4776196 -0.494776E+02  0.122E-01    3.37       0.0  T
   2    -49.4776236 -0.399976E-05  0.696E-02    3.36       1.0  T
   3    -49.4776233  0.356698E-06  0.877E-03    3.36       2.0  T
   4    -49.4776252 -0.188999E-05  0.354E-03    3.36       4.8  T
   5    -49.4776252 -0.837634E-07  0.153E-03    3.36      11.2  T
   6    -49.4776253 -0.369396E-07  0.410E-04    3.36      41.8  T
   7    -49.4776253 -0.430661E-08  0.126E-04    3.36     135.7  T
     SCC iter.                  ...        0 min,  0.008 sec
     gradient                   ...        0 min,  0.004 sec
 * total energy  :   -48.6031923 Eh     change       -0.3080424E-04 Eh
   gradient norm :     0.0073794 Eh/α   predicted    -0.3299035E-04 (   7.10%)
   displ. norm   :     0.1892601 α      lambda       -0.9212000E-04
   maximum displ.:     0.1561729 α      in ANC's #1, #6, #7, ...

........................................................................
.............................. CYCLE   18 ..............................
........................................................................

 iter      E             dE          RMSdq      gap      omega  full diag
   1    -49.4815034 -0.494815E+02  0.648E-02    3.36       0.0  T
   2    -49.4815045 -0.109186E-05  0.377E-02    3.36       1.0  T
   3    -49.4815036  0.956109E-06  0.689E-03    3.36       2.5  T
   4    -49.4815049 -0.132032E-05  0.208E-03    3.36       8.3  T
   5    -49.4815049 -0.546977E-07  0.969E-04    3.36      17.7  T
   6    -49.4815050 -0.713066E-08  0.389E-04    3.36      44.1  T
     SCC iter.                  ...        0 min,  0.008 sec
     gradient                   ...        0 min,  0.004 sec
 * total energy  :   -48.6032303 Eh     change       -0.3802097E-04 Eh
   gradient norm :     0.0053234 Eh/α   predicted    -0.4771265E-04 (  25.49%)
   displ. norm   :     0.0816218 α      lambda       -0.4319406E-04
   maximum displ.:     0.0744494 α      in ANC's #1, #3, #6, ...

........................................................................
.............................. CYCLE   19 ..............................
........................................................................

 iter      E             dE          RMSdq      gap      omega  full diag
   1    -49.4812761 -0.494813E+02  0.345E-02    3.36       0.0  T
   2    -49.4812766 -0.528935E-06  0.196E-02    3.36       1.0  T
   3    -49.4812759  0.716371E-06  0.577E-03    3.36       3.0  T
   4    -49.4812768 -0.950655E-06  0.126E-03    3.36      13.6  T
   5    -49.4812768 -0.204824E-07  0.554E-04    3.36      30.9  T
   6    -49.4812768 -0.548425E-09  0.204E-04    3.36      84.2  T
     SCC iter.                  ...        0 min,  0.007 sec
     gradient                   ...        0 min,  0.004 sec
 * total energy  :   -48.6032626 Eh     change       -0.3231668E-04 Eh
   gradient norm :     0.0026354 Eh/α   predicted    -0.2174165E-04 ( -32.72%)
   displ. norm   :     0.2140594 α      lambda       -0.6383054E-04
   maximum displ.:     0.1917172 α      in ANC's #1, #6, #10, ...

........................................................................
.............................. CYCLE   20 ..............................
........................................................................

 iter      E             dE          RMSdq      gap      omega  full diag
   1    -49.4795868 -0.494796E+02  0.822E-02    3.36       0.0  T
   2    -49.4795890 -0.214765E-05  0.471E-02    3.36       1.0  T
   3    -49.4795874  0.151609E-05  0.943E-03    3.36       1.8  T
   4    -49.4795898 -0.233991E-05  0.269E-03    3.36       6.4  T
   5    -49.4795899 -0.840362E-07  0.119E-03    3.36      14.4  T
   6    -49.4795899 -0.480364E-08  0.460E-04    3.36      37.3  T
   7    -49.4795899 -0.507336E-08  0.986E-05    3.36     173.9  T
     SCC iter.                  ...        0 min,  0.008 sec
     gradient                   ...        0 min,  0.004 sec
 * total energy  :   -48.6033031 Eh     change       -0.4050566E-04 Eh
   gradient norm :     0.0041830 Eh/α   predicted    -0.3337897E-04 ( -17.59%)
   displ. norm   :     0.1333134 α      lambda       -0.3989243E-04
   maximum displ.:     0.0934237 α      in ANC's #1, #3, #2, ...
 * RMSD in coord.:     0.6919763 α      energy gain  -0.1119866E-01 Eh

generating ANC from exact Hessian ...
Using Lindh-Hessian (1995)
 Shifting diagonal of input Hessian by    9.3100517813586286E-003
 Lowest  eigenvalues of input Hessian
    0.000000    0.000000    0.000000    0.000000    0.000000    0.000000
    0.010000    0.010279    0.010636    0.010754    0.011201    0.011835
    0.013089    0.014573    0.015506    0.018311    0.019549    0.021402
 Highest eigenvalues
    1.983882    2.026256    2.115144    2.161272    2.243226    2.566254


........................................................................
.............................. CYCLE   21 ..............................
........................................................................

 iter      E             dE          RMSdq      gap      omega  full diag
   1    -49.4808932 -0.494809E+02  0.447E-02    3.36       0.0  T
   2    -49.4808938 -0.553034E-06  0.258E-02    3.36       1.0  T
   3    -49.4808937  0.774573E-07  0.326E-03    3.36       5.3  T
   4    -49.4808939 -0.249325E-06  0.121E-03    3.36      14.2  T
   5    -49.4808939 -0.173367E-07  0.574E-04    3.36      29.9  T
   6    -49.4808939 -0.209518E-08  0.210E-04    3.36      81.7  T
     SCC iter.                  ...        0 min,  0.007 sec
     gradient                   ...        0 min,  0.004 sec
 * total energy  :   -48.6033305 Eh     change       -0.2737299E-04 Eh
   gradient norm :     0.0043050 Eh/α   predicted     0.0000000E+00 (-100.00%)
   displ. norm   :     0.0341854 α      lambda       -0.1665042E-04
   maximum displ.:     0.0219309 α      in ANC's #3, #1, #7, ...

........................................................................
.............................. CYCLE   22 ..............................
........................................................................

 iter      E             dE          RMSdq      gap      omega  full diag
   1    -49.4810178 -0.494810E+02  0.147E-02    3.36       0.0  T
   2    -49.4810179 -0.960193E-07  0.868E-03    3.36       2.0  T
   3    -49.4810175  0.460790E-06  0.447E-03    3.36       3.8  T
   4    -49.4810180 -0.527011E-06  0.667E-04    3.36      25.7  T
   5    -49.4810180 -0.106291E-07  0.221E-04    3.36      77.5  T
     SCC iter.                  ...        0 min,  0.006 sec
     gradient                   ...        0 min,  0.004 sec
 * total energy  :   -48.6033547 Eh     change       -0.2415339E-04 Eh
   gradient norm :     0.0016020 Eh/α   predicted    -0.1675854E-04 ( -30.62%)
   displ. norm   :     0.1274523 α      lambda       -0.4205024E-04
   maximum displ.:     0.0819019 α      in ANC's #3, #7, #1, ...

........................................................................
.............................. CYCLE   23 ..............................
........................................................................

 iter      E             dE          RMSdq      gap      omega  full diag
   1    -49.4800271 -0.494800E+02  0.894E-02    3.36       0.0  T
   2    -49.4800306 -0.347343E-05  0.502E-02    3.36       1.0  T
   3    -49.4800298  0.840179E-06  0.908E-03    3.36       1.9  T
   4    -49.4800320 -0.224105E-05  0.249E-03    3.36       6.9  T
   5    -49.4800321 -0.616942E-07  0.127E-03    3.36      13.5  T
   6    -49.4800321 -0.126405E-07  0.400E-04    3.36      42.9  T
   7    -49.4800321 -0.419737E-08  0.959E-05    3.36     178.8  T
     SCC iter.                  ...        0 min,  0.008 sec
     gradient                   ...        0 min,  0.004 sec
 * total energy  :   -48.6033748 Eh     change       -0.2012950E-04 Eh
   gradient norm :     0.0040420 Eh/α   predicted    -0.2118822E-04 (   5.26%)
   displ. norm   :     0.0678838 α      lambda       -0.4130025E-04
   maximum displ.:     0.0414471 α      in ANC's #3, #10, #1, ...

........................................................................
.............................. CYCLE   24 ..............................
........................................................................

 iter      E             dE          RMSdq      gap      omega  full diag
   1    -49.4799340 -0.494799E+02  0.265E-02    3.36       0.0  T
   2    -49.4799341 -0.122195E-06  0.153E-02    3.36       1.1  T
   3    -49.4799338  0.290598E-06  0.352E-03    3.36       4.9  T
   4    -49.4799341 -0.359721E-06  0.592E-04    3.36      29.0  T
   5    -49.4799342 -0.195308E-08  0.334E-04    3.36      51.3  T
     SCC iter.                  ...        0 min,  0.006 sec
     gradient                   ...        0 min,  0.005 sec
 * total energy  :   -48.6033988 Eh     change       -0.2395278E-04 Eh
   gradient norm :     0.0038237 Eh/α   predicted    -0.2075023E-04 ( -13.37%)
   displ. norm   :     0.0629712 α      lambda       -0.3171831E-04
   maximum displ.:     0.0405246 α      in ANC's #3, #1, #7, ...

........................................................................
.............................. CYCLE   25 ..............................
........................................................................

 iter      E             dE          RMSdq      gap      omega  full diag
   1    -49.4804444 -0.494804E+02  0.269E-02    3.36       0.0  T
   2    -49.4804447 -0.276210E-06  0.154E-02    3.36       1.1  T
   3    -49.4804444  0.278487E-06  0.366E-03    3.36       4.7  T
   4    -49.4804448 -0.372261E-06  0.999E-04    3.36      17.2  T
   5    -49.4804448 -0.153360E-07  0.456E-04    3.36      37.6  T
     SCC iter.                  ...        0 min,  0.006 sec
     gradient                   ...        0 min,  0.004 sec
 * total energy  :   -48.6034234 Eh     change       -0.2466468E-04 Eh
   gradient norm :     0.0020752 Eh/α   predicted    -0.1592332E-04 ( -35.44%)
   displ. norm   :     0.1225000 α      lambda       -0.4330481E-04
   maximum displ.:     0.0785556 α      in ANC's #3, #1, #7, ...

........................................................................
.............................. CYCLE   26 ..............................
........................................................................

 iter      E             dE          RMSdq      gap      omega  full diag
   1    -49.4810756 -0.494811E+02  0.547E-02    3.36       0.0  T
   2    -49.4810767 -0.114637E-05  0.312E-02    3.36       1.0  T
   3    -49.4810755  0.122233E-05  0.776E-03    3.36       2.2  T
   4    -49.4810772 -0.169469E-05  0.182E-03    3.36       9.4  T
   5    -49.4810772 -0.370516E-07  0.884E-04    3.36      19.4  T
   6    -49.4810772 -0.273663E-08  0.309E-04    3.36      55.4  T
     SCC iter.                  ...        0 min,  0.007 sec
     gradient                   ...        0 min,  0.004 sec
 * total energy  :   -48.6034531 Eh     change       -0.2968319E-04 Eh
   gradient norm :     0.0021626 Eh/α   predicted    -0.2197830E-04 ( -25.96%)
   displ. norm   :     0.1260391 α      lambda       -0.2914698E-04
   maximum displ.:     0.0809218 α      in ANC's #3, #1, #2, ...

........................................................................
.............................. CYCLE   27 ..............................
........................................................................

 iter      E             dE          RMSdq      gap      omega  full diag
   1    -49.4807864 -0.494808E+02  0.585E-02    3.36       0.0  T
   2    -49.4807876 -0.115158E-05  0.332E-02    3.36       1.0  T
   3    -49.4807865  0.107968E-05  0.759E-03    3.36       2.3  T
   4    -49.4807881 -0.163012E-05  0.163E-03    3.36      10.6  T
   5    -49.4807881 -0.835808E-08  0.746E-04    3.36      23.0  T
   6    -49.4807881 -0.541834E-08  0.211E-04    3.36      81.2  T
     SCC iter.                  ...        0 min,  0.007 sec
     gradient                   ...        0 min,  0.004 sec
 * total energy  :   -48.6034771 Eh     change       -0.2403717E-04 Eh
   gradient norm :     0.0031646 Eh/α   predicted    -0.1480824E-04 ( -38.39%)
   displ. norm   :     0.1541789 α      lambda       -0.3513010E-04
   maximum displ.:     0.0989685 α      in ANC's #3, #1, #2, ...

........................................................................
.............................. CYCLE   28 ..............................
........................................................................

 iter      E             dE          RMSdq      gap      omega  full diag
   1    -49.4805016 -0.494805E+02  0.672E-02    3.36       0.0  T
   2    -49.4805029 -0.131660E-05  0.384E-02    3.36       1.0  T
   3    -49.4805007  0.213848E-05  0.997E-03    3.36       1.7  T
   4    -49.4805036 -0.287466E-05  0.179E-03    3.36       9.6  T
   5    -49.4805036  0.451409E-08  0.810E-04    3.36      21.2  T
   6    -49.4805036 -0.166752E-07  0.150E-04    3.36     114.3  T
     SCC iter.                  ...        0 min,  0.007 sec
     gradient                   ...        0 min,  0.005 sec
 * total energy  :   -48.6035076 Eh     change       -0.3045733E-04 Eh
   gradient norm :     0.0024866 Eh/α   predicted    -0.1798526E-04 ( -40.95%)
   displ. norm   :     0.2199225 α      lambda       -0.4516456E-04
   maximum displ.:     0.1406433 α      in ANC's #3, #1, #2, ...

........................................................................
.............................. CYCLE   29 ..............................
........................................................................

 iter      E             dE          RMSdq      gap      omega  full diag
   1    -49.4799872 -0.494800E+02  0.946E-02    3.36       0.0  T
   2    -49.4799896 -0.243294E-05  0.541E-02    3.36       1.0  T
   3    -49.4799869  0.267315E-05  0.117E-02    3.36       1.5  T
   4    -49.4799909 -0.391634E-05  0.249E-03    3.36       6.9  T
   5    -49.4799908  0.131422E-07  0.116E-03    3.36      14.8  T
   6    -49.4799909 -0.399704E-07  0.171E-04    3.36     100.1  T
   7    -49.4799909 -0.227537E-09  0.850E-05    3.36     201.8  T
     SCC iter.                  ...        0 min,  0.008 sec
     gradient                   ...        0 min,  0.004 sec
 * total energy  :   -48.6035444 Eh     change       -0.3676498E-04 Eh
   gradient norm :     0.0017305 Eh/α   predicted    -0.2367592E-04 ( -35.60%)
   displ. norm   :     0.3963626 α      lambda       -0.4269040E-04
   maximum displ.:     0.2520802 α      in ANC's #3, #1, #2, ...

........................................................................
.............................. CYCLE   30 ..............................
........................................................................

 iter      E             dE          RMSdq      gap      omega  full diag
   1    -49.4787165 -0.494787E+02  0.167E-01    3.36       0.0  T
   2    -49.4787236 -0.712978E-05  0.959E-02    3.36       1.0  T
   3    -49.4787209  0.268383E-05  0.148E-02    3.36       1.2  T
   4    -49.4787268 -0.585906E-05  0.434E-03    3.36       4.0  T
   5    -49.4787268  0.998214E-08  0.197E-03    3.36       8.7  T
   6    -49.4787269 -0.111926E-06  0.299E-04    3.36      57.3  T
   7    -49.4787269 -0.780048E-09  0.146E-04    3.36     117.5  T
     SCC iter.                  ...        0 min,  0.008 sec
     gradient                   ...        0 min,  0.004 sec
 * total energy  :   -48.6035865 Eh     change       -0.4209402E-04 Eh
   gradient norm :     0.0027745 Eh/α   predicted    -0.2284084E-04 ( -45.74%)
   displ. norm   :     0.1654150 α      lambda       -0.3025857E-04
   maximum displ.:     0.1017445 α      in ANC's #3, #1, #2, ...

........................................................................
.............................. CYCLE   31 ..............................
........................................................................

 iter      E             dE          RMSdq      gap      omega  full diag
   1    -49.4798181 -0.494798E+02  0.651E-02    3.36       0.0  T
   2    -49.4798190 -0.850427E-06  0.376E-02    3.36       1.0  T
   3    -49.4798175  0.149026E-05  0.824E-03    3.36       2.1  T
   4    -49.4798194 -0.196170E-05  0.160E-03    3.36      10.7  T
   5    -49.4798194 -0.889699E-09  0.723E-04    3.36      23.7  T
   6    -49.4798194 -0.125959E-07  0.128E-04    3.36     133.5  T
     SCC iter.                  ...        0 min,  0.008 sec
     gradient                   ...        0 min,  0.004 sec
 * total energy  :   -48.6036113 Eh     change       -0.2488728E-04 Eh
   gradient norm :     0.0027368 Eh/α   predicted    -0.1554568E-04 ( -37.54%)
   displ. norm   :     0.4314862 α      lambda       -0.6642509E-04
   maximum displ.:     0.2604349 α      in ANC's #3, #1, #2, ...

........................................................................
.............................. CYCLE   32 ..............................
........................................................................

 iter      E             dE          RMSdq      gap      omega  full diag
   1    -49.4788213 -0.494788E+02  0.178E-01    3.36       0.0  T
   2    -49.4788290 -0.769065E-05  0.102E-01    3.36       1.0  T
   3    -49.4788312 -0.218457E-05  0.772E-03    3.36       2.2  T
   4    -49.4788319 -0.670896E-06  0.456E-03    3.36       3.8  T
   5    -49.4788321 -0.217323E-06  0.121E-03    3.36      14.1  T
   6    -49.4788321 -0.336595E-07  0.337E-04    3.36      50.8  T
   7    -49.4788321 -0.166833E-08  0.164E-04    3.36     104.6  T
     SCC iter.                  ...        0 min,  0.014 sec
     gradient                   ...        0 min,  0.004 sec
 * total energy  :   -48.6036569 Eh     change       -0.4556489E-04 Eh
   gradient norm :     0.0034707 Eh/α   predicted    -0.3939796E-04 ( -13.53%)
   displ. norm   :     0.3030570 α      lambda       -0.6441005E-04
   maximum displ.:     0.1662743 α      in ANC's #1, #3, #2, ...

........................................................................
.............................. CYCLE   33 ..............................
........................................................................

 iter      E             dE          RMSdq      gap      omega  full diag
   1    -49.4806348 -0.494806E+02  0.106E-01    3.36       0.0  T
   2    -49.4806363 -0.153582E-05  0.618E-02    3.36       1.0  T
   3    -49.4806352  0.116948E-05  0.809E-03    3.36       2.1  T
   4    -49.4806370 -0.187276E-05  0.229E-03    3.36       7.5  T
   5    -49.4806370 -0.165603E-07  0.973E-04    3.36      17.6  T
   6    -49.4806371 -0.193031E-07  0.220E-04    3.36      77.9  T
     SCC iter.                  ...        0 min,  0.007 sec
     gradient                   ...        0 min,  0.004 sec
 * total energy  :   -48.6037013 Eh     change       -0.4438969E-04 Eh
   gradient norm :     0.0029298 Eh/α   predicted    -0.3516479E-04 ( -20.78%)
   displ. norm   :     0.3652708 α      lambda       -0.4256645E-04
   maximum displ.:     0.2034373 α      in ANC's #1, #3, #2, ...

........................................................................
.............................. CYCLE   34 ..............................
........................................................................

 iter      E             dE          RMSdq      gap      omega  full diag
   1    -49.4792504 -0.494793E+02  0.134E-01    3.35       0.0  T
   2    -49.4792537 -0.331104E-05  0.777E-02    3.35       1.0  T
   3    -49.4792537  0.709770E-07  0.769E-03    3.35       2.2  T
   4    -49.4792551 -0.142309E-05  0.315E-03    3.35       5.4  T
   5    -49.4792551 -0.490461E-07  0.954E-04    3.35      18.0  T
   6    -49.4792552 -0.209155E-07  0.291E-04    3.35      58.8  T
     SCC iter.                  ...        0 min,  0.007 sec
     gradient                   ...        0 min,  0.004 sec
 * total energy  :   -48.6037303 Eh     change       -0.2897365E-04 Eh
   gradient norm :     0.0020849 Eh/α   predicted    -0.2412467E-04 ( -16.74%)
   displ. norm   :     0.3652299 α      lambda        0.6233971E-05
   maximum displ.:     0.2034149 α      in ANC's #1, #3, #2, ...

........................................................................
.............................. CYCLE   35 ..............................
........................................................................

 iter      E             dE          RMSdq      gap      omega  full diag
   1    -49.4757117 -0.494757E+02  0.134E-01    3.35       0.0  T
   2    -49.4757150 -0.335617E-05  0.776E-02    3.35       1.0  T
   3    -49.4757123  0.270415E-05  0.123E-02    3.35       1.4  T
   4    -49.4757166 -0.429841E-05  0.318E-03    3.35       5.4  T
   5    -49.4757167 -0.146004E-07  0.122E-03    3.35      14.0  T
   6    -49.4757167 -0.341473E-07  0.378E-04    3.35      45.3  T
   7    -49.4757167 -0.330957E-08  0.137E-04    3.35     125.4  T
     SCC iter.                  ...        0 min,  0.008 sec
     gradient                   ...        0 min,  0.004 sec
 * total energy  :   -48.6037140 Eh     change        0.1631983E-04 Eh
   gradient norm :     0.0060965 Eh/α   predicted     0.3532884E-05 ( -78.35%)
   displ. norm   :     0.1235297 α      lambda       -0.1022600E-03
   maximum displ.:     0.0693488 α      in ANC's #3, #6, #1, ...

........................................................................
.............................. CYCLE   36 ..............................
........................................................................

 iter      E             dE          RMSdq      gap      omega  full diag
   1    -49.4822140 -0.494822E+02  0.547E-02    3.36       0.0  T
   2    -49.4822152 -0.118118E-05  0.315E-02    3.36       1.0  T
   3    -49.4822118  0.340586E-05  0.117E-02    3.36       1.5  T
   4    -49.4822159 -0.413683E-05  0.216E-03    3.36       7.9  T
   5    -49.4822160 -0.484405E-07  0.101E-03    3.36      17.0  T
   6    -49.4822160 -0.738507E-08  0.307E-04    3.36      55.9  T
   7    -49.4822160 -0.188352E-08  0.109E-04    3.36     157.8  T
     SCC iter.                  ...        0 min,  0.008 sec
     gradient                   ...        0 min,  0.004 sec
 * total energy  :   -48.6037526 Eh     change       -0.3862173E-04 Eh
   gradient norm :     0.0026697 Eh/α   predicted    -0.5191266E-04 (  34.41%)
   displ. norm   :     0.0412730 α      lambda       -0.2866908E-04
   maximum displ.:     0.0246551 α      in ANC's #7, #10, #6, ...

........................................................................
.............................. CYCLE   37 ..............................
........................................................................

 iter      E             dE          RMSdq      gap      omega  full diag
   1    -49.4818245 -0.494818E+02  0.209E-02    3.36       0.0  T
   2    -49.4818248 -0.268050E-06  0.121E-02    3.36       1.4  T
   3    -49.4818243  0.510010E-06  0.440E-03    3.36       3.9  T
   4    -49.4818249 -0.635079E-06  0.108E-03    3.36      15.8  T
   5    -49.4818249 -0.138247E-07  0.423E-04    3.36      40.5  T
   6    -49.4818249 -0.235711E-08  0.124E-04    3.36     137.8  T
     SCC iter.                  ...        0 min,  0.007 sec
     gradient                   ...        0 min,  0.004 sec
 * total energy  :   -48.6037672 Eh     change       -0.1466556E-04 Eh
   gradient norm :     0.0041889 Eh/α   predicted    -0.1437228E-04 (  -2.00%)
   displ. norm   :     0.0569723 α      lambda       -0.1675576E-04
   maximum displ.:     0.0342271 α      in ANC's #2, #1, #6, ...

........................................................................
.............................. CYCLE   38 ..............................
........................................................................

 iter      E             dE          RMSdq      gap      omega  full diag
   1    -49.4810255 -0.494810E+02  0.197E-02    3.36       0.0  T
   2    -49.4810255 -0.502697E-07  0.116E-02    3.35       1.5  T
   3    -49.4810252  0.281519E-06  0.326E-03    3.36       5.3  T
   4    -49.4810255 -0.320080E-06  0.420E-04    3.36      40.8  T
   5    -49.4810255 -0.177205E-08  0.213E-04    3.35      80.3  T
     SCC iter.                  ...        0 min,  0.006 sec
     gradient                   ...        0 min,  0.004 sec
 * total energy  :   -48.6037813 Eh     change       -0.1404943E-04 Eh
   gradient norm :     0.0020116 Eh/α   predicted    -0.8405906E-05 ( -40.17%)
   displ. norm   :     0.2323869 α      lambda       -0.4707372E-04
   maximum displ.:     0.1411009 α      in ANC's #2, #6, #1, ...

........................................................................
.............................. CYCLE   39 ..............................
........................................................................

 iter      E             dE          RMSdq      gap      omega  full diag
   1    -49.4795857 -0.494796E+02  0.743E-02    3.36       0.0  T
   2    -49.4795861 -0.366694E-06  0.438E-02    3.36       1.0  T
   3    -49.4795836  0.251763E-05  0.971E-03    3.36       1.8  T
   4    -49.4795864 -0.283409E-05  0.106E-03    3.36      16.2  T
   5    -49.4795864 -0.112094E-07  0.530E-04    3.36      32.3  T
   6    -49.4795864 -0.393712E-10  0.246E-04    3.36      69.6  T
     SCC iter.                  ...        0 min,  0.007 sec
     gradient                   ...        0 min,  0.004 sec
 * total energy  :   -48.6038133 Eh     change       -0.3201017E-04 Eh
   gradient norm :     0.0028023 Eh/α   predicted    -0.2481012E-04 ( -22.49%)
   displ. norm   :     0.1537005 α      lambda       -0.2726141E-04
   maximum displ.:     0.0953591 α      in ANC's #2, #6, #4, ...

........................................................................
.............................. CYCLE   40 ..............................
........................................................................

 iter      E             dE          RMSdq      gap      omega  full diag
   1    -49.4795623 -0.494796E+02  0.496E-02    3.36       0.0  T
   2    -49.4795625 -0.182384E-06  0.292E-02    3.36       1.0  T
   3    -49.4795617  0.829318E-06  0.569E-03    3.36       3.0  T
   4    -49.4795627 -0.964979E-06  0.777E-04    3.36      22.1  T
   5    -49.4795627 -0.299499E-08  0.371E-04    3.36      46.3  T
     SCC iter.                  ...        0 min,  0.006 sec
     gradient                   ...        0 min,  0.004 sec
 * total energy  :   -48.6038350 Eh     change       -0.2169283E-04 Eh
   gradient norm :     0.0039286 Eh/α   predicted    -0.1395353E-04 ( -35.68%)
   displ. norm   :     0.2083242 α      lambda       -0.4395453E-04
   maximum displ.:     0.1286978 α      in ANC's #2, #6, #4, ...

........................................................................
.............................. CYCLE   41 ..............................
........................................................................

 iter      E             dE          RMSdq      gap      omega  full diag
   1    -49.4801503 -0.494802E+02  0.703E-02    3.36       0.0  T
   2    -49.4801508 -0.537446E-06  0.412E-02    3.36       1.0  T
   3    -49.4801495  0.136517E-05  0.756E-03    3.36       2.3  T
   4    -49.4801512 -0.169504E-05  0.133E-03    3.36      12.9  T
   5    -49.4801512 -0.296925E-08  0.562E-04    3.36      30.5  T
   6    -49.4801512 -0.498591E-08  0.148E-04    3.36     115.8  T
     SCC iter.                  ...        0 min,  0.007 sec
     gradient                   ...        0 min,  0.004 sec
 * total energy  :   -48.6038697 Eh     change       -0.3475327E-04 Eh
   gradient norm :     0.0036956 Eh/α   predicted    -0.2293283E-04 ( -34.01%)
   displ. norm   :     0.2604200 α      lambda       -0.5272873E-04
   maximum displ.:     0.1622336 α      in ANC's #2, #6, #4, ...

........................................................................
.............................. CYCLE   42 ..............................
........................................................................

 iter      E             dE          RMSdq      gap      omega  full diag
   1    -49.4802873 -0.494803E+02  0.865E-02    3.37       0.0  T
   2    -49.4802881 -0.801126E-06  0.508E-02    3.37       1.0  T
   3    -49.4802851  0.293023E-05  0.107E-02    3.37       1.6  T
   4    -49.4802886 -0.348415E-05  0.163E-03    3.37      10.5  T
   5    -49.4802886 -0.579978E-08  0.740E-04    3.37      23.2  T
   6    -49.4802886 -0.759293E-08  0.217E-04    3.37      78.9  T
     SCC iter.                  ...        0 min,  0.007 sec
     gradient                   ...        0 min,  0.004 sec
 * total energy  :   -48.6039107 Eh     change       -0.4096708E-04 Eh
   gradient norm :     0.0027342 Eh/α   predicted    -0.2815411E-04 ( -31.28%)
   displ. norm   :     0.2809429 α      lambda       -0.6423286E-04
   maximum displ.:     0.1727799 α      in ANC's #2, #6, #4, ...
 * RMSD in coord.:     0.5951996 α      energy gain  -0.6075658E-03 Eh

generating ANC from exact Hessian ...
Using Lindh-Hessian (1995)
 Shifting diagonal of input Hessian by    9.2723616073915917E-003
 Lowest  eigenvalues of input Hessian
    0.000000    0.000000    0.000000    0.000000    0.000000    0.000000
    0.010000    0.010286    0.010573    0.010757    0.011306    0.011755
    0.013224    0.014362    0.015354    0.018522    0.019526    0.020953
 Highest eigenvalues
    1.980777    2.031316    2.117169    2.163353    2.245125    2.569437


........................................................................
.............................. CYCLE   43 ..............................
........................................................................

 iter      E             dE          RMSdq      gap      omega  full diag
   1    -49.4813723 -0.494814E+02  0.967E-02    3.37       0.0  T
   2    -49.4813739 -0.161446E-05  0.564E-02    3.37       1.0  T
   3    -49.4813707  0.322923E-05  0.117E-02    3.37       1.5  T
   4    -49.4813748 -0.411128E-05  0.241E-03    3.37       7.1  T
   5    -49.4813748 -0.108495E-07  0.117E-03    3.37      14.6  T
   6    -49.4813748 -0.269732E-07  0.306E-04    3.37      56.0  T
   7    -49.4813748 -0.215968E-08  0.128E-04    3.37     134.2  T
     SCC iter.                  ...        0 min,  0.008 sec
     gradient                   ...        0 min,  0.004 sec
 * total energy  :   -48.6039525 Eh     change       -0.4181013E-04 Eh
   gradient norm :     0.0020197 Eh/α   predicted     0.0000000E+00 (-100.00%)
   displ. norm   :     0.0277171 α      lambda       -0.9133352E-05
   maximum displ.:     0.0107972 α      in ANC's #4, #2, #10, ...

........................................................................
.............................. CYCLE   44 ..............................
........................................................................

 iter      E             dE          RMSdq      gap      omega  full diag
   1    -49.4812070 -0.494812E+02  0.157E-02    3.37       0.0  T
   2    -49.4812071 -0.651132E-07  0.905E-03    3.37       1.9  T
   3    -49.4812070  0.931333E-07  0.198E-03    3.37       8.7  T
   4    -49.4812071 -0.121336E-06  0.458E-04    3.37      37.4  T
   5    -49.4812071 -0.258919E-08  0.194E-04    3.37      88.3  T
     SCC iter.                  ...        0 min,  0.006 sec
     gradient                   ...        0 min,  0.004 sec
 * total energy  :   -48.6039646 Eh     change       -0.1209361E-04 Eh
   gradient norm :     0.0009133 Eh/α   predicted    -0.8171867E-05 ( -32.43%)
   displ. norm   :     0.1401489 α      lambda       -0.3796232E-04
   maximum displ.:     0.0643545 α      in ANC's #2, #8, #4, ...

........................................................................
.............................. CYCLE   45 ..............................
........................................................................

 iter      E             dE          RMSdq      gap      omega  full diag
   1    -49.4803158 -0.494803E+02  0.726E-02    3.36       0.0  T
   2    -49.4803173 -0.142003E-05  0.418E-02    3.36       1.0  T
   3    -49.4803161  0.113018E-05  0.742E-03    3.36       2.3  T
   4    -49.4803178 -0.171161E-05  0.209E-03    3.36       8.2  T
   5    -49.4803179 -0.392987E-07  0.958E-04    3.36      17.9  T
   6    -49.4803179 -0.806133E-08  0.331E-04    3.36      51.8  T
     SCC iter.                  ...        0 min,  0.007 sec
     gradient                   ...        0 min,  0.004 sec
 * total energy  :   -48.6039715 Eh     change       -0.6898562E-05 Eh
   gradient norm :     0.0046167 Eh/α   predicted    -0.1914750E-04 ( 177.56%)
   displ. norm   :     0.0308286 α      lambda       -0.3217339E-04
   maximum displ.:     0.0139399 α      in ANC's #2, #4, #10, ...

........................................................................
.............................. CYCLE   46 ..............................
........................................................................

 iter      E             dE          RMSdq      gap      omega  full diag
   1    -49.4806070 -0.494806E+02  0.230E-02    3.36       0.0  T
   2    -49.4806072 -0.211648E-06  0.130E-02    3.36       1.3  T
   3    -49.4806071  0.122198E-06  0.270E-03    3.36       6.3  T
   4    -49.4806073 -0.213734E-06  0.594E-04    3.36      28.9  T
   5    -49.4806073 -0.342512E-08  0.269E-04    3.36      63.8  T
     SCC iter.                  ...        0 min,  0.006 sec
     gradient                   ...        0 min,  0.004 sec
 * total energy  :   -48.6039942 Eh     change       -0.2270273E-04 Eh
   gradient norm :     0.0027933 Eh/α   predicted    -0.1610287E-04 ( -29.07%)
   displ. norm   :     0.0444554 α      lambda       -0.2346668E-04
   maximum displ.:     0.0261592 α      in ANC's #2, #1, #4, ...

........................................................................
.............................. CYCLE   47 ..............................
........................................................................

 iter      E             dE          RMSdq      gap      omega  full diag
   1    -49.4811869 -0.494812E+02  0.173E-02    3.37       0.0  T
   2    -49.4811871 -0.110312E-06  0.103E-02    3.37       1.7  T
   3    -49.4811863  0.778611E-06  0.561E-03    3.37       3.1  T
   4    -49.4811872 -0.895740E-06  0.655E-04    3.37      26.2  T
   5    -49.4811872 -0.791757E-08  0.241E-04    3.37      71.1  T
     SCC iter.                  ...        0 min,  0.006 sec
     gradient                   ...        0 min,  0.004 sec
 * total energy  :   -48.6040099 Eh     change       -0.1564005E-04 Eh
   gradient norm :     0.0008451 Eh/α   predicted    -0.1175838E-04 ( -24.82%)
   displ. norm   :     0.0979833 α      lambda       -0.1292343E-04
   maximum displ.:     0.0583083 α      in ANC's #2, #1, #4, ...

........................................................................
.............................. CYCLE   48 ..............................
........................................................................

 iter      E             dE          RMSdq      gap      omega  full diag
   1    -49.4814292 -0.494814E+02  0.358E-02    3.37       0.0  T
   2    -49.4814295 -0.255414E-06  0.208E-02    3.37       1.0  T
   3    -49.4814282  0.131705E-05  0.710E-03    3.37       2.4  T
   4    -49.4814297 -0.151342E-05  0.908E-04    3.37      18.9  T
   5    -49.4814297 -0.649430E-08  0.475E-04    3.37      36.1  T
   6    -49.4814297 -0.163828E-08  0.168E-04    3.37     102.3  T
     SCC iter.                  ...        0 min,  0.007 sec
     gradient                   ...        0 min,  0.004 sec
 * total energy  :   -48.6040238 Eh     change       -0.1394232E-04 Eh
   gradient norm :     0.0016106 Eh/α   predicted    -0.6494054E-05 ( -53.42%)
   displ. norm   :     0.1116652 α      lambda       -0.1356392E-04
   maximum displ.:     0.0675334 α      in ANC's #2, #1, #4, ...

........................................................................
.............................. CYCLE   49 ..............................
........................................................................

 iter      E             dE          RMSdq      gap      omega  full diag
   1    -49.4812109 -0.494812E+02  0.443E-02    3.36       0.0  T
   2    -49.4812113 -0.371604E-06  0.257E-02    3.37       1.0  T
   3    -49.4812108  0.475279E-06  0.470E-03    3.37       3.6  T
   4    -49.4812115 -0.659247E-06  0.103E-03    3.37      16.6  T
   5    -49.4812115 -0.120249E-08  0.477E-04    3.37      36.0  T
   6    -49.4812115 -0.425803E-08  0.138E-04    3.37     124.5  T
     SCC iter.                  ...        0 min,  0.007 sec
     gradient                   ...        0 min,  0.004 sec
 * total energy  :   -48.6040397 Eh     change       -0.1587404E-04 Eh
   gradient norm :     0.0016467 Eh/α   predicted    -0.6820534E-05 ( -57.03%)
   displ. norm   :     0.1548359 α      lambda       -0.1803601E-04
   maximum displ.:     0.0920577 α      in ANC's #2, #1, #4, ...

........................................................................
.............................. CYCLE   50 ..............................
........................................................................

 iter      E             dE          RMSdq      gap      omega  full diag
   1    -49.4807333 -0.494807E+02  0.604E-02    3.36       0.0  T
   2    -49.4807339 -0.623361E-06  0.351E-02    3.37       1.0  T
   3    -49.4807338  0.168768E-06  0.396E-03    3.37       4.3  T
   4    -49.4807342 -0.421158E-06  0.137E-03    3.37      12.5  T
   5    -49.4807342 -0.979227E-08  0.522E-04    3.37      32.8  T
   6    -49.4807342 -0.477588E-08  0.143E-04    3.37     119.9  T
     SCC iter.                  ...        0 min,  0.007 sec
     gradient                   ...        0 min,  0.004 sec
 * total energy  :   -48.6040584 Eh     change       -0.1875987E-04 Eh
   gradient norm :     0.0010266 Eh/α   predicted    -0.9115216E-05 ( -51.41%)
   displ. norm   :     0.1624802 α      lambda       -0.1436174E-04
   maximum displ.:     0.0998072 α      in ANC's #2, #1, #4, ...

........................................................................
.............................. CYCLE   51 ..............................
........................................................................

 iter      E             dE          RMSdq      gap      omega  full diag
   1    -49.4806461 -0.494806E+02  0.576E-02    3.36       0.0  T
   2    -49.4806466 -0.437480E-06  0.336E-02    3.37       1.0  T
   3    -49.4806460  0.554832E-06  0.511E-03    3.36       3.4  T
   4    -49.4806468 -0.773421E-06  0.119E-03    3.37      14.4  T
   5    -49.4806468 -0.331644E-08  0.456E-04    3.37      37.6  T
   6    -49.4806468 -0.442058E-08  0.110E-04    3.37     155.6  T
     SCC iter.                  ...        0 min,  0.007 sec
     gradient                   ...        0 min,  0.004 sec
 * total energy  :   -48.6040757 Eh     change       -0.1729353E-04 Eh
   gradient norm :     0.0010386 Eh/α   predicted    -0.7265771E-05 ( -57.99%)
   displ. norm   :     0.1841903 α      lambda       -0.1520017E-04
   maximum displ.:     0.1153071 α      in ANC's #2, #1, #4, ...

........................................................................
.............................. CYCLE   52 ..............................
........................................................................

 iter      E             dE          RMSdq      gap      omega  full diag
   1    -49.4805872 -0.494806E+02  0.640E-02    3.37       0.0  T
   2    -49.4805879 -0.682397E-06  0.372E-02    3.37       1.0  T
   3    -49.4805870  0.833449E-06  0.641E-03    3.37       2.7  T
   4    -49.4805882 -0.118207E-05  0.145E-03    3.37      11.8  T
   5    -49.4805882 -0.346127E-08  0.495E-04    3.37      34.6  T
   6    -49.4805882 -0.544797E-08  0.132E-04    3.37     130.1  T
     SCC iter.                  ...        0 min,  0.007 sec
     gradient                   ...        0 min,  0.004 sec
 * total energy  :   -48.6040943 Eh     change       -0.1861167E-04 Eh
   gradient norm :     0.0008658 Eh/α   predicted    -0.7717889E-05 ( -58.53%)
   displ. norm   :     0.2401017 α      lambda       -0.1817493E-04
   maximum displ.:     0.1511291 α      in ANC's #2, #1, #4, ...

........................................................................
.............................. CYCLE   53 ..............................
........................................................................

 iter      E             dE          RMSdq      gap      omega  full diag
   1    -49.4805284 -0.494805E+02  0.799E-02    3.37       0.0  T
   2    -49.4805294 -0.103071E-05  0.465E-02    3.37       1.0  T
   3    -49.4805276  0.181990E-05  0.907E-03    3.37       1.9  T
   4    -49.4805300 -0.238443E-05  0.183E-03    3.37       9.4  T
   5    -49.4805300 -0.695305E-08  0.628E-04    3.37      27.3  T
   6    -49.4805300 -0.681823E-08  0.209E-04    3.37      82.2  T
     SCC iter.                  ...        0 min,  0.007 sec
     gradient                   ...        0 min,  0.004 sec
 * total energy  :   -48.6041154 Eh     change       -0.2108522E-04 Eh
   gradient norm :     0.0014237 Eh/α   predicted    -0.9321693E-05 ( -55.79%)
   displ. norm   :     0.2598794 α      lambda       -0.1872711E-04
   maximum displ.:     0.1671679 α      in ANC's #2, #1, #6, ...

........................................................................
.............................. CYCLE   54 ..............................
........................................................................

 iter      E             dE          RMSdq      gap      omega  full diag
   1    -49.4800332 -0.494800E+02  0.900E-02    3.37       0.0  T
   2    -49.4800351 -0.189305E-05  0.520E-02    3.37       1.0  T
   3    -49.4800317  0.339207E-05  0.124E-02    3.37       1.4  T
   4    -49.4800361 -0.445230E-05  0.238E-03    3.37       7.2  T
   5    -49.4800361 -0.909736E-09  0.983E-04    3.37      17.5  T
   6    -49.4800361 -0.218621E-07  0.280E-04    3.37      61.3  T
     SCC iter.                  ...        0 min,  0.007 sec
     gradient                   ...        0 min,  0.004 sec
 * total energy  :   -48.6041356 Eh     change       -0.2015352E-04 Eh
   gradient norm :     0.0018909 Eh/α   predicted    -0.9645282E-05 ( -52.14%)
   displ. norm   :     0.2196523 α      lambda       -0.1680611E-04
   maximum displ.:     0.1441752 α      in ANC's #2, #1, #6, ...

........................................................................
.............................. CYCLE   55 ..............................
........................................................................

 iter      E             dE          RMSdq      gap      omega  full diag
   1    -49.4810602 -0.494811E+02  0.715E-02    3.37       0.0  T
   2    -49.4810614 -0.120769E-05  0.414E-02    3.37       1.0  T
   3    -49.4810597  0.169392E-05  0.887E-03    3.38       1.9  T
   4    -49.4810620 -0.231646E-05  0.195E-03    3.38       8.8  T
   5    -49.4810620  0.108253E-08  0.970E-04    3.38      17.7  T
   6    -49.4810620 -0.214250E-07  0.212E-04    3.38      81.0  T
     SCC iter.                  ...        0 min,  0.007 sec
     gradient                   ...        0 min,  0.004 sec
 * total energy  :   -48.6041527 Eh     change       -0.1715115E-04 Eh
   gradient norm :     0.0011727 Eh/α   predicted    -0.8585897E-05 ( -49.94%)
   displ. norm   :     0.2289686 α      lambda       -0.1201692E-04
   maximum displ.:     0.1564306 α      in ANC's #2, #1, #6, ...

........................................................................
.............................. CYCLE   56 ..............................
........................................................................

 iter      E             dE          RMSdq      gap      omega  full diag
   1    -49.4800130 -0.494800E+02  0.836E-02    3.38       0.0  T
   2    -49.4800151 -0.203743E-05  0.481E-02    3.38       1.0  T
   3    -49.4800108  0.424712E-05  0.136E-02    3.38       1.3  T
   4    -49.4800163 -0.543609E-05  0.242E-03    3.38       7.1  T
   5    -49.4800163  0.481784E-09  0.119E-03    3.38      14.4  T
   6    -49.4800163 -0.303675E-07  0.302E-04    3.38      56.7  T
   7    -49.4800163 -0.205622E-08  0.113E-04    3.38     152.4  T
     SCC iter.                  ...        0 min,  0.008 sec
     gradient                   ...        0 min,  0.004 sec
 * total energy  :   -48.6041626 Eh     change       -0.9840652E-05 Eh
   gradient norm :     0.0019505 Eh/α   predicted    -0.6150153E-05 ( -37.50%)
   displ. norm   :     0.0567777 α      lambda       -0.8947533E-05
   maximum displ.:     0.0331394 α      in ANC's #2, #6, #7, ...

........................................................................
.............................. CYCLE   57 ..............................
........................................................................

 iter      E             dE          RMSdq      gap      omega  full diag
   1    -49.4819005 -0.494819E+02  0.252E-02    3.38       0.0  T
   2    -49.4819006 -0.192373E-06  0.144E-02    3.38       1.2  T
   3    -49.4819005  0.120954E-06  0.262E-03    3.38       6.5  T
   4    -49.4819007 -0.207594E-06  0.732E-04    3.38      23.4  T
   5    -49.4819007 -0.448907E-09  0.361E-04    3.38      47.5  T
     SCC iter.                  ...        0 min,  0.006 sec
     gradient                   ...        0 min,  0.004 sec
 * total energy  :   -48.6041683 Eh     change       -0.5758633E-05 Eh
   gradient norm :     0.0014195 Eh/α   predicted    -0.4482268E-05 ( -22.16%)
   displ. norm   :     0.0783283 α      lambda       -0.5112263E-05
   maximum displ.:     0.0598117 α      in ANC's #2, #6, #1, ...

........................................................................
.............................. CYCLE   58 ..............................
........................................................................

 iter      E             dE          RMSdq      gap      omega  full diag
   1    -49.4814686 -0.494815E+02  0.266E-02    3.38       0.0  T
   2    -49.4814688 -0.149638E-06  0.155E-02    3.38       1.1  T
   3    -49.4814682  0.503248E-06  0.449E-03    3.38       3.8  T
   4    -49.4814688 -0.600704E-06  0.686E-04    3.38      25.0  T
   5    -49.4814689 -0.143619E-08  0.323E-04    3.38      53.1  T
     SCC iter.                  ...        0 min,  0.006 sec
     gradient                   ...        0 min,  0.004 sec
 * total energy  :   -48.6041733 Eh     change       -0.4996838E-05 Eh
   gradient norm :     0.0008292 Eh/α   predicted    -0.2563755E-05 ( -48.69%)
   displ. norm   :     0.0358641 α      lambda       -0.4016517E-05
   maximum displ.:     0.0235328 α      in ANC's #7, #2, #1, ...

   *** GEOMETRY OPTIMIZATION CONVERGED AFTER 58 ITERATIONS ***

------------------------------------------------------------------------
 total energy gain   :        -0.0120688 Eh       -7.5733 kcal/mol
 total RMSD          :         1.0846243 a0        0.5740 Å
 total power (kW/mol):        -0.5463231 (step)  -37.9207 (real)
------------------------------------------------------------------------

 ANCopt (total)                0 d,  0 h,  0 min,  0.836 sec
 optimizer setup                ...        0 min,  0.000 sec (  0.012%)
[...]
H31-C15=1.0925       H32-C15=1.0917       H33-C16=1.0917       H34-C16=1.0934       
 C  H  Rav=1.0831 sigma=0.0081  Rmin=1.0706  Rmax=1.0944    16
 C  C  Rav=1.4135 sigma=0.0592  Rmin=1.3189  Rmax=1.5410    12
 N  C  Rav=1.3477 sigma=0.0957  Rmin=1.1415  Rmax=1.4507     7

 selected bond angles (degree)
 --------------------
H19-C1-C2=122.04               H20-C1-C2=121.60               H20-C1-H19=116.35              C3-C2-C1=123.71                
H21-C2-C1=121.23               H21-C2-C3=115.04               N4-C3-C2=111.00                H22-C3-C2=110.10               
H22-C3-N4=107.54               H23-C3-C2=110.01               H23-C3-N4=109.28               H23-C3-H22=108.85              
C5-N4-C3=124.21                C8-N4-C3=127.23                C8-N4-C5=108.50                N6-C5-N4=109.50                
H24-C5-N4=124.73               H24-C5-N6=125.77               C7-N6-C5=107.94                C15-N6-C5=125.60               
C15-N6-C7=126.15               C8-C7-N6=107.88                H25-C7-N6=122.71               H25-C7-C8=129.40               
C7-C8-N4=106.18                C9-C8-N4=125.21                C9-C8-C7=128.61                C10-C9-C8=121.40               
C14-C9-C8=119.05               C14-C9-C10=119.54              C11-C10-C9=119.94              H26-C10-C9=120.26              
H26-C10-C11=119.76             

 selected dihedral angles (degree)
 ---------------------------------
C3-C2-C1-H19=359.16           C3-C2-C1-H20=178.07           H21-C2-C1-H19=180.78          H21-C2-C1-H20=359.69          
N4-C3-C2-C1=125.72            N4-C3-C2-H21=304.19           H22-C3-C2-C1=244.68           H22-C3-C2-H21= 63.15          
H23-C3-C2-C1=  4.65           H23-C3-C2-H21=183.11          C5-N4-C3-C2=320.31            C5-N4-C3-H22=199.82           
C5-N4-C3-H23= 81.81           C8-N4-C3-C2=137.16            C8-N4-C3-H22= 16.68           C8-N4-C3-H23=258.67           
N6-C5-N4-C3=177.22            N6-C5-N4-C8=359.86            H24-C5-N4-C3=357.10           H24-C5-N4-C8=179.74           
C7-N6-C5-N4=  0.14            C7-N6-C5-H24=180.26           C15-N6-C5-N4=174.07           C15-N6-C5-H24=354.20          
C8-C7-N6-C5=359.91            C8-C7-N6-C15=186.02           H25-C7-N6-C5=179.39           H25-C7-N6-C15=  5.50          
C7-C8-N4-C3=182.82            C7-C8-N4-C5=  0.08            C9-C8-N4-C3=  1.95            C9-C8-N4-C5=179.21            
N4-C8-C7-N6=  0.00            N4-C8-C7-H25=180.57           C9-C8-C7-N6=180.92            C9-C8-C7-H25=  1.48           
C10-C9-C8-N4= 47.56           C10-C9-C8-C7=226.49           C14-C9-C8-N4=226.37           C14-C9-C8-C7= 45.30           
C11-C10-C9-C8=179.54          C11-C10-C9-C14=  0.74         H26-C10-C9-C8=  1.88          H26-C10-C9-C14=183.07         
           -------------------------------------------------
          |                Final Singlepoint                |
           -------------------------------------------------

          ...................................................
          :                      SETUP                      :
          :.................................................:
          :  # basis functions                  88          :
          :  # atomic orbitals                  88          :
          :  # shells                           52          :
          :  # electrons                        90          :
          :  max. iterations                   250          :
          :  Hamiltonian                  GFN2-xTB          :
          :  restarted?                      false          :
          :  GBSA solvation                  false          :
          :  PC potential                    false          :
          :  electronic temp.          300.0000000     K    :
          :  accuracy                    1.0000000          :
          :  -> integral cutoff          0.2500000E+02      :
          :  -> integral neglect         0.1000000E-07      :
          :  -> SCF convergence          0.1000000E-05 Eh   :
          :  -> wf. convergence          0.1000000E-03 e    :
          :  Broyden damping             0.4000000          :
          :  net charge                          1          :
          :  unpaired electrons                  0          :
          ...................................................

 iter      E             dE          RMSdq      gap      omega  full diag
   1    -49.4814689 -0.494815E+02  0.120E-04    3.38       0.0  T
   2    -49.4814689 -0.643041E-10  0.104E-04    3.38     165.1  T
   3    -49.4814689 -0.294150E-09  0.309E-05    3.38     555.8  T

   *** convergence criteria satisfied after 3 iterations ***

         #    Occupation            Energy/Eh            Energy/eV
      -------------------------------------------------------------
         1        2.0000           -0.8852169             -24.0880
       ...           ...                  ...                  ...
        39        2.0000           -0.5620290             -15.2936
        40        2.0000           -0.5528382             -15.0435
        41        2.0000           -0.5461136             -14.8605
        42        2.0000           -0.5420476             -14.7499
        43        2.0000           -0.5402107             -14.6999
        44        2.0000           -0.5263791             -14.3235
        45        2.0000           -0.5238464             -14.2546 (HOMO)
        46                         -0.3996982             -10.8763 (LUMO)
        47                         -0.3795138             -10.3271
        48                         -0.3447238              -9.3804
        49                         -0.3407733              -9.2729
        50                         -0.3385391              -9.2121
       ...                                ...                  ...
        88                          1.0171437              27.6779
      -------------------------------------------------------------
                  HL-Gap            0.1241481 Eh            3.3782 eV
             Fermi-level           -0.4617723 Eh          -12.5655 eV

 SCC (total)                   0 d,  0 h,  0 min,  0.009 sec
 SCC setup                      ...        0 min,  0.000 sec (  0.761%)
 Dispersion                     ...        0 min,  0.000 sec (  1.759%)
 classical contributions        ...        0 min,  0.000 sec (  0.264%)
 integral evaluation            ...        0 min,  0.001 sec ( 13.596%)
 iterations                     ...        0 min,  0.003 sec ( 38.016%)
 molecular gradient             ...        0 min,  0.004 sec ( 44.476%)
 printout                       ...        0 min,  0.000 sec (  0.972%)

         :::::::::::::::::::::::::::::::::::::::::::::::::::::
         ::                     SUMMARY                     ::
         :::::::::::::::::::::::::::::::::::::::::::::::::::::
         :: total energy             -48.604173328451 Eh    ::
         :: gradient norm              0.000830095763 Eh/a0 ::
         :: HOMO-LUMO gap              3.378242354659 eV    ::
         ::.................................................::
         :: SCC energy               -49.481212723223 Eh    ::
         :: -> isotropic ES            0.081332312609 Eh    ::
         :: -> anisotropic ES         -0.008357439405 Eh    ::
         :: -> anisotropic XC          0.046459765162 Eh    ::
         :: -> dispersion             -0.032962530443 Eh    ::
         :: repulsion energy           0.877039394772 Eh    ::
         :: add. restraining           0.000000000000 Eh    ::
         :: total charge               1.000000000000 e     ::
         :::::::::::::::::::::::::::::::::::::::::::::::::::::

           -------------------------------------------------
          |                Property Printout                |
           -------------------------------------------------

    * Orbital Energies and Occupations

         #    Occupation            Energy/Eh            Energy/eV
      -------------------------------------------------------------
         1        2.0000           -0.8852169             -24.0880
       ...           ...                  ...                  ...
        33        2.0000           -0.5998033             -16.3215
        34        2.0000           -0.5972136             -16.2510
        35        2.0000           -0.5941926             -16.1688
        36        2.0000           -0.5921296             -16.1127
        37        2.0000           -0.5918720             -16.1057
        38        2.0000           -0.5728737             -15.5887
        39        2.0000           -0.5620290             -15.2936
        40        2.0000           -0.5528382             -15.0435
        41        2.0000           -0.5461136             -14.8605
        42        2.0000           -0.5420476             -14.7499
        43        2.0000           -0.5402107             -14.6999
        44        2.0000           -0.5263791             -14.3235
        45        2.0000           -0.5238464             -14.2546 (HOMO)
        46                         -0.3996982             -10.8763 (LUMO)
        47                         -0.3795138             -10.3271
        48                         -0.3447238              -9.3804
        49                         -0.3407733              -9.2729
        50                         -0.3385391              -9.2121
        51                         -0.3316978              -9.0260
        52                         -0.3232334              -8.7956
        53                         -0.2153680              -5.8605
        54                         -0.1763012              -4.7974
        55                         -0.1309471              -3.5633
        56                         -0.0553233              -1.5054
       ...                                ...                  ...
        88                          1.0171437              27.6779
      -------------------------------------------------------------
                  HL-Gap            0.1241481 Eh            3.3782 eV
             Fermi-level           -0.4617723 Eh          -12.5655 eV

     #   Z          covCN         q      C6AA      α(0)
     1   6 C        2.837    -0.080    29.985     8.974
     2   6 C        2.887    -0.044    29.093     8.843
     3   6 C        3.747    -0.023    21.054     6.545
     4   7 N        2.870     0.049    20.381     6.705
     5   6 C        3.078     0.052    26.742     8.478
     6   7 N        2.857     0.049    20.388     6.706
     7   6 C        3.071    -0.022    28.489     8.752
     8   6 C        3.101     0.045    26.860     8.493
     9   6 C        2.973     0.001    28.010     8.681
    10   6 C        2.922    -0.032    28.797     8.800
    11   6 C        2.919    -0.020    28.512     8.756
    12   6 C        2.920    -0.015    28.386     8.737
    13   6 C        2.918    -0.018    28.468     8.750
    14   6 C        2.925    -0.029    28.732     8.790
    15   6 C        3.750    -0.013    20.873     6.516
    16   6 C        3.804    -0.065    21.747     6.639
    17   6 C        1.900     0.113    28.326     8.596
    18   7 N        0.911    -0.208    25.523     7.307
    19   1 H        0.926     0.069     2.092     2.262
    20   1 H        0.926     0.077     2.006     2.215
    21   1 H        0.925     0.054     2.265     2.353
    22   1 H        0.924     0.096     1.818     2.109
    23   1 H        0.924     0.093     1.849     2.126
    24   1 H        0.926     0.111     1.688     2.032
    25   1 H        0.926     0.095     1.832     2.117
    26   1 H        0.926     0.044     2.395     2.420
    27   1 H        0.926     0.061     2.183     2.311
    28   1 H        0.926     0.065     2.145     2.290
    29   1 H        0.926     0.062     2.171     2.304
    30   1 H        0.926     0.045     2.385     2.415
    31   1 H        0.924     0.089     1.889     2.149
    32   1 H        0.924     0.095     1.831     2.116
    33   1 H        0.924     0.109     1.709     2.044
    34   1 H        0.924     0.095     1.834     2.118

 Mol. C6AA /au·bohr⁶  :      13064.453274
 Mol. C8AA /au·bohr⁸  :     316037.177725
 Mol. α(0) /au        :        180.447474


Wiberg/Mayer (AO) data.
largest (>0.10) Wiberg bond orders for each atom

 ---------------------------------------------------------------------------
     #   Z sym  total        # sym  WBO       # sym  WBO       # sym  WBO
 ---------------------------------------------------------------------------
     1   6 C    3.982 --     2 C    1.986    20 H    0.971    19 H    0.971
     2   6 C    3.982 --     1 C    1.986     3 C    1.006    21 H    0.963
     3   6 C    3.938 --     2 C    1.006     4 N    0.960    23 H    0.950
                            22 H    0.948
     4   7 N    3.703 --     5 C    1.364     8 C    1.183     3 C    0.960
     5   6 C    3.945 --     4 N    1.364     6 N    1.350    24 H    0.953
                             7 C    0.100
     6   7 N    3.698 --     5 C    1.350     7 C    1.211    15 C    0.978
     7   6 C    3.939 --     8 C    1.523     6 N    1.211    25 H    0.964
                             5 C    0.100
     8   6 C    3.947 --     7 C    1.523     4 N    1.183     9 C    1.053
     9   6 C    3.979 --    10 C    1.380    14 C    1.376     8 C    1.053
                            12 C    0.104
    10   6 C    3.990 --    11 C    1.449     9 C    1.380    26 H    0.968
                            13 C    0.106
    11   6 C    3.989 --    10 C    1.449    12 C    1.435    27 H    0.968
                            14 C    0.107
    12   6 C    3.984 --    11 C    1.435    13 C    1.431    28 H    0.968
                             9 C    0.104
    13   6 C    3.989 --    14 C    1.455    12 C    1.431    29 H    0.967
                            10 C    0.106
    14   6 C    3.990 --    13 C    1.455     9 C    1.376    30 H    0.969
                            11 C    0.107
    15   6 C    3.948 --     6 N    0.978    31 H    0.967    16 C    0.965
                            32 H    0.964
    16   6 C    3.988 --    17 C    1.051    15 C    0.965    34 H    0.943
                            33 H    0.938
    17   6 C    3.950 --    18 N    2.863    16 C    1.051
    18   7 N    3.018 --    17 C    2.863
    19   1 H    0.995 --     1 C    0.971
    20   1 H    0.993 --     1 C    0.971
    21   1 H    0.997 --     2 C    0.963
    22   1 H    0.990 --     3 C    0.948
    23   1 H    0.991 --     3 C    0.950
    24   1 H    0.987 --     5 C    0.953
    25   1 H    0.990 --     7 C    0.964
    26   1 H    0.998 --    10 C    0.968
    27   1 H    0.995 --    11 C    0.968
    28   1 H    0.995 --    12 C    0.968
    29   1 H    0.995 --    13 C    0.967
    30   1 H    0.998 --    14 C    0.969
    31   1 H    0.992 --    15 C    0.967
    32   1 H    0.990 --    15 C    0.964
    33   1 H    0.988 --    16 C    0.938
    34   1 H    0.991 --    16 C    0.943
 ---------------------------------------------------------------------------

Topologies differ in total number of bonds
Writing topology from bond orders to xtbtopo.mol

molecular dipole:
                 x           y           z       tot (Debye)
 q only:       -3.142      -1.383      -5.895
   full:       -3.174      -1.290      -6.427      18.512
molecular quadrupole (traceless):
                xx          xy          yy          xz          yz          zz
 q only:      -22.310      11.374      -8.926      38.727      -1.636      31.236
  q+dip:      -27.402      12.468     -12.361      41.331      -3.625      39.763
   full:      -23.903      11.357     -12.963      42.633      -4.950      36.866

           -------------------------------------------------
          |                Geometry Summary                 |
           -------------------------------------------------

      molecular mass/u    :      238.3082001
   center of mass at/Å    :       -1.9883896      -1.0976229      -2.5168088
  moments of inertia/u·Å² :        0.8416484E+03   0.1838315E+04   0.2303864E+04
rotational constants/cm⁻¹ :        0.2002930E-01   0.9170155E-02   0.7317113E-02

 * 32 selected distances

     #   Z          #   Z                                           value/Å
     1   6 C        2   6 C                                       1.3189372
     3   6 C        4   7 N                                       1.4506560
     4   7 N        5   6 C                                       1.3295942
     5   6 C        6   7 N                                       1.3304533
     6   7 N        7   6 C                                       1.3629685
     4   7 N        8   6 C                                       1.3737922
     7   6 C        8   6 C                                       1.3710287
     9   6 C       10   6 C                                       1.3946213
    10   6 C       11   6 C                                       1.3830603
    11   6 C       12   6 C                                       1.3853645
    12   6 C       13   6 C                                       1.3861254
     9   6 C       14   6 C                                       1.3951218
    13   6 C       14   6 C                                       1.3817649
     6   7 N       15   6 C                                       1.4446700
    15   6 C       16   6 C                                       1.5410354 (max)
    17   6 C       18   7 N                                       1.1415407
     1   6 C       19   1 H                                       1.0773802
     1   6 C       20   1 H                                       1.0754922
     2   6 C       21   1 H                                       1.0815387
     3   6 C       22   1 H                                       1.0944267
     3   6 C       23   1 H                                       1.0942819
     5   6 C       24   1 H                                       1.0724015
     7   6 C       25   1 H                                       1.0705592 (min)
    10   6 C       26   1 H                                       1.0796225
    11   6 C       27   1 H                                       1.0786564
    12   6 C       28   1 H                                       1.0784417
    13   6 C       29   1 H                                       1.0786531
    14   6 C       30   1 H                                       1.0793828
    15   6 C       31   1 H                                       1.0925307
    15   6 C       32   1 H                                       1.0916981
    16   6 C       33   1 H                                       1.0917319
    16   6 C       34   1 H                                       1.0933975

 * 3 distinct bonds (by element types)

   Z      Z             #   av. dist./Å        max./Å        min./Å
   1 H    6 C          16     1.0831372     1.0944267     1.0705592
   6 C    6 C           9     1.3952288     1.5410354     1.3189372
   6 C    7 N           7     1.3476678     1.4506560     1.1415407


optimized geometry written to: xtbopt.xyz


           -------------------------------------------------
          | TOTAL ENERGY              -48.604173328451 Eh   |
          | GRADIENT NORM               0.000830095763 Eh/α |
          | HOMO-LUMO GAP               3.378242354659 eV   |
           -------------------------------------------------

------------------------------------------------------------------------
 * finished run on 2024/12/20 at 06:45:13.422     
------------------------------------------------------------------------
 total:
 * wall-time:     0 d,  0 h,  0 min,  0.891 sec
 *  cpu-time:     0 d,  0 h,  0 min,  7.030 sec
 * ratio c/w:     7.890 speedup
 SCF:
 * wall-time:     0 d,  0 h,  0 min,  0.029 sec
 *  cpu-time:     0 d,  0 h,  0 min,  0.220 sec
 * ratio c/w:     7.711 speedup
 ANC optimizer:
 * wall-time:     0 d,  0 h,  0 min,  0.846 sec
 *  cpu-time:     0 d,  0 h,  0 min,  6.689 sec
 * ratio c/w:     7.909 speedup

