90
 energy: -104.792553160541 gnorm: 0.068636980601 xtb: 6.7.1 (edcfbbe)
C            1.16456000000000        0.77065000000000        0.07591000000000
C            1.25816000000000        0.90089000000000       -1.43701000000000
C            1.69275000000000       -0.38966000000000       -2.13747000000000
C            0.78854000000000       -1.60295000000000       -1.90224000000000
C           -0.66710000000000       -1.42185000000000       -2.33864000000000
C           -0.88134000000000       -1.22695000000000       -3.84369000000000
C           -0.40621000000000       -2.37713000000000       -4.74275000000000
C           -0.88690000000000       -3.78091000000000       -4.35251000000000
C           -2.40089000000000       -3.92578000000000       -4.18519000000000
C           -3.18455000000000       -3.95169000000000       -5.49934000000000
C           -3.39100000000000       -5.35073000000000       -6.09654000000000
C           -4.10946000000000       -6.38775000000000       -5.22236000000000
O           -5.53182000000000       -6.32539000000000       -5.26298000000000
C           -6.15854000000000       -5.32743000000000       -4.48461000000000
N           -5.89311000000000       -5.54238000000000       -3.07301000000000
C           -6.22119000000000       -6.67943000000000       -2.35405000000000
C           -5.84192000000000       -6.44880000000000       -1.06245000000000
N           -5.26324000000000       -5.19068000000000       -1.03428000000000
C           -5.34168000000000       -4.63699000000000       -2.25287000000000
C           -4.70652000000000       -4.51463000000000        0.12434000000000
O           -3.42969000000000       -3.99459000000000       -0.18450000000000
C           -2.40222000000000       -4.92982000000000       -0.50554000000000
C           -1.94366000000000       -5.85373000000000        0.62805000000000
C           -2.70597000000000       -7.17695000000000        0.78562000000000
C           -2.74080000000000       -8.06979000000000       -0.45892000000000
C           -1.52013000000000       -8.97647000000000       -0.63323000000000
C           -1.41104000000000      -10.12922000000000        0.37328000000000
C           -2.67367000000000      -10.98147000000000        0.55534000000000
C           -3.28187000000000      -11.55117000000000       -0.73116000000000
C           -2.39655000000000      -12.54245000000000       -1.48919000000000
C           -2.03482000000000      -13.81712000000000       -0.72105000000000
C           -3.21932000000000      -14.62028000000000       -0.17616000000000
C           -4.19781000000000      -15.07073000000000       -1.25013000000000
H            0.35853000000000        0.09249000000000        0.37164000000000
H            0.95536000000000        1.74668000000000        0.52536000000000
H            2.10337000000000        0.39771000000000        0.49737000000000
H            0.29779000000000        1.24692000000000       -1.83432000000000
H            1.98896000000000        1.68345000000000       -1.67404000000000
H            1.77312000000000       -0.19581000000000       -3.21338000000000
H            2.70473000000000       -0.64754000000000       -1.80047000000000
H            1.22417000000000       -2.46702000000000       -2.41690000000000
H            0.80116000000000       -1.86175000000000       -0.83669000000000
H           -1.23698000000000       -2.29311000000000       -2.00035000000000
H           -1.10909000000000       -0.56968000000000       -1.80981000000000
H           -1.95126000000000       -1.05931000000000       -4.01891000000000
H           -0.38724000000000       -0.30364000000000       -4.16844000000000
H           -0.71987000000000       -2.15995000000000       -5.77082000000000
H            0.69048000000000       -2.38395000000000       -4.76317000000000
H           -0.52674000000000       -4.50114000000000       -5.09708000000000
H           -0.40849000000000       -4.06475000000000       -3.40739000000000
H           -2.58549000000000       -4.83469000000000       -3.61087000000000
H           -2.78794000000000       -3.11186000000000       -3.56482000000000
H           -4.15239000000000       -3.47356000000000       -5.33823000000000
H           -2.68396000000000       -3.32673000000000       -6.24796000000000
H           -3.94247000000000       -5.24015000000000       -7.03815000000000
H           -2.40084000000000       -5.74985000000000       -6.34973000000000
H           -3.86328000000000       -7.37196000000000       -5.63960000000000
H           -3.74988000000000       -6.41753000000000       -4.19158000000000
H           -5.87491000000000       -4.32246000000000       -4.79090000000000
H           -7.24029000000000       -5.41426000000000       -4.63408000000000
H           -6.68633000000000       -7.50555000000000       -2.86529000000000
H           -5.89784000000000       -7.02948000000000       -0.15746000000000
H           -5.00528000000000       -3.64154000000000       -2.52085000000000
H           -5.36510000000000       -3.67064000000000        0.35605000000000
H           -4.68438000000000       -5.15565000000000        1.00591000000000
H           -2.66589000000000       -5.46602000000000       -1.41682000000000
H           -1.53852000000000       -4.31112000000000       -0.77471000000000
H           -0.88937000000000       -6.10367000000000        0.45522000000000
H           -1.99196000000000       -5.30919000000000        1.57860000000000
H           -2.27260000000000       -7.72673000000000        1.62900000000000
H           -3.73512000000000       -6.97134000000000        1.08593000000000
H           -3.64941000000000       -8.67809000000000       -0.41337000000000
H           -2.85312000000000       -7.47663000000000       -1.36949000000000
H           -1.55189000000000       -9.40120000000000       -1.64422000000000
H           -0.60311000000000       -8.37669000000000       -0.58970000000000
H           -0.57978000000000      -10.77641000000000        0.06800000000000
H           -1.12683000000000       -9.72548000000000        1.35252000000000
H           -2.44661000000000      -11.79789000000000        1.25066000000000
H           -3.43849000000000      -10.37871000000000        1.06041000000000
H           -4.23615000000000      -12.02852000000000       -0.48025000000000
H           -3.54209000000000      -10.73578000000000       -1.41506000000000
H           -2.90728000000000      -12.81840000000000       -2.41991000000000
H           -1.46972000000000      -12.04531000000000       -1.79893000000000
H           -1.44760000000000      -14.46225000000000       -1.38670000000000
H           -1.37117000000000      -13.56246000000000        0.11365000000000
H           -2.82746000000000      -15.50880000000000        0.33327000000000
H           -3.75413000000000      -14.04165000000000        0.58505000000000
H           -3.68753000000000      -15.64063000000000       -2.03275000000000
H           -4.96829000000000      -15.71233000000000       -0.81055000000000
H           -4.70424000000000      -14.22020000000000       -1.71600000000000
90
 energy: -104.800351693183 gnorm: 0.034588507560 xtb: 6.7.1 (edcfbbe)
C            1.16279021763116        0.77021006757686        0.07556380632571
C            1.25629912887121        0.89853613478898       -1.43886552533449
C            1.69153457925334       -0.38917183545718       -2.14087607581143
C            0.78851944503694       -1.60086383345109       -1.90363638529244
C           -0.66649618374790       -1.42624880354640       -2.33989576831739
C           -0.88554139716282       -1.23124005254941       -3.84221454528823
C           -0.40690480319757       -2.37628667458543       -4.74179576732880
C           -0.88745122355715       -3.77530759774049       -4.34437520715907
C           -2.40155794902145       -3.91840942039664       -4.18008027140762
C           -3.19337235149846       -3.94461782733621       -5.49115711162222
C           -3.38766775516382       -5.34295770269821       -6.09366149387561
C           -4.11249367465458       -6.38654184560111       -5.23593894521175
O           -5.53735225022572       -6.33218093954562       -5.25733225282596
C           -6.15595548485798       -5.34140873362396       -4.49205191104569
N           -5.90260187730846       -5.53350234608438       -3.07072640877960
C           -6.22048024712350       -6.66029108817092       -2.35488652685629
C           -5.82667748458415       -6.43929122939543       -1.07253518137284
N           -5.27433597451141       -5.18306121746206       -1.02941265026832
C           -5.33713477302693       -4.64989977769956       -2.24958053452783
C           -4.69647140671298       -4.50597540787301        0.12423454676988
O           -3.43289463665328       -3.99235124214300       -0.17899444496384
C           -2.39923985308370       -4.92476734914323       -0.49574162991397
C           -1.94721527517558       -5.86336572132078        0.62657296758389
C           -2.72011669723017       -7.18056922113996        0.78416536593980
C           -2.74726634545289       -8.07692342076863       -0.45765500477255
C           -1.52691076606270       -8.98216399694884       -0.63574771990810
C           -1.41374738179787      -10.12801241195436        0.37513407248665
C           -2.67685550434055      -10.97608797897087        0.55286359198306
C           -3.27987640138145      -11.55136613855024       -0.73077005213236
C           -2.39676660088558      -12.54443897852610       -1.48645169810781
C           -2.03309988461366      -13.81542037381064       -0.71627444612760
C           -3.21894151211400      -14.61687120082150       -0.17606726144693
C           -4.19773787802561      -15.06988558228481       -1.25071846880607
H            0.36290606648045        0.09186624606510        0.36952166892108
H            0.95721910438123        1.74188001815025        0.52378353596327
H            2.09908741200095        0.39798809536673        0.48964518001691
H            0.29526661700477        1.23585704491537       -1.83554424012399
H            1.98822798109429        1.67522769158735       -1.67932131359773
H            1.76423678453484       -0.19557356237765       -3.21462401355483
H            2.69778644677539       -0.64805865360314       -1.79661008508073
H            1.22239915862190       -2.45844203439921       -2.42600969990304
H            0.79826092062328       -1.84782836418753       -0.83760286057394
H           -1.23329690164651       -2.29971938783398       -2.00298170486252
H           -1.09455068706152       -0.56521046527180       -1.81921939917766
H           -1.95408160468298       -1.06267932394828       -4.01334818298797
H           -0.37825969344878       -0.31815142509032       -4.16347729656493
H           -0.72702786298449       -2.15648162407738       -5.76465474989122
H            0.68606910459740       -2.39089370701352       -4.75505846987443
H           -0.53924430252254       -4.48884853677604       -5.09678944228907
H           -0.41144574496433       -4.05698001944636       -3.40077857406725
H           -2.58992868128868       -4.83824699372212       -3.62007241660899
H           -2.76577917445153       -3.09535245552689       -3.56073352823842
H           -4.16400144131494       -3.46479506013613       -5.34242438869635
H           -2.67270578814201       -3.33687655096169       -6.23478322756924
H           -3.94129350664166       -5.24878724725586       -7.03088910808612
H           -2.40406928685084       -5.75203697456948       -6.33801901072500
H           -3.89045902091176       -7.37637685455565       -5.64862242719657
H           -3.75023208269542       -6.38651371222136       -4.20113963639444
H           -5.84642654653848       -4.33154314331760       -4.77690192046686
H           -7.23437501540095       -5.44265229628442       -4.66827399471910
H           -6.68020471030488       -7.49351137914232       -2.85062831239474
H           -5.88400499935234       -7.03665038370493       -0.18415647116787
H           -4.98364432391584       -3.67003224559002       -2.51646340818956
H           -5.32898642699323       -3.64359753808119        0.37100266456626
H           -4.67653336768551       -5.18299746781917        0.98369510706359
H           -2.67433059952803       -5.48575341795544       -1.39569196074681
H           -1.55656265531072       -4.28038334466327       -0.76605054616883
H           -0.89688022254764       -6.10267156308335        0.44452347633254
H           -1.99077988170280       -5.30898757701568        1.56736853386666
H           -2.26419384443033       -7.73285161725218        1.60906311082828
H           -3.74778042389332       -6.97462610595732        1.09409628526281
H           -3.64331944039223       -8.70015681013930       -0.41121328817353
H           -2.84803613725433       -7.46653951934572       -1.36030565920883
H           -1.56279158181217       -9.40462645868740       -1.64413256171230
H           -0.61629452889901       -8.37870005677409       -0.58034951995448
H           -0.58812672338606      -10.77110866445595        0.05963679281851
H           -1.13662662658645       -9.72625523000320        1.35452631417870
H           -2.43840257797590      -11.79642048499218        1.23412952342251
H           -3.44275894147636      -10.37536085369810        1.05490076352273
H           -4.22432482507948      -12.03884839268074       -0.47236539702784
H           -3.53106798393267      -10.73409911595918       -1.41417905485438
H           -2.91330949502846      -12.82332735300345       -2.40995217576715
H           -1.46931810642096      -12.04773937906559       -1.78616252323844
H           -1.45464363806047      -14.45870110603609       -1.38667157992961
H           -1.37614856717264      -13.55805481928315        0.11945177690214
H           -2.82244431523882      -15.50165702073921        0.33071780287811
H           -3.75231811685108      -14.03279136804542        0.57856353993745
H           -3.68431876033235      -15.63514548242106       -2.02733147173348
H           -4.96377591980608      -15.71115848310918       -0.81528950248618
H           -4.69808431081712      -14.22247371757074       -1.71733401506094
90
 energy: -104.802188352242 gnorm: 0.013432812879 xtb: 6.7.1 (edcfbbe)
C            1.16288102481327        0.76783769057134        0.07214114208516
C            1.25182129604746        0.89780765192239       -1.44392353666208
C            1.68951199365120       -0.38937281870222       -2.14535263266887
C            0.78945590041920       -1.60265158503717       -1.90592416071114
C           -0.66656591848505       -1.42674315231004       -2.33853503493124
C           -0.88576551984334       -1.23150087822449       -3.84039645851396
C           -0.41173324458909       -2.37812245070478       -4.73936910009855
C           -0.89280988758848       -3.77626616693913       -4.34189816738495
C           -2.40777682930013       -3.91330722615527       -4.17223665886552
C           -3.19386710924808       -3.93803742949142       -5.48857864510266
C           -3.38769638957360       -5.33533906750443       -6.09323385310753
C           -4.10804269339722       -6.38504433803148       -5.23955115841047
O           -5.53585041912359       -6.33772418478080       -5.24773336576551
C           -6.15213730435876       -5.35165999259778       -4.50373771599592
N           -5.91417386012734       -5.52301975512420       -3.07076321183965
C           -6.22154010501653       -6.64439633178054       -2.35624596990640
C           -5.82308991077153       -6.42618218525070       -1.07659746626892
N           -5.28336365631144       -5.17364064719598       -1.02695628728835
C           -5.34132542604119       -4.65230026598250       -2.24828711800788
C           -4.68261526527971       -4.49997307998340        0.12522742710058
O           -3.43288588657989       -3.99527076292346       -0.17686569115741
C           -2.39509993706086       -4.92653377619608       -0.49218303127971
C           -1.94883584828261       -5.87042634583305        0.62811222729618
C           -2.72365961399351       -7.18651066363603        0.78447737219418
C           -2.75838209775038       -8.07960186731320       -0.46052167879385
C           -1.53377439072050       -8.98030461964063       -0.63681376566629
C           -1.41942194298372      -10.12546480341492        0.37410926304179
C           -2.67903015599759      -10.97725206738617        0.55345206828812
C           -3.28064389938173      -11.55196836262135       -0.73064609117865
C           -2.39370214108818      -12.54391775748702       -1.48357268617444
C           -2.03159811008149      -13.81370664485103       -0.71107918000287
C           -3.21911636646869      -14.61332812851179       -0.17186088481508
C           -4.19313799776438      -15.06841483821902       -1.25213045504645
H            0.36597685885390        0.08922553188981        0.36509599078797
H            0.95930150877416        1.73760672862439        0.51892566659269
H            2.09989753479112        0.39601961812897        0.47930520784096
H            0.28893439121245        1.22859941002016       -1.83785399036951
H            1.98229698689186        1.67278371433335       -1.68612169104303
H            1.75746766651932       -0.19472606141132       -3.21731696755592
H            2.69287545863543       -0.64804462616544       -1.79854562333555
H            1.22333046367924       -2.45645673215443       -2.43120062592329
H            0.79837566612165       -1.84184612115096       -0.84016989462354
H           -1.23084994395859       -2.30047669889862       -2.00061372876013
H           -1.08702604939185       -0.56162375176094       -1.82237919181196
H           -1.95264514411320       -1.06122064560329       -4.00910312499596
H           -0.37142018386867       -0.32425696148316       -4.15967391098124
H           -0.73404835184692       -2.15663303961033       -5.75918063892153
H            0.67875283205913       -2.39693517156200       -4.74885094427441
H           -0.54848732887259       -4.48815377404912       -5.09521143618280
H           -0.42010495208540       -4.05275350649841       -3.39783628559478
H           -2.59814404331710       -4.83577266469456       -3.61646028519426
H           -2.75947112462712       -3.08462357200262       -3.55601509357793
H           -4.16327889780167       -3.45366619600871       -5.34917633131927
H           -2.66058847378958       -3.33941485203759       -6.22775138484643
H           -3.93528576869198       -5.24425271391702       -7.03240903418215
H           -2.40515352318475       -5.74688546962740       -6.32593164116552
H           -3.90101401185354       -7.37414983199272       -5.65461236559287
H           -3.74371233459217       -6.37295346826147       -4.20339102681907
H           -5.82923243158082       -4.33740908994390       -4.77014189171615
H           -7.22634563716254       -5.46407871106533       -4.69766118808945
H           -6.67525860871098       -7.48985796943033       -2.83321703312349
H           -5.88293188848946       -7.04409980332064       -0.20428396607769
H           -4.97153889026215       -3.68201430917371       -2.51493020230448
H           -5.29685094783024       -3.62819011483513        0.38652970689726
H           -4.67190560775447       -5.20759487291222        0.96407294050262
H           -2.67461405026270       -5.49632343173194       -1.38842666468002
H           -1.56627848010391       -4.26651671404124       -0.75780023446311
H           -0.90347202025927       -6.11119988928363        0.43596811121480
H           -1.98522272787351       -5.31718906092902        1.56842493259161
H           -2.25505202807339       -7.74085971591956        1.59813565760154
H           -3.74843585611389       -6.98294001532741        1.10404775644077
H           -3.64653850490764       -8.71053180047754       -0.41235469101645
H           -2.85527288227615       -7.46441702225056       -1.36047415381019
H           -1.57484658772560       -9.40479857390748       -1.64140597650201
H           -0.62599887510823       -8.37575335251865       -0.57942663591291
H           -0.59632165101182      -10.76551382818811        0.05415577198991
H           -1.14598594124485       -9.72427442102587        1.35261569872969
H           -2.43375456980735      -11.79841981698455        1.22795940954519
H           -3.44584592755162      -10.37911215378896        1.05342195198439
H           -4.21875135159645      -12.04525418671710       -0.46862499431769
H           -3.52846068884146      -10.73660884233787       -1.41571234302275
H           -2.91293244584341      -12.82598856296690       -2.40197109460555
H           -1.46609399058850      -12.04845385965568       -1.77875432112558
H           -1.45601856957990      -14.45588543248287       -1.38192244369413
H           -1.38040679425946      -13.55504400833353        0.12622413627969
H           -2.82268011915711      -15.49566001506619        0.33549556104110
H           -3.75462815886777      -14.02514530593173        0.57601232815510
H           -3.67345469525067      -15.63109005967745       -2.02348527492618
H           -4.95682529691183      -15.70980764233827       -0.81936844185559
H           -4.68980129825686      -14.22220971020850       -1.71958955424111
90
 energy: -104.802539541308 gnorm: 0.006993007494 xtb: 6.7.1 (edcfbbe)
C            1.16384327787929        0.76636491366299        0.06781796523977
C            1.24849503061963        0.89706215339698       -1.44896676279871
C            1.68886697400327       -0.38944659217407       -2.15044784858334
C            0.79041293230219       -1.60361762161912       -1.90724449566970
C           -0.66670350874740       -1.42719344981821       -2.33697523525074
C           -0.88670421238548       -1.23190814307087       -3.83892098645236
C           -0.41447463700606       -2.37991506268928       -4.73739831417451
C           -0.89788169201158       -3.77642052236890       -4.33615014347484
C           -2.41395614325804       -3.90863639817636       -4.16829324449968
C           -3.19520557898222       -3.93287866081414       -5.48770900586874
C           -3.38514754554233       -5.33119593389804       -6.09211687883098
C           -4.10100818388107       -6.38464608456867       -5.23960372715877
O           -5.53072030128605       -6.34178333121318       -5.24217552682752
C           -6.14846048944686       -5.35390868277082       -4.51255721327425
N           -5.92002284445247       -5.51667651749479       -3.07242544882174
C           -6.22611219497864       -6.63711741301171       -2.35696827084292
C           -5.82536882778813       -6.41905415929320       -1.07678938022667
N           -5.28635392315969       -5.16754374989101       -1.02754869868031
C           -5.34573253528433       -4.64726714655446       -2.24960396049832
C           -4.67427520091401       -4.49849183256388        0.12701271993303
O           -3.42977360275847       -3.99883625213401       -0.17726003409575
C           -2.38994099057885       -4.93049801028114       -0.49146203612360
C           -1.94690192742473       -5.87645739480246        0.62809019496261
C           -2.72559692073416       -7.19046696839619        0.78618247424904
C           -2.76667179943330       -8.08091860198058       -0.46070930790592
C           -1.54138166577577       -8.98068282338700       -0.64080879648722
C           -1.42292303887873      -10.12342484890425        0.37275453928235
C           -2.68126258018783      -10.97714023717834        0.55355636879801
C           -3.28163038539088      -11.55363687957841       -0.73060968706646
C           -2.39117930268010      -12.54462901449714       -1.48138461393755
C           -2.02885860809347      -13.81242450704396       -0.70514490292264
C           -3.21870257179595      -14.61064087966537       -0.16831772679874
C           -4.18753977870729      -15.06828112294780       -1.25295548427102
H            0.36826162767472        0.08661407135232        0.36201809062288
H            0.96075334310906        1.73579040183671        0.51560069059351
H            2.10282639257236        0.39473633845508        0.47091099422540
H            0.28348986626206        1.22428528636757       -1.84027136685224
H            1.97579779901059        1.67404941593934       -1.69306311437816
H            1.75456520407993       -0.19546372720574       -3.22251318453575
H            2.69288765047409       -0.64573728077245       -1.80457267902141
H            1.22336906323065       -2.45705516355558       -2.43305746150338
H            0.80199093584936       -1.84156210279088       -0.84161810867888
H           -1.23119318998719       -2.29981836391062       -1.99745427072348
H           -1.08469591520896       -0.56133830000006       -1.82099004168403
H           -1.95289440586634       -1.05810078914012       -4.00741013295470
H           -0.36914273829399       -0.32686331450197       -4.15824991267369
H           -0.73742474221106       -2.15870586343312       -5.75690209451722
H            0.67583817054275       -2.40075406675551       -4.74726739096153
H           -0.55573960185137       -4.48977113209191       -5.08847926336910
H           -0.42573037712655       -4.05190626171258       -3.39166219502615
H           -2.60766857427697       -4.82861842187131       -3.61068057913128
H           -2.76363899025743       -3.07779530533605       -3.55516119069702
H           -4.16373029406624       -3.44512661166476       -5.35458690522910
H           -2.65557702350950       -3.33678218875946       -6.22396067177602
H           -3.92957627839780       -5.23986275382351       -7.03299251814263
H           -2.40048273472069       -5.73994772801717       -6.32110165522024
H           -3.89451658757294       -7.37098556870773       -5.65853485947867
H           -3.73477843636218       -6.37352277855764       -4.20477025551867
H           -5.82450699377036       -4.33883332914485       -4.77473967508768
H           -7.22119805204400       -5.46719551198894       -4.70942145959233
H           -6.68037724213232       -7.48861137228420       -2.82259918136779
H           -5.88791977609976       -7.04747265047478       -0.21205868330940
H           -4.97038164548286       -3.67842649306700       -2.51606592696618
H           -5.28563507982998       -3.62809110961860        0.39613699165902
H           -4.66982859647760       -5.21677722809229        0.95695403004300
H           -2.66835151846525       -5.49841262769067       -1.38842575301128
H           -1.56208543909916       -4.26959397520195       -0.75270480267924
H           -0.90334060613345       -6.12226450192264        0.43186814093343
H           -1.97866720082472       -5.32538368174834        1.56976895635020
H           -2.25171030918799       -7.74793685995730        1.59426582203206
H           -3.74789189279965       -6.98793105483515        1.11403480791672
H           -3.65354905987942       -8.71229999373654       -0.41010666198019
H           -2.86685655827687       -7.46604233149499       -1.35982321632832
H           -1.58372587595866       -9.40684032593982       -1.64450910456979
H           -0.63496541470527       -8.37465058399247       -0.58505742572759
H           -0.59926216992843      -10.76218937655105        0.05229266722700
H           -1.14958317625639       -9.72082605689819        1.35056749855286
H           -2.43273311526035      -11.79805191911871        1.22660626505877
H           -3.44912298090533      -10.38169506165410        1.05474096346540
H           -4.21835159860807      -12.04888646014473       -0.46922489633987
H           -3.53027899883824      -10.73987111973336       -1.41658109137177
H           -2.90813209809930      -12.82905711078234       -2.39997376048214
H           -1.46383623399846      -12.04838380140900       -1.77485676579830
H           -1.45196350594903      -14.45558860246231       -1.37347174837699
H           -1.38012613182912      -13.55213789054670        0.13340639500878
H           -2.82467281824216      -15.49146689250770        0.34292440611413
H           -3.75779748944432      -14.02032567792885        0.57504848104512
H           -3.66199965115609      -15.63006316117358       -2.02120726476128
H           -4.95216097324991      -15.71074137608636       -0.82341175601184
H           -4.68285518340142      -14.22258787743106       -1.72291270593238
90
 energy: -104.802800257199 gnorm: 0.003918686949 xtb: 6.7.1 (edcfbbe)
C            1.16658230900761        0.76495032419347        0.05983098226488
C            1.24410394396767        0.89652472978231       -1.45747338973351
C            1.68765359164637       -0.38925415374403       -2.15853462978473
C            0.79222833640654       -1.60493517977068       -1.90993954027763
C           -0.66652646587384       -1.42751547392780       -2.33431756231905
C           -0.88725356522220       -1.23146665092251       -3.83615458762192
C           -0.41898840091102       -2.38283938560428       -4.73273478177101
C           -0.90726742449989       -3.77635842714834       -4.32640993916883
C           -2.42469448816781       -3.89943591777090       -4.16195605981755
C           -3.19663813085550       -3.92510702975200       -5.48645886993962
C           -3.38047863131062       -5.32479503412340       -6.09045803206111
C           -4.08903339120798       -6.38380600109763       -5.23946746380441
O           -5.52084716064173       -6.34754356159342       -5.23584855674330
C           -6.14222286890200       -5.35479516089769       -4.52446858067953
N           -5.92584919764486       -5.50880069359801       -3.07552899451954
C           -6.23351270682798       -6.62823711193854       -2.35862968780581
C           -5.83090162657161       -6.40963839980087       -1.07733696388149
N           -5.28790763477561       -5.16005940737605       -1.03022896966202
C           -5.34962485998140       -4.63908045549209       -2.25299513649619