      -----------------------------------------------------------      
     |                   =====================                   |     
     |                           x T B                           |     
     |                   =====================                   |     
     |                         S. Grimme                         |     
     |          Mulliken Center for Theoretical Chemistry        |     
     |                    University of Bonn                     |     
      -----------------------------------------------------------      

   * xtb version 6.7.1 (edcfbbe) compiled by 'conda@3ef47c1a292c' on 2024-11-25

   xtb is free software: you can redistribute it and/or modify it under
   the terms of the GNU Lesser General Public License as published by
   the Free Software Foundation, either version 3 of the License, or
   (at your option) any later version.
   
   xtb is distributed in the hope that it will be useful,
   but WITHOUT ANY WARRANTY; without even the implied warranty of
   MERCHANTABILITY or FITNESS FOR A PARTICULAR PURPOSE.  See the
   GNU Lesser General Public License for more details.
   
   Cite this work as:
   * C. Bannwarth, E. Caldeweyher, S. Ehlert, A. Hansen, P. Pracht,
     J. Seibert, S. Spicher, S. Grimme, WIREs Comput. Mol. Sci., 2020, 11,
     e01493. DOI: 10.1002/wcms.1493
   
   for GFN2-xTB:
   * C. Bannwarth, S. Ehlert and S. Grimme., J. Chem. Theory Comput., 2019,
     15, 1652-1671. DOI: 10.1021/acs.jctc.8b01176
   for GFN1-xTB:
   * S. Grimme, C. Bannwarth, P. Shushkov, J. Chem. Theory Comput., 2017,
     13, 1989-2009. DOI: 10.1021/acs.jctc.7b00118
   for GFN0-xTB:
   * P. Pracht, E. Caldeweyher, S. Ehlert, S. Grimme, ChemRxiv, 2019, preprint.
     DOI: 10.26434/chemrxiv.8326202.v1
   for GFN-FF:
   * S. Spicher and S. Grimme, Angew. Chem. Int. Ed., 2020, 59, 15665-15673.
     DOI: 10.1002/anie.202004239
   
   for ALPB and GBSA implicit solvation:
   * S. Ehlert, M. Stahn, S. Spicher, S. Grimme, J. Chem. Theory Comput.,
     2021, 17, 4250-4261. DOI: 10.1021/acs.jctc.1c00471
   
   for ddCOSMO and CPCM-X implicit solvation:
   * M. Stahn, S. Ehlert, S. Grimme, J. Phys. Chem. A,
     2023, XX, XXXX-XXXX. DOI: 10.1021/acs.jpca.3c04382
   
   for DFT-D4:
   * E. Caldeweyher, C. Bannwarth and S. Grimme, J. Chem. Phys., 2017,
     147, 034112. DOI: 10.1063/1.4993215
   * E. Caldeweyher, S. Ehlert, A. Hansen, H. Neugebauer, S. Spicher,
     C. Bannwarth and S. Grimme, J. Chem. Phys., 2019, 150, 154122.
     DOI: 10.1063/1.5090222
   * E. Caldeweyher, J.-M. Mewes, S. Ehlert and S. Grimme, Phys. Chem. Chem. Phys.
     2020, 22, 8499-8512. DOI: 10.1039/D0CP00502A
   
   for sTDA-xTB:
   * S. Grimme and C. Bannwarth, J. Chem. Phys., 2016, 145, 054103.
     DOI: 10.1063/1.4959605
   
   in the mass-spec context:
   * V. Asgeirsson, C. Bauer and S. Grimme, Chem. Sci., 2017, 8, 4879.
     DOI: 10.1039/c7sc00601b
   * J. Koopman and S. Grimme, ACS Omega 2019, 4, 12, 15120-15133.
     DOI: 10.1021/acsomega.9b02011
   
   for metadynamics refer to:
   * S. Grimme, J. Chem. Theory Comput., 2019, 155, 2847-2862
     DOI: 10.1021/acs.jctc.9b00143
   
   for SPH calculations refer to:
   * S. Spicher and S. Grimme, J. Chem. Theory Comput., 2021, 17, 1701-1714
     DOI: 10.1021/acs.jctc.0c01306
   
   for ONIOM refer to:
   * C. Plett, A. Katbashev, S. Ehlert, S. Grimme, M. Bursch,
     Phys. Chem. Chem. Phys., 2023, 25, 17860-17868. DOI: 10.1039/D3CP02178E
   
   for DIPRO refer to:
   * J. Kohn, N. Gildemeister, S. Grimme, D. Fazzi, A. Hansen,
     J. Chem. Phys., 2023, just accepted.
   
   for PTB refer to:
   * S. Grimme, M. Mueller, A. Hansen, J. Chem. Phys., 2023, 158, 124111.
     DOI: 10.1063/5.0137838
   
   with help from (in alphabetical order)
   P. Atkinson, C. Bannwarth, F. Bohle, G. Brandenburg, E. Caldeweyher
   M. Checinski, S. Dohm, S. Ehlert, S. Ehrlich, I. Gerasimov, C. Hölzer
   A. Katbashev, J. Kohn, J. Koopman, C. Lavigne, S. Lehtola, F. März, M. Müller,
   F. Musil, H. Neugebauer, J. Pisarek, C. Plett, P. Pracht, F. Pultar,
   J. Seibert, P. Shushkov, S. Spicher, M. Stahn, M. Steiner, T. Strunk,
   J. Stückrath, T. Rose, and J. Unsleber
   
 * started run on 2024/12/20 at 06:46:07.479     
   ID    Z sym.   atoms
    1    6 C      1-4, 6, 8-10
    2    8 O      5
    3    7 N      7
    4    1 H      11-30

           -------------------------------------------------
          |                Calculation Setup                |
           -------------------------------------------------

          program call               : xtb C0475.xyz --opt --namespace C0475 --charge +1
          calculation namespace      : C0475
          coordinate file            : C0475.xyz
          omp threads                :                     8


           -------------------------------------------------
          |                 G F N 2 - x T B                 |
           -------------------------------------------------

        Reference                      10.1021/acs.jctc.8b01176
      * Hamiltonian:
        H0-scaling (s, p, d)           1.850000    2.230000    2.230000
        zeta-weighting                 0.500000
      * Dispersion:
        s8                             2.700000
        a1                             0.520000
        a2                             5.000000
        s9                             5.000000
      * Repulsion:
        kExp                           1.500000    1.000000
        rExp                           1.000000
      * Coulomb:
        alpha                          2.000000
        third order                    shell-resolved
        anisotropic                    true
        a3                             3.000000
        a5                             4.000000
        cn-shift                       1.200000
        cn-exp                         4.000000
        max-rad                        5.000000


          ...................................................
          :                      SETUP                      :
          :.................................................:
          :  # basis functions                  60          :
          :  # atomic orbitals                  60          :
          :  # shells                           40          :
          :  # electrons                        62          :
          :  max. iterations                   250          :
          :  Hamiltonian                  GFN2-xTB          :
          :  restarted?                      false          :
          :  GBSA solvation                  false          :
          :  PC potential                    false          :
          :  electronic temp.          300.0000000     K    :
          :  accuracy                    1.0000000          :
          :  -> integral cutoff          0.2500000E+02      :
          :  -> integral neglect         0.1000000E-07      :
          :  -> SCF convergence          0.1000000E-05 Eh   :
          :  -> wf. convergence          0.1000000E-03 e    :
          :  Broyden damping             0.4000000          :
          :  net charge                          1          :
          :  unpaired electrons                  0          :
          ...................................................

 iter      E             dE          RMSdq      gap      omega  full diag
   1    -34.1810240 -0.341810E+02  0.317E+00    9.56       0.0  T
   2    -34.3095228 -0.128499E+00  0.206E+00    7.56       1.0  T
   3    -34.3114776 -0.195475E-02  0.113E+00    7.38       1.0  T
   4    -34.3119369 -0.459299E-03  0.123E-01    7.02       1.0  T
   5    -34.3119722 -0.353298E-04  0.666E-02    7.03       1.0  T
   6    -34.3119730 -0.792749E-06  0.150E-02    7.04       1.2  T
   7    -34.3119743 -0.132724E-05  0.333E-03    7.04       5.5  T
   8    -34.3119743 -0.179445E-07  0.858E-04    7.04      21.3  T
   9    -34.3119743 -0.164700E-08  0.383E-04    7.04      47.6  T

   *** convergence criteria satisfied after 9 iterations ***

         #    Occupation            Energy/Eh            Energy/eV
      -------------------------------------------------------------
         1        2.0000           -0.8721330             -23.7319
       ...           ...                  ...                  ...
        25        2.0000           -0.6065510             -16.5051
        26        2.0000           -0.5822343             -15.8434
        27        2.0000           -0.5738984             -15.6166
        28        2.0000           -0.5640467             -15.3485
        29        2.0000           -0.5460758             -14.8595
        30        2.0000           -0.5406704             -14.7124
        31        2.0000           -0.5314784             -14.4623 (HOMO)
        32                         -0.2726869              -7.4202 (LUMO)
        33                         -0.2041473              -5.5551
        34                         -0.1883584              -5.1255
        35                         -0.1855660              -5.0495
        36                         -0.1164777              -3.1695
       ...                                ...                  ...
        60                          0.1831600               4.9840
      -------------------------------------------------------------
                  HL-Gap            0.2587915 Eh            7.0421 eV
             Fermi-level           -0.4020826 Eh          -10.9412 eV

 SCC (total)                   0 d,  0 h,  0 min,  0.012 sec
 SCC setup                      ...        0 min,  0.000 sec (  0.889%)
 Dispersion                     ...        0 min,  0.000 sec (  1.749%)
 classical contributions        ...        0 min,  0.000 sec (  0.441%)
 integral evaluation            ...        0 min,  0.001 sec (  7.692%)
 iterations                     ...        0 min,  0.008 sec ( 67.132%)
 molecular gradient             ...        0 min,  0.003 sec ( 21.046%)
 printout                       ...        0 min,  0.000 sec (  0.928%)

         :::::::::::::::::::::::::::::::::::::::::::::::::::::
         ::                     SUMMARY                     ::
         :::::::::::::::::::::::::::::::::::::::::::::::::::::
         :: total energy             -33.904797764844 Eh    ::
         :: gradient norm              0.055556075791 Eh/a0 ::
         :: HOMO-LUMO gap              7.042074591007 eV    ::
         ::.................................................::
         :: SCC energy               -34.311752256320 Eh    ::
         :: -> isotropic ES            0.099977237978 Eh    ::
         :: -> anisotropic ES         -0.003774123740 Eh    ::
         :: -> anisotropic XC          0.018800377636 Eh    ::
         :: -> dispersion             -0.019544560048 Eh    ::
         :: repulsion energy           0.406954491476 Eh    ::
         :: add. restraining           0.000000000000 Eh    ::
         :: total charge               1.000000000000 e     ::
         :::::::::::::::::::::::::::::::::::::::::::::::::::::

      ----------------------------------------------------------- 
     |                   =====================                   |
     |                        A N C O P T                        |
     |                   =====================                   |
     |               Approximate Normal Coordinate               |
     |                Rational Function Optimizer                |
      ----------------------------------------------------------- 
      ----------------------------------------------------------- 
     |                   =====================                   |
     |                        A N C O P T                        |
     |                   =====================                   |
     |               Approximate Normal Coordinate               |
     |                Rational Function Optimizer                |
      ----------------------------------------------------------- 

          ...................................................
          :                      SETUP                      :
          :.................................................:
          :   optimization level            normal          :
          :   max. optcycles                   200          :
          :   ANC micro-cycles                  20          :
          :   degrees of freedom                84          :
          :.................................................:
          :   RF solver                   davidson          :
          :   write xtbopt.log                true          :
          :   linear?                        false          :
          :   energy convergence         0.5000000E-05 Eh   :
          :   grad. convergence          0.1000000E-02 Eh/α :
          :   maxmium RF displ.          1.0000000          :
          :   Hlow (freq-cutoff)         0.1000000E-01      :
          :   Hmax (freq-cutoff)         5.0000000          :
          :   S6 in model hess.         20.0000000          :
          ...................................................

generating ANC from exact Hessian ...
Using Lindh-Hessian (1995)
 Shifting diagonal of input Hessian by    9.5489281839291652E-003
 Lowest  eigenvalues of input Hessian
    0.000000    0.000000    0.000000    0.000000    0.000000    0.000000
    0.010000    0.010446    0.011158    0.012184    0.013747    0.015958
    0.017136    0.019329    0.019635    0.019739    0.019849    0.020486
 Highest eigenvalues
    1.246851    1.269150    1.278651    1.281310    1.325765    1.565776


........................................................................
.............................. CYCLE    1 ..............................
........................................................................

 iter      E             dE          RMSdq      gap      omega  full diag
   1    -34.3119743 -0.343120E+02  0.875E-05    7.04       0.0  T
   2    -34.3119743 -0.243219E-10  0.499E-05    7.04     365.7  T
   3    -34.3119743 -0.299849E-11  0.199E-05    7.04     917.7  T
     SCC iter.                  ...        0 min,  0.002 sec
     gradient                   ...        0 min,  0.003 sec
 * total energy  :   -33.9047978 Eh     change       -0.3281926E-09 Eh
   gradient norm :     0.0555586 Eh/α   predicted     0.0000000E+00 (-100.00%)
   displ. norm   :     0.2310435 α      lambda       -0.7498840E-02
   maximum displ.:     0.0763248 α      in ANC's #57, #5, #20, ...

........................................................................
.............................. CYCLE    2 ..............................
........................................................................

 iter      E             dE          RMSdq      gap      omega  full diag
   1    -34.3321877 -0.343322E+02  0.178E-01    7.65       0.0  T
   2    -34.3323280 -0.140363E-03  0.992E-02    7.62       1.0  T
   3    -34.3323315 -0.345491E-05  0.406E-02    7.63       1.0  T
   4    -34.3323330 -0.149745E-05  0.555E-03    7.63       3.3  T
   5    -34.3323331 -0.663210E-07  0.319E-03    7.63       5.7  T
   6    -34.3323331 -0.138925E-07  0.418E-04    7.63      43.7  T
   7    -34.3323331 -0.302308E-09  0.195E-04    7.63      93.6  T
     SCC iter.                  ...        0 min,  0.005 sec
     gradient                   ...        0 min,  0.003 sec
 * total energy  :   -33.9099250 Eh     change       -0.5127276E-02 Eh
   gradient norm :     0.0273737 Eh/α   predicted    -0.3949854E-02 ( -22.96%)
   displ. norm   :     0.2113265 α      lambda       -0.2328046E-02
   maximum displ.:     0.1130633 α      in ANC's #5, #3, #20, ...

........................................................................
.............................. CYCLE    3 ..............................
........................................................................

 iter      E             dE          RMSdq      gap      omega  full diag
   1    -34.3414360 -0.343414E+02  0.102E-01    8.08       0.0  T
   2    -34.3414963 -0.603302E-04  0.598E-02    8.05       1.0  T
   3    -34.3414974 -0.106079E-05  0.272E-02    8.06       1.0  T
   4    -34.3414978 -0.356841E-06  0.305E-03    8.06       6.0  T
   5    -34.3414978 -0.317558E-07  0.182E-03    8.06      10.1  T
   6    -34.3414978 -0.431093E-08  0.337E-04    8.06      54.1  T
   7    -34.3414978 -0.407979E-09  0.120E-04    8.06     151.5  T
     SCC iter.                  ...        0 min,  0.009 sec
     gradient                   ...        0 min,  0.003 sec
 * total energy  :   -33.9111946 Eh     change       -0.1269596E-02 Eh
   gradient norm :     0.0064714 Eh/α   predicted    -0.1216540E-02 (  -4.18%)
   displ. norm   :     0.1124522 α      lambda       -0.2078086E-03
   maximum displ.:     0.0731839 α      in ANC's #5, #3, #10, ...

........................................................................
.............................. CYCLE    4 ..............................
........................................................................

 iter      E             dE          RMSdq      gap      omega  full diag
   1    -34.3406430 -0.343406E+02  0.285E-02    8.07       0.0  T
   2    -34.3406435 -0.473145E-06  0.168E-02    8.07       1.1  T
   3    -34.3406435 -0.168019E-07  0.188E-03    8.07       9.7  T
   4    -34.3406435 -0.324968E-07  0.528E-04    8.07      34.6  T
   5    -34.3406435 -0.136121E-08  0.193E-04    8.07      94.5  T
     SCC iter.                  ...        0 min,  0.003 sec
     gradient                   ...        0 min,  0.003 sec
 * total energy  :   -33.9113597 Eh     change       -0.1650655E-03 Eh
   gradient norm :     0.0036240 Eh/α   predicted    -0.1052373E-03 ( -36.25%)
   displ. norm   :     0.2312679 α      lambda       -0.2747904E-03
   maximum displ.:     0.1396931 α      in ANC's #5, #3, #10, ...

........................................................................
.............................. CYCLE    5 ..............................
........................................................................

 iter      E             dE          RMSdq      gap      omega  full diag
   1    -34.3386701 -0.343387E+02  0.534E-02    8.03       0.0  T
   2    -34.3386724 -0.230942E-05  0.314E-02    8.03       1.0  T
   3    -34.3386725 -0.797086E-07  0.459E-03    8.03       4.0  T
   4    -34.3386726 -0.824175E-07  0.983E-04    8.03      18.6  T
   5    -34.3386726 -0.396100E-08  0.403E-04    8.03      45.3  T
     SCC iter.                  ...        0 min,  0.003 sec
     gradient                   ...        0 min,  0.003 sec
 * total energy  :   -33.9115271 Eh     change       -0.1674085E-03 Eh
   gradient norm :     0.0051847 Eh/α   predicted    -0.1447498E-03 ( -13.53%)
   displ. norm   :     0.1126297 α      lambda       -0.8273092E-04
   maximum displ.:     0.0697149 α      in ANC's #3, #5, #10, ...

........................................................................
.............................. CYCLE    6 ..............................
........................................................................

 iter      E             dE          RMSdq      gap      omega  full diag
   1    -34.3388750 -0.343389E+02  0.246E-02    8.00       0.0  T
   2    -34.3388757 -0.702030E-06  0.146E-02    8.00       1.3  T
   3    -34.3388757 -0.141855E-07  0.263E-03    8.00       6.9  T
   4    -34.3388758 -0.173006E-07  0.456E-04    8.00      40.1  T
   5    -34.3388758 -0.648676E-09  0.217E-04    8.00      84.0  T
     SCC iter.                  ...        0 min,  0.003 sec
     gradient                   ...        0 min,  0.003 sec
 * total energy  :   -33.9115966 Eh     change       -0.6949149E-04 Eh
   gradient norm :     0.0045390 Eh/α   predicted    -0.4189094E-04 ( -39.72%)
   displ. norm   :     0.2084802 α      lambda       -0.1613327E-03
   maximum displ.:     0.1370000 α      in ANC's #3, #2, #5, ...

........................................................................
.............................. CYCLE    7 ..............................
........................................................................

 iter      E             dE          RMSdq      gap      omega  full diag
   1    -34.3400847 -0.343401E+02  0.468E-02    7.95       0.0  T
   2    -34.3400867 -0.203508E-05  0.280E-02    7.96       1.0  T
   3    -34.3400868 -0.815040E-07  0.429E-03    7.95       4.3  T
   4    -34.3400869 -0.539345E-07  0.979E-04    7.95      18.6  T
   5    -34.3400869 -0.179132E-08  0.469E-04    7.95      39.0  T
     SCC iter.                  ...        0 min,  0.004 sec
     gradient                   ...        0 min,  0.003 sec
 * total energy  :   -33.9117164 Eh     change       -0.1198142E-03 Eh
   gradient norm :     0.0025080 Eh/α   predicted    -0.8417435E-04 ( -29.75%)
   displ. norm   :     0.2260605 α      lambda       -0.1064349E-03
   maximum displ.:     0.1559118 α      in ANC's #3, #2, #10, ...

........................................................................
.............................. CYCLE    8 ..............................
........................................................................

 iter      E             dE          RMSdq      gap      omega  full diag
   1    -34.3403553 -0.343404E+02  0.499E-02    7.93       0.0  T
   2    -34.3403564 -0.110320E-05  0.300E-02    7.93       1.0  T
   3    -34.3403565 -0.982077E-07  0.304E-03    7.93       6.0  T
   4    -34.3403566 -0.554505E-07  0.104E-03    7.93      17.5  T
   5    -34.3403566 -0.188406E-08  0.443E-04    7.93      41.2  T
   6    -34.3403566 -0.227736E-09  0.102E-04    7.93     178.2  T
     SCC iter.                  ...        0 min,  0.004 sec
     gradient                   ...        0 min,  0.003 sec
 * total energy  :   -33.9117964 Eh     change       -0.7993569E-04 Eh
   gradient norm :     0.0024158 Eh/α   predicted    -0.5594072E-04 ( -30.02%)
   displ. norm   :     0.1727033 α      lambda       -0.6785122E-04
   maximum displ.:     0.1260928 α      in ANC's #3, #2, #1, ...

........................................................................
.............................. CYCLE    9 ..............................
........................................................................

 iter      E             dE          RMSdq      gap      omega  full diag
   1    -34.3410336 -0.343410E+02  0.386E-02    7.93       0.0  T
   2    -34.3410342 -0.561124E-06  0.233E-02    7.93       1.0  T
   3    -34.3410343 -0.748214E-07  0.220E-03    7.93       8.3  T
   4    -34.3410343 -0.300772E-07  0.839E-04    7.93      21.8  T
   5    -34.3410343 -0.111007E-08  0.343E-04    7.93      53.2  T
     SCC iter.                  ...        0 min,  0.003 sec
     gradient                   ...        0 min,  0.003 sec
 * total energy  :   -33.9118484 Eh     change       -0.5203813E-04 Eh
   gradient norm :     0.0021262 Eh/α   predicted    -0.3493809E-04 ( -32.86%)
   displ. norm   :     0.1476481 α      lambda       -0.4565491E-04
   maximum displ.:     0.1106867 α      in ANC's #3, #2, #1, ...

........................................................................
.............................. CYCLE   10 ..............................
........................................................................

 iter      E             dE          RMSdq      gap      omega  full diag
   1    -34.3410457 -0.343410E+02  0.318E-02    7.94       0.0  T
   2    -34.3410460 -0.272030E-06  0.193E-02    7.94       1.0  T
   3    -34.3410460 -0.456809E-07  0.156E-03    7.94      11.7  T
   4    -34.3410461 -0.195122E-07  0.659E-04    7.94      27.7  T
   5    -34.3410461 -0.828578E-09  0.248E-04    7.94      73.7  T
     SCC iter.                  ...        0 min,  0.003 sec
     gradient                   ...        0 min,  0.003 sec
 * total energy  :   -33.9118860 Eh     change       -0.3765026E-04 Eh
   gradient norm :     0.0014682 Eh/α   predicted    -0.2332665E-04 ( -38.04%)
   displ. norm   :     0.1796375 α      lambda       -0.4055372E-04
   maximum displ.:     0.1365790 α      in ANC's #3, #1, #2, ...

........................................................................
.............................. CYCLE   11 ..............................
........................................................................

 iter      E             dE          RMSdq      gap      omega  full diag
   1    -34.3417020 -0.343417E+02  0.386E-02    7.95       0.0  T
   2    -34.3417024 -0.419092E-06  0.233E-02    7.95       1.0  T
   3    -34.3417025 -0.744569E-07  0.185E-03    7.95       9.9  T
   4    -34.3417025 -0.215357E-07  0.792E-04    7.95      23.0  T
   5    -34.3417025 -0.115804E-08  0.310E-04    7.95      58.9  T
     SCC iter.                  ...        0 min,  0.003 sec
     gradient                   ...        0 min,  0.003 sec
 * total energy  :   -33.9119322 Eh     change       -0.4618740E-04 Eh
   gradient norm :     0.0021286 Eh/α   predicted    -0.2056967E-04 ( -55.46%)
   displ. norm   :     0.1259688 α      lambda       -0.4004154E-04
   maximum displ.:     0.0963537 α      in ANC's #3, #1, #2, ...

........................................................................
.............................. CYCLE   12 ..............................
........................................................................

 iter      E             dE          RMSdq      gap      omega  full diag
   1    -34.3410912 -0.343411E+02  0.268E-02    7.95       0.0  T
   2    -34.3410915 -0.281671E-06  0.161E-02    7.95       1.1  T
   3    -34.3410915 -0.305503E-07  0.159E-03    7.95      11.5  T
   4    -34.3410915 -0.159826E-07  0.579E-04    7.95      31.5  T
   5    -34.3410915 -0.798572E-09  0.239E-04    7.95      76.4  T
     SCC iter.                  ...        0 min,  0.003 sec
     gradient                   ...        0 min,  0.003 sec
 * total energy  :   -33.9119663 Eh     change       -0.3407892E-04 Eh
   gradient norm :     0.0015700 Eh/α   predicted    -0.2034251E-04 ( -40.31%)
   displ. norm   :     0.2530326 α      lambda       -0.5220469E-04
   maximum displ.:     0.1879867 α      in ANC's #3, #1, #10, ...

........................................................................
.............................. CYCLE   13 ..............................
........................................................................

 iter      E             dE          RMSdq      gap      omega  full diag
   1    -34.3406806 -0.343407E+02  0.537E-02    7.93       0.0  T
   2    -34.3406821 -0.150305E-05  0.322E-02    7.93       1.0  T
   3    -34.3406822 -0.107434E-06  0.377E-03    7.93       4.8  T
   4    -34.3406822 -0.802238E-07  0.115E-03    7.93      15.8  T
   5    -34.3406822 -0.345251E-08  0.498E-04    7.93      36.7  T
   6    -34.3406822 -0.269125E-09  0.149E-04    7.93     122.3  T
     SCC iter.                  ...        0 min,  0.004 sec
     gradient                   ...        0 min,  0.003 sec
 * total energy  :   -33.9120244 Eh     change       -0.5813690E-04 Eh
   gradient norm :     0.0014949 Eh/α   predicted    -0.2684840E-04 ( -53.82%)
   displ. norm   :     0.2012144 α      lambda       -0.2658674E-04
   maximum displ.:     0.1525072 α      in ANC's #3, #1, #10, ...

........................................................................
.............................. CYCLE   14 ..............................
........................................................................

 iter      E             dE          RMSdq      gap      omega  full diag
   1    -34.3407422 -0.343407E+02  0.440E-02    7.90       0.0  T
   2    -34.3407434 -0.125028E-05  0.263E-02    7.91       1.0  T
   3    -34.3407435 -0.681122E-07  0.353E-03    7.91       5.2  T
   4    -34.3407436 -0.721169E-07  0.101E-03    7.91      18.1  T
   5    -34.3407436 -0.290905E-08  0.432E-04    7.91      42.3  T
   6    -34.3407436 -0.182958E-09  0.132E-04    7.91     138.5  T
     SCC iter.                  ...        0 min,  0.004 sec
     gradient                   ...        0 min,  0.003 sec
 * total energy  :   -33.9120515 Eh     change       -0.2710196E-04 Eh
   gradient norm :     0.0010257 Eh/α   predicted    -0.1353402E-04 ( -50.06%)
   displ. norm   :     0.1071807 α      lambda       -0.1028889E-04
   maximum displ.:     0.0863087 α      in ANC's #3, #1, #5, ...

........................................................................
.............................. CYCLE   15 ..............................
........................................................................

 iter      E             dE          RMSdq      gap      omega  full diag
   1    -34.3410856 -0.343411E+02  0.251E-02    7.89       0.0  T
   2    -34.3410861 -0.510220E-06  0.149E-02    7.89       1.2  T
   3    -34.3410861 -0.223828E-07  0.221E-03    7.89       8.3  T
   4    -34.3410861 -0.216816E-07  0.565E-04    7.89      32.3  T
   5    -34.3410861 -0.115958E-08  0.243E-04    7.89      75.3  T
     SCC iter.                  ...        0 min,  0.003 sec
     gradient                   ...        0 min,  0.003 sec
 * total energy  :   -33.9120630 Eh     change       -0.1141004E-04 Eh
   gradient norm :     0.0007594 Eh/α   predicted    -0.5172901E-05 ( -54.66%)
   displ. norm   :     0.1075614 α      lambda       -0.9685691E-05
   maximum displ.:     0.0886003 α      in ANC's #3, #1, #5, ...

........................................................................
.............................. CYCLE   16 ..............................
........................................................................

 iter      E             dE          RMSdq      gap      omega  full diag
   1    -34.3413156 -0.343413E+02  0.245E-02    7.87       0.0  T
   2    -34.3413162 -0.543399E-06  0.145E-02    7.87       1.3  T
   3    -34.3413162 -0.236031E-07  0.230E-03    7.87       7.9  T
   4    -34.3413162 -0.205010E-07  0.576E-04    7.87      31.7  T
   5    -34.3413162 -0.122058E-08  0.247E-04    7.87      74.1  T
     SCC iter.                  ...        0 min,  0.003 sec
     gradient                   ...        0 min,  0.003 sec
 * total energy  :   -33.9120740 Eh     change       -0.1108842E-04 Eh
   gradient norm :     0.0007482 Eh/α   predicted    -0.4868219E-05 ( -56.10%)
   displ. norm   :     0.0909852 α      lambda       -0.8538907E-05
   maximum displ.:     0.0731588 α      in ANC's #3, #1, #2, ...

........................................................................
.............................. CYCLE   17 ..............................
........................................................................

 iter      E             dE          RMSdq      gap      omega  full diag
   1    -34.3415463 -0.343415E+02  0.200E-02    7.86       0.0  T
   2    -34.3415466 -0.239549E-06  0.119E-02    7.86       1.5  T
   3    -34.3415466 -0.122577E-07  0.138E-03    7.86      13.3  T
   4    -34.3415466 -0.981919E-08  0.394E-04    7.86      46.3  T
   5    -34.3415466 -0.619700E-09  0.170E-04    7.86     107.4  T
     SCC iter.                  ...        0 min,  0.003 sec
     gradient                   ...        0 min,  0.003 sec
 * total energy  :   -33.9120845 Eh     change       -0.1041468E-04 Eh
   gradient norm :     0.0007806 Eh/α   predicted    -0.4285770E-05 ( -58.85%)
   displ. norm   :     0.1010755 α      lambda       -0.8589908E-05
   maximum displ.:     0.0791205 α      in ANC's #3, #2, #1, ...

........................................................................
.............................. CYCLE   18 ..............................
........................................................................

 iter      E             dE          RMSdq      gap      omega  full diag
   1    -34.3415234 -0.343415E+02  0.214E-02    7.86       0.0  T
   2    -34.3415236 -0.140684E-06  0.128E-02    7.86       1.4  T
   3    -34.3415236 -0.116009E-07  0.104E-03    7.86      17.5  T
   4    -34.3415236 -0.809338E-08  0.381E-04    7.86      47.9  T
   5    -34.3415236 -0.416826E-09  0.159E-04    7.86     115.0  T
     SCC iter.                  ...        0 min,  0.003 sec
     gradient                   ...        0 min,  0.003 sec
 * total energy  :   -33.9120948 Eh     change       -0.1031227E-04 Eh
   gradient norm :     0.0006667 Eh/α   predicted    -0.4317705E-05 ( -58.13%)
   displ. norm   :     0.0889943 α      lambda       -0.6653131E-05
   maximum displ.:     0.0661867 α      in ANC's #3, #2, #1, ...

........................................................................
.............................. CYCLE   19 ..............................
........................................................................

 iter      E             dE          RMSdq      gap      omega  full diag
   1    -34.3416089 -0.343416E+02  0.183E-02    7.87       0.0  T
   2    -34.3416090 -0.418770E-07  0.109E-02    7.87       1.7  T
   3    -34.3416090 -0.716799E-08  0.580E-04    7.87      31.5  T
   4    -34.3416090 -0.277217E-08  0.271E-04    7.87      67.3  T
     SCC iter.                  ...        0 min,  0.003 sec
     gradient                   ...        0 min,  0.003 sec
 * total energy  :   -33.9121028 Eh     change       -0.8031842E-05 Eh
   gradient norm :     0.0004967 Eh/α   predicted    -0.3340345E-05 ( -58.41%)
   displ. norm   :     0.0933102 α      lambda       -0.6117704E-05
   maximum displ.:     0.0662987 α      in ANC's #3, #2, #1, ...

........................................................................
.............................. CYCLE   20 ..............................
........................................................................

 iter      E             dE          RMSdq      gap      omega  full diag
   1    -34.3414715 -0.343415E+02  0.195E-02    7.88       0.0  T
   2    -34.3414716 -0.488085E-07  0.116E-02    7.88       1.6  T
   3    -34.3414716 -0.544954E-08  0.685E-04    7.88      26.6  T
   4    -34.3414716 -0.548861E-08  0.286E-04    7.88      63.7  T
     SCC iter.                  ...        0 min,  0.003 sec
     gradient                   ...        0 min,  0.003 sec
 * total energy  :   -33.9121102 Eh     change       -0.7385242E-05 Eh
   gradient norm :     0.0004984 Eh/α   predicted    -0.3071968E-05 ( -58.40%)
   displ. norm   :     0.1267039 α      lambda       -0.7114417E-05
   maximum displ.:     0.0870910 α      in ANC's #3, #2, #1, ...
 * RMSD in coord.:     0.4458924 α      energy gain  -0.7312423E-02 Eh

generating ANC from exact Hessian ...
Using Lindh-Hessian (1995)
 Shifting diagonal of input Hessian by    9.5070134952987204E-003
 Lowest  eigenvalues of input Hessian
    0.000000    0.000000    0.000000    0.000000    0.000000    0.000000
    0.010000    0.010396    0.011343    0.012128    0.013811    0.016262
    0.017829    0.021127    0.021189    0.021731    0.022114    0.022340
 Highest eigenvalues
    1.265181    1.314830    1.344184    1.448858    1.458986    1.693088


........................................................................
.............................. CYCLE   21 ..............................
........................................................................

 iter      E             dE          RMSdq      gap      omega  full diag
   1    -34.3413861 -0.343414E+02  0.257E-02    7.89       0.0  T
   2    -34.3413862 -0.612757E-07  0.153E-02    7.89       1.2  T
   3    -34.3413862 -0.130997E-07  0.725E-04    7.89      25.2  T
   4    -34.3413862 -0.421522E-08  0.361E-04    7.89      50.6  T
     SCC iter.                  ...        0 min,  0.003 sec
     gradient                   ...        0 min,  0.003 sec
 * total energy  :   -33.9121180 Eh     change       -0.7827068E-05 Eh
   gradient norm :     0.0007334 Eh/α   predicted     0.0000000E+00 (-100.00%)
   displ. norm   :     0.0158657 α      lambda       -0.5948671E-06
   maximum displ.:     0.0109442 α      in ANC's #2, #11, #4, ...

........................................................................
.............................. CYCLE   22 ..............................
........................................................................

 iter      E             dE          RMSdq      gap      omega  full diag
   1    -34.3415592 -0.343416E+02  0.402E-03    7.88       0.0  T
   2    -34.3415592 -0.279235E-07  0.230E-03    7.88       7.9  T
   3    -34.3415592 -0.852147E-09  0.554E-04    7.88      33.0  T
   4    -34.3415592 -0.643155E-09  0.105E-04    7.88     174.3  T
     SCC iter.                  ...        0 min,  0.003 sec
     gradient                   ...        0 min,  0.003 sec
 * total energy  :   -33.9121208 Eh     change       -0.2753855E-05 Eh
   gradient norm :     0.0003321 Eh/α   predicted    -0.1243833E-05 ( -54.83%)
   displ. norm   :     0.0310000 α      lambda       -0.2727453E-05
   maximum displ.:     0.0216326 α      in ANC's #2, #11, #4, ...

   *** GEOMETRY OPTIMIZATION CONVERGED AFTER 22 ITERATIONS ***

------------------------------------------------------------------------
 total energy gain   :        -0.0073230 Eh       -4.5953 kcal/mol
 total RMSD          :         0.4451191 a0        0.2355 Å
 total power (kW/mol):        -0.8739339 (step)  -90.9507 (real)
------------------------------------------------------------------------

 ANCopt (total)                0 d,  0 h,  0 min,  0.211 sec
 optimizer setup                ...        0 min,  0.000 sec (  0.033%)
 model hessian                  ...        0 min,  0.051 sec ( 23.911%)
 ANC generation                 ...        0 min,  0.001 sec (  0.567%)
 coordinate transformation      ...        0 min,  0.000 sec (  0.092%)
 single point calculation       ...        0 min,  0.155 sec ( 73.169%)
 optimization log               ...        0 min,  0.002 sec (  0.847%)
 hessian update                 ...        0 min,  0.001 sec (  0.280%)
 rational function              ...        0 min,  0.002 sec (  0.713%)

================
 final structure:
================
30
 xtb: 6.7.1 (edcfbbe)
C            1.72279454380163        0.86398455741082        1.95361581578478
C            0.69424129587979        1.96215737533190        1.70615315692182
C            1.03436220893324        2.85867291262963        0.51366155747042
C            0.95601132115421        2.17733616763331       -0.85110096196021
O           -0.40085880572649        1.92283669777592       -1.25379522838451
C           -0.94585150286291        0.69965887717636       -0.98681231362229
N           -1.29565111250758       -0.00312314526630       -2.29865341009230
C           -0.07555257541743       -0.18454284988859       -3.10375141035364
C           -1.90607181511294       -1.30937114280886       -2.00844694663869
C           -2.24602693488697        0.84930796646699       -3.03640212965036
H            1.78695494403231        0.16295599092907        1.12309864128736
H            1.46128106232128        0.30155227382069        2.84579971453512
H            2.70737000077942        1.29842948621445        2.10436301016486
H           -0.29992597306605        1.52733356570210        1.57612470272309
H            0.65071201335744        2.59509585132757        2.59315772858891
H            0.35448671175390        3.71165508093746        0.49924721894069
H            2.04918936134163        3.23999545968306        0.63282580951673
H            1.35206014956506        2.85326170611769       -1.61261222885409
H            1.53603702375769        1.24974308680935       -0.86338894981366
H           -0.27417070091044        0.03772745948319       -0.42708018581848
H           -1.89394263011051        0.81083309510310       -0.44429483101312
H            0.63291134544109       -0.82133698709144       -2.57632907601805
H           -0.32212137198962       -0.64994884889878       -4.05604166619791
H            0.38380150629521        0.78405644310761       -3.29344070157125
H           -2.79465610723152       -1.18437388813570       -1.39201525879146
H           -2.19353191898146       -1.79815255495255       -2.93794671948454
H           -1.20163733207245       -1.95031476836567       -1.48063833823781
H           -3.18380987082445        0.92403178934919       -2.48951153768992
H           -1.82418372182430        1.84757594681630       -3.14134966039412
H           -2.44121111488902        0.43050239558359       -4.02114580134685

 Bond Distances (Angstroems)
 ---------------------------
C1-C2=1.5248         C1-H11=1.0887        C1-H12=1.0866        C1-H13=1.0867        C2-C1=1.5248         C2-C3=1.5302         
C2-H14=1.0929        C2-H15=1.0905        C3-C2=1.5302         C3-C4=1.5274         C3-H16=1.0909        C3-H17=1.0906        
C4-C3=1.5274         C4-O5=1.4381         C4-H18=1.0925        C4-H19=1.0941        O5-C4=1.4381         O5-C6=1.3655         
C6-O5=1.3655         C6-N7=1.5288         C6-H20=1.0966        C6-H21=1.0980        N7-C6=1.5288         N7-C8=1.4730         
N7-C9=1.4708         N7-C10=1.4745        C8-N7=1.4730         C8-H22=1.0889        C8-H23=1.0882        C8-H24=1.0887        
C9-N7=1.4708         C9-H25=1.0887        C9-H26=1.0888        C9-H27=1.0889        C10-N7=1.4745        C10-H28=1.0882       
C10-H29=1.0888       C10-H30=1.0878       H11-C1=1.0887        H12-C1=1.0866        H13-C1=1.0867        H14-C2=1.0929        
H15-C2=1.0905        H16-C3=1.0909        H17-C3=1.0906        H18-C4=1.0925        H19-C4=1.0941        H20-C6=1.0966        
H21-C6=1.0980        H22-C8=1.0889        H23-C8=1.0882        H24-C8=1.0887        H25-C9=1.0887        H26-C9=1.0888        
H27-C9=1.0889        H28-C10=1.0882       H29-C10=1.0888       H30-C10=1.0878       
 C  H  Rav=1.0902 sigma=0.0030  Rmin=1.0866  Rmax=1.0980    20
 C  C  Rav=1.5275 sigma=0.0022  Rmin=1.5248  Rmax=1.5302     3
 N  C  Rav=1.4868 sigma=0.0243  Rmin=1.4708  Rmax=1.5288     4
 O  C  Rav=1.4018 sigma=0.0363  Rmin=1.3655  Rmax=1.4381     2

 selected bond angles (degree)
 --------------------
H11-C1-C2=112.31               H12-C1-C2=110.10               H12-C1-H11=107.89              H13-C1-C2=110.23               
H13-C1-H11=108.05              H13-C1-H12=108.13              C3-C2-C1=113.48                H14-C2-C1=110.27               
H14-C2-C3=110.03               H15-C2-C1=108.23               H15-C2-C3=107.62               H15-C2-H14=106.94              
C4-C3-C2=115.06                H16-C3-C2=109.26               H16-C3-C4=107.76               H17-C3-C2=109.06               
H17-C3-C4=107.54               H17-C3-H16=107.94              O5-C4-C3=112.18                H18-C4-C3=109.16               
H18-C4-O5=104.85               H19-C4-C3=111.16               H19-C4-O5=110.31               H19-C4-H18=108.94              
C6-O5-C4=118.71                N7-C6-O5=109.59                H20-C6-O5=113.33               H20-C6-N7=107.50               
H21-C6-O5=110.52               H21-C6-N7=105.84               H21-C6-H20=109.74              C8-N7-C6=109.64                
C9-N7-C6=109.51                C9-N7-C8=110.01                C10-N7-C6=108.12               C10-N7-C8=109.37               
C10-N7-C9=110.16               H22-C8-N7=110.26               H23-C8-N7=110.08               H23-C8-H22=108.73              
H24-C8-N7=109.58               H24-C8-H22=109.28              H24-C8-H23=108.88              H25-C9-N7=110.40               
H26-C9-N7=109.87               H26-C9-H25=108.63              H27-C9-N7=110.48               H27-C9-H25=108.73              
H27-C9-H26=108.69              H28-C10-N7=110.10              H29-C10-N7=109.18              H29-C10-H28=108.63             
H30-C10-N7=110.24              H30-C10-H28=109.07             H30-C10-H29=109.59             

 selected dihedral angles (degree)
 ---------------------------------
C3-C2-C1-H11=296.73           C3-C2-C1-H12=176.47           C3-C2-C1-H13= 57.27           H14-C2-C1-H11= 60.69          
H14-C2-C1-H12=300.43          H14-C2-C1-H13=181.23          H15-C2-C1-H11=177.35          H15-C2-C1-H12= 57.09          
H15-C2-C1-H13=297.89          C4-C3-C2-C1= 68.06            C4-C3-C2-H14=303.97           C4-C3-C2-H15=187.79           
H16-C3-C2-C1=189.40           H16-C3-C2-H14= 65.31          H16-C3-C2-H15=309.13          H17-C3-C2-C1=307.16           
H17-C3-C2-H14=183.08          H17-C3-C2-H15= 66.90          O5-C4-C3-C2= 72.29            O5-C4-C3-H16=310.14           
O5-C4-C3-H17=194.02           H18-C4-C3-C2=188.06           H18-C4-C3-H16= 65.91          H18-C4-C3-H17=309.79          
H19-C4-C3-C2=308.26           H19-C4-C3-H16=186.11          H19-C4-C3-H17= 69.98          C6-O5-C4-C3=265.48            
C6-O5-C4-H18=147.13           C6-O5-C4-H19= 29.99           N7-C6-O5-C4=242.90            H20-C6-O5-C4=  2.97           
H21-C6-O5-C4=126.63           C8-N7-C6-O5= 60.28            C8-N7-C6-H20=296.71           C8-N7-C6-H21=179.48           
C9-N7-C6-O5=181.08            C9-N7-C6-H20= 57.50           C9-N7-C6-H21=300.27           C10-N7-C6-O5=301.12           
C10-N7-C6-H20=177.55          C10-N7-C6-H21= 60.32          H22-C8-N7-C6= 62.20           H22-C8-N7-C9=301.72           
H22-C8-N7-C10=180.60          H23-C8-N7-C6=182.16           H23-C8-N7-C9= 61.68           H23-C8-N7-C10=300.56          
H24-C8-N7-C6=301.88           H24-C8-N7-C9=181.40           H24-C8-N7-C10= 60.28          H25-C9-N7-C6= 57.99           
H25-C9-N7-C8=178.56           H25-C9-N7-C10=299.20          H26-C9-N7-C6=177.78           H26-C9-N7-C8=298.34           
H26-C9-N7-C10= 58.98          H27-C9-N7-C6=297.68           H27-C9-N7-C8= 58.25           H27-C9-N7-C10=178.89          
H28-C10-N7-C6=294.67          H28-C10-N7-C8=175.34          H28-C10-N7-C9= 54.31          H29-C10-N7-C6= 53.84          
H29-C10-N7-C8=294.51          H29-C10-N7-C9=173.48          H30-C10-N7-C6=174.28          H30-C10-N7-C8= 54.95          
H30-C10-N7-C9=293.92          
           -------------------------------------------------
          |                Final Singlepoint                |
           -------------------------------------------------

          ...................................................
          :                      SETUP                      :
          :.................................................:
          :  # basis functions                  60          :
          :  # atomic orbitals                  60          :
          :  # shells                           40          :
          :  # electrons                        62          :
          :  max. iterations                   250          :
          :  Hamiltonian                  GFN2-xTB          :
          :  restarted?                      false          :
          :  GBSA solvation                  false          :
          :  PC potential                    false          :
          :  electronic temp.          300.0000000     K    :
          :  accuracy                    1.0000000          :
          :  -> integral cutoff          0.2500000E+02      :
          :  -> integral neglect         0.1000000E-07      :
          :  -> SCF convergence          0.1000000E-05 Eh   :
          :  -> wf. convergence          0.1000000E-03 e    :
          :  Broyden damping             0.4000000          :
          :  net charge                          1          :
          :  unpaired electrons                  0          :
          ...................................................

 iter      E             dE          RMSdq      gap      omega  full diag
   1    -34.3415592 -0.343416E+02  0.494E-05    7.88       0.0  T
   2    -34.3415592 -0.298428E-11  0.308E-05    7.88     593.6  T
   3    -34.3415592 -0.689226E-12  0.724E-06    7.88    2522.5  T

   *** convergence criteria satisfied after 3 iterations ***

         #    Occupation            Energy/Eh            Energy/eV
      -------------------------------------------------------------
         1        2.0000           -0.8806605             -23.9640
       ...           ...                  ...                  ...
        25        2.0000           -0.6048265             -16.4582
        26        2.0000           -0.5874881             -15.9864
        27        2.0000           -0.5771186             -15.7042
        28        2.0000           -0.5652624             -15.3816
        29        2.0000           -0.5460195             -14.8579
        30        2.0000           -0.5412997             -14.7295
        31        2.0000           -0.5333003             -14.5118 (HOMO)
        32                         -0.2437119              -6.6317 (LUMO)
        33                         -0.1816682              -4.9434
        34                         -0.1565267              -4.2593
        35                         -0.1458725              -3.9694
        36                         -0.1226335              -3.3370
       ...                                ...                  ...
        60                          0.1884277               5.1274
      -------------------------------------------------------------
                  HL-Gap            0.2895884 Eh            7.8801 eV
             Fermi-level           -0.3885061 Eh          -10.5718 eV

 SCC (total)                   0 d,  0 h,  0 min,  0.006 sec
 SCC setup                      ...        0 min,  0.000 sec (  1.070%)
 Dispersion                     ...        0 min,  0.000 sec (  1.823%)
 classical contributions        ...        0 min,  0.000 sec (  0.340%)
 integral evaluation            ...        0 min,  0.001 sec ( 12.579%)
 iterations                     ...        0 min,  0.002 sec ( 36.207%)
 molecular gradient             ...        0 min,  0.003 sec ( 46.191%)
 printout                       ...        0 min,  0.000 sec (  1.538%)

         :::::::::::::::::::::::::::::::::::::::::::::::::::::
         ::                     SUMMARY                     ::
         :::::::::::::::::::::::::::::::::::::::::::::::::::::
         :: total energy             -33.912120769187 Eh    ::
         :: gradient norm              0.000332846780 Eh/a0 ::
         :: HOMO-LUMO gap              7.880100255716 eV    ::
         ::.................................................::
         :: SCC energy               -34.341357535915 Eh    ::
         :: -> isotropic ES            0.098875406252 Eh    ::
         :: -> anisotropic ES         -0.003691973349 Eh    ::
         :: -> anisotropic XC          0.017453464227 Eh    ::
         :: -> dispersion             -0.019724798771 Eh    ::
         :: repulsion energy           0.429236766729 Eh    ::
         :: add. restraining           0.000000000000 Eh    ::
         :: total charge               1.000000000000 e     ::
         :::::::::::::::::::::::::::::::::::::::::::::::::::::

           -------------------------------------------------
          |                Property Printout                |
           -------------------------------------------------

    * Orbital Energies and Occupations

         #    Occupation            Energy/Eh            Energy/eV
      -------------------------------------------------------------
         1        2.0000           -0.8806605             -23.9640
       ...           ...                  ...                  ...
        19        2.0000           -0.6498681             -17.6838
        20        2.0000           -0.6474197             -17.6172
        21        2.0000           -0.6435863             -17.5129
        22        2.0000           -0.6420635             -17.4714
        23        2.0000           -0.6250292             -17.0079
        24        2.0000           -0.6230207             -16.9533
        25        2.0000           -0.6048265             -16.4582
        26        2.0000           -0.5874881             -15.9864
        27        2.0000           -0.5771186             -15.7042
        28        2.0000           -0.5652624             -15.3816
        29        2.0000           -0.5460195             -14.8579
        30        2.0000           -0.5412997             -14.7295
        31        2.0000           -0.5333003             -14.5118 (HOMO)
        32                         -0.2437119              -6.6317 (LUMO)
        33                         -0.1816682              -4.9434
        34                         -0.1565267              -4.2593
        35                         -0.1458725              -3.9694
        36                         -0.1226335              -3.3370
        37                         -0.0713536              -1.9416
        38                         -0.0335946              -0.9142
        39                         -0.0230023              -0.6259
        40                         -0.0151902              -0.4133
        41                         -0.0019343              -0.0526
        42                          0.0098629               0.2684
       ...                                ...                  ...
        60                          0.1884277               5.1274
      -------------------------------------------------------------
                  HL-Gap            0.2895884 Eh            7.8801 eV
             Fermi-level           -0.3885061 Eh          -10.5718 eV

     #   Z          covCN         q      C6AA      α(0)
     1   6 C        3.751    -0.109    22.647     6.787
     2   6 C        3.799    -0.058    21.624     6.621
     3   6 C        3.800    -0.077    21.976     6.675
     4   6 C        3.685     0.063    19.712     6.356
     5   8 O        1.700    -0.288    18.778     5.851
     6   6 C        3.641     0.115    19.021     6.271
     7   7 N        3.618     0.118    19.210     6.510
     8   6 C        3.718    -0.092    22.376     6.757
     9   6 C        3.716    -0.099    22.524     6.780
    10   6 C        3.720    -0.098    22.500     6.775
    11   1 H        0.925     0.019     2.744     2.590
    12   1 H        0.925     0.049     2.328     2.386
    13   1 H        0.925     0.051     2.310     2.377
    14   1 H        0.924     0.025     2.663     2.552
    15   1 H        0.924     0.055     2.257     2.350
    16   1 H        0.924     0.062     2.172     2.304
    17   1 H        0.924     0.063     2.161     2.299
    18   1 H        0.924     0.069     2.094     2.263
    19   1 H        0.924     0.041     2.434     2.440
    20   1 H        0.924     0.077     2.012     2.218
    21   1 H        0.923     0.084     1.943     2.180
    22   1 H        0.925     0.093     1.848     2.126
    23   1 H        0.925     0.101     1.780     2.086
    24   1 H        0.925     0.110     1.696     2.036
    25   1 H        0.925     0.099     1.790     2.092
    26   1 H        0.925     0.108     1.716     2.048
    27   1 H        0.925     0.098     1.803     2.100
    28   1 H        0.925     0.100     1.785     2.089
    29   1 H        0.925     0.119     1.623     1.992
    30   1 H        0.925     0.101     1.777     2.085

 Mol. C6AA /au·bohr⁶  :       5509.337579
 Mol. C8AA /au·bohr⁸  :     114452.267833
 Mol. α(0) /au        :        109.995513


Wiberg/Mayer (AO) data.
largest (>0.10) Wiberg bond orders for each atom

 ---------------------------------------------------------------------------
     #   Z sym  total        # sym  WBO       # sym  WBO       # sym  WBO
 ---------------------------------------------------------------------------
     1   6 C    3.995 --     2 C    1.020    13 H    0.986    12 H    0.986
                            11 H    0.985
     2   6 C    3.996 --     1 C    1.020     3 C    1.008    14 H    0.977
                            15 H    0.975
     3   6 C    3.989 --     2 C    1.008     4 C    1.003    16 H    0.973
                            17 H    0.969
     4   6 C    3.916 --     3 C    1.003    18 H    0.969    19 H    0.967
                             5 O    0.929
     5   8 O    2.137 --     6 C    1.072     4 C    0.929
     6   6 C    3.928 --     5 O    1.072    20 H    0.955    21 H    0.954
                             7 N    0.876
     7   7 N    3.804 --     9 C    0.962     8 C    0.958    10 C    0.954
                             6 C    0.876
     8   6 C    3.924 --    22 H    0.976    23 H    0.974    24 H    0.972
                             7 N    0.958
     9   6 C    3.926 --    27 H    0.975    25 H    0.975    26 H    0.973
                             7 N    0.962
    10   6 C    3.918 --    28 H    0.975    30 H    0.974    29 H    0.969
                             7 N    0.954
    11   1 H    1.000 --     1 C    0.985
    12   1 H    0.998 --     1 C    0.986
    13   1 H    0.997 --     1 C    0.986
    14   1 H    0.999 --     2 C    0.977
    15   1 H    0.997 --     2 C    0.975
    16   1 H    0.996 --     3 C    0.973
    17   1 H    0.995 --     3 C    0.969
    18   1 H    0.995 --     4 C    0.969
    19   1 H    0.998 --     4 C    0.967
    20   1 H    0.994 --     6 C    0.955
    21   1 H    0.993 --     6 C    0.954
    22   1 H    0.991 --     8 C    0.976
    23   1 H    0.990 --     8 C    0.974
    24   1 H    0.988 --     8 C    0.972
    25   1 H    0.990 --     9 C    0.975
    26   1 H    0.988 --     9 C    0.973
    27   1 H    0.990 --     9 C    0.975
    28   1 H    0.990 --    10 C    0.975
    29   1 H    0.986 --    10 C    0.969
    30   1 H    0.990 --    10 C    0.974
 ---------------------------------------------------------------------------

Topologies differ in total number of bonds
Writing topology from bond orders to xtbtopo.mol

molecular dipole:
                 x           y           z       tot (Debye)
 q only:       -1.740       0.220      -3.747
   full:       -1.715       0.026      -3.713      10.397
molecular quadrupole (traceless):
                xx          xy          yy          xz          yz          zz
 q only:       -3.047       5.047     -11.185      15.297       2.739      14.232
  q+dip:       -2.318       4.841     -12.377      14.583       3.791      14.695
   full:       -2.210       5.120     -12.253      14.736       3.582      14.462

           -------------------------------------------------
          |                Geometry Summary                 |
           -------------------------------------------------

      molecular mass/u    :      146.2508103
   center of mass at/Å    :       -0.2550751       0.9661802      -0.9543536
  moments of inertia/u·Å² :        0.2186399E+03   0.7962217E+03   0.8616499E+03
rotational constants/cm⁻¹ :        0.7710228E-01   0.2117203E-01   0.1956436E-01

 * 29 selected distances

     #   Z          #   Z                                           value/Å
     1   6 C        2   6 C                                       1.5248421
     2   6 C        3   6 C                                       1.5301827 (max)
     3   6 C        4   6 C                                       1.5273951
     4   6 C        5   8 O                                       1.4380645
     5   8 O        6   6 C                                       1.3654528
     6   6 C        7   7 N                                       1.5287870
     7   7 N        8   6 C                                       1.4730026
     7   7 N        9   6 C                                       1.4707540
     7   7 N       10   6 C                                       1.4744920
     1   6 C       11   1 H                                       1.0887225
     1   6 C       12   1 H                                       1.0866056 (min)
     1   6 C       13   1 H                                       1.0866721
     2   6 C       14   1 H                                       1.0928623
     2   6 C       15   1 H                                       1.0905426
     3   6 C       16   1 H                                       1.0908791
     3   6 C       17   1 H                                       1.0906335
     4   6 C       18   1 H                                       1.0925336
     4   6 C       19   1 H                                       1.0940795
     6   6 C       20   1 H                                       1.0966351
     6   6 C       21   1 H                                       1.0979808
     8   6 C       22   1 H                                       1.0888537
     8   6 C       23   1 H                                       1.0882352
     8   6 C       24   1 H                                       1.0886565
     9   6 C       25   1 H                                       1.0886664
     9   6 C       26   1 H                                       1.0888116
     9   6 C       27   1 H                                       1.0888612
    10   6 C       28   1 H                                       1.0881682
    10   6 C       29   1 H                                       1.0888089
    10   6 C       30   1 H                                       1.0877570

 * 4 distinct bonds (by element types)

   Z      Z             #   av. dist./Å        max./Å        min./Å
   1 H    6 C          20     1.0902483     1.0979808     1.0866056
   6 C    6 C           3     1.5274733     1.5301827     1.5248421
   6 C    7 N           4     1.4867589     1.5287870     1.4707540
   6 C    8 O           2     1.4017586     1.4380645     1.3654528


optimized geometry written to: xtbopt.xyz


           -------------------------------------------------
          | TOTAL ENERGY              -33.912120769187 Eh   |
          | GRADIENT NORM               0.000332846780 Eh/α |
          | HOMO-LUMO GAP               7.880100255716 eV   |
           -------------------------------------------------

------------------------------------------------------------------------
 * finished run on 2024/12/20 at 06:46:07.726     
------------------------------------------------------------------------
 total:
 * wall-time:     0 d,  0 h,  0 min,  0.246 sec
 *  cpu-time:     0 d,  0 h,  0 min,  1.941 sec
 * ratio c/w:     7.887 speedup
 SCF:
 * wall-time:     0 d,  0 h,  0 min,  0.012 sec
 *  cpu-time:     0 d,  0 h,  0 min,  0.099 sec
 * ratio c/w:     7.923 speedup
 ANC optimizer:
 * wall-time:     0 d,  0 h,  0 min,  0.218 sec
 *  cpu-time:     0 d,  0 h,  0 min,  1.730 sec
 * ratio c/w:     7.934 speedup

