33
 energy: -46.045888032503 gnorm: 0.091911744039 xtb: 6.7.1 (edcfbbe)
C            1.51064000000000        0.51556000000000        0.75491000000000
C            0.61968000000000       -0.57908000000000        1.29128000000000
O           -0.51854000000000       -0.31475000000000        1.68771000000000
C            1.11954000000000       -2.02444000000000        1.27695000000000
N            0.50684000000000       -2.90179000000000        0.22299000000000
C           -0.23236000000000       -2.55692000000000       -0.86459000000000
C           -0.88143000000000       -1.24755000000000       -1.18861000000000
N           -0.27536000000000       -3.64545000000000       -1.66861000000000
C            0.13268000000000       -4.76853000000000       -0.96485000000000
C            0.59474000000000       -4.30448000000000        0.26630000000000
C            1.06484000000000       -5.17582000000000        1.24989000000000
C            1.06371000000000       -6.53902000000000        0.92544000000000
C            0.61213000000000       -7.00091000000000       -0.32359000000000
C            0.13199000000000       -6.12073000000000       -1.30092000000000
C           -0.78101000000000       -3.65751000000000       -3.04101000000000
C            2.64675000000000       -2.10932000000000        1.22770000000000
H            0.92827000000000        1.43439000000000        0.63923000000000
H            1.89974000000000        0.23764000000000       -0.22774000000000
H            2.33083000000000        0.70741000000000        1.44977000000000
H            0.79797000000000       -2.43712000000000        2.24362000000000
H           -1.54775000000000       -0.99901000000000       -0.36460000000000
H           -0.09630000000000       -0.51234000000000       -1.35119000000000
H           -1.48193000000000       -1.35963000000000       -2.09103000000000
H            1.41083000000000       -4.82735000000000        2.21494000000000
H            1.42260000000000       -7.26270000000000        1.65857000000000
H            0.63256000000000       -8.07126000000000       -0.53253000000000
H           -0.22434000000000       -6.47617000000000       -2.25955000000000
H           -1.87273000000000       -3.70316000000000       -3.01657000000000
H           -0.45210000000000       -2.75272000000000       -3.55942000000000
H           -0.38696000000000       -4.51786000000000       -3.58747000000000
H            3.10607000000000       -1.46147000000000        1.98149000000000
H            2.99899000000000       -3.12657000000000        1.42075000000000
H            3.02763000000000       -1.82053000000000        0.24273000000000
33
 energy: -46.056383662120 gnorm: 0.034408290210 xtb: 6.7.1 (edcfbbe)
C            1.49652453030984        0.49948468759419        0.75145002810250
C            0.58514385648952       -0.58821261105606        1.25190040529976
O           -0.52092517936722       -0.34405282516782        1.67453769165150
C            1.10347098135719       -2.03337219737664        1.28971516571154
N            0.49472488176046       -2.89571150440786        0.24748703106393
C           -0.18683528298519       -2.55913863150520       -0.87218847040449
C           -0.83479088624259       -1.26196185067674       -1.19417127709391
N           -0.29385541774188       -3.64627342759969       -1.66115826772729
C            0.14912045454700       -4.75743763722564       -0.96666598043810
C            0.63157327075912       -4.28852230929925        0.26308800989281
C            1.09661405458464       -5.16741083373666        1.23382818617609
C            1.07074380102681       -6.51803862548904        0.91681007913742
C            0.61947085197585       -6.97818427167275       -0.32261480487465
C            0.14793645591266       -6.10825965121702       -1.29209238595567
C           -0.80568729652391       -3.65815970608025       -3.01971615509288
C            2.62939161450231       -2.12430071620397        1.20709754803304
H            0.92510883733376        1.42225991965004        0.65597737363512
H            1.92130160211476        0.23559712763786       -0.21628100897747
H            2.31287832349135        0.68029339369408        1.44760165144923
H            0.77500902367940       -2.44361004291772        2.25449881955807
H           -1.49269465296433       -0.98405661802889       -0.37164312572275
H           -0.09555768820882       -0.48206407176427       -1.35324562410848
H           -1.44689707590456       -1.36167417982795       -2.08762151453801
H            1.42032160690523       -4.83157018149995        2.20597421330193
H            1.40949264219600       -7.23875320478733        1.64938431480019
H            0.62751832093114       -8.04132057623139       -0.52469520371317
H           -0.22308893205667       -6.47061330875978       -2.23806204297878
H           -1.89500070519156       -3.70693145814880       -3.02418058270955
H           -0.47040894903686       -2.76352408386581       -3.54540999402852
H           -0.40428551808113       -4.52303928058433       -3.54522992831293
H            3.07456574596261       -1.47931826899750        1.96278096630912
H            2.97654455983901       -3.13741870685607        1.40312725983376
H            3.01079216862611       -1.82389434759178        0.23170762272071
33
 energy: -46.058938725761 gnorm: 0.012950376366 xtb: 6.7.1 (edcfbbe)
C            1.47896464197879        0.48155237658967        0.75083921058454
C            0.56738685766259       -0.59019686084191        1.26848184559964
O           -0.54377690322001       -0.37110967015601        1.65748371795493
C            1.09408872546773       -2.04124693082023        1.28826195692609
N            0.48313738874290       -2.88831646671092        0.25760819665613
C           -0.15728008719293       -2.55576002495736       -0.87890804097231
C           -0.78852992296097       -1.26174118017464       -1.20594210773421
N           -0.31211059339622       -3.64177525143693       -1.65315191347229
C            0.15699142494767       -4.74409199369563       -0.96730127950946
C            0.65049297345616       -4.27094106283019        0.26028250405227
C            1.11324269662683       -5.15454302743012        1.22583209787192
C            1.08594269504155       -6.49837708490384        0.91288385593306
C            0.63051436023356       -6.96024351265344       -0.32107438406675
C            0.15538733758526       -6.09567675092118       -1.28335462798825
C           -0.82728771014557       -3.66115502995808       -3.00008148524431
C            2.61670510917307       -2.14085805326152        1.19523958738544
H            0.91267941485497        1.40372229963695        0.64929035710378
H            1.93761786675536        0.21387877189043       -0.19970883345493
H            2.28467225174139        0.66218022331191        1.45764259673172
H            0.76155299294516       -2.45479208086732        2.24920014371362
H           -1.44001267584338       -0.95873010852720       -0.38436782468930
H           -0.07209590683117       -0.45889522352197       -1.36367150677748
H           -1.40425046293220       -1.35629924914881       -2.09568414325619
H            1.44486756498729       -4.82273054171763        2.19444975158627
H            1.41589776474812       -7.21535215485983        1.64629160593068
H            0.62999038172999       -8.01970626398814       -0.51776105966011
H           -0.22513101022477       -6.46221689164237       -2.22197098612671
H           -1.91564011809968       -3.71260509183645       -3.01302221023373
H           -0.49624061401340       -2.77464605631481       -3.53924228580462
H           -0.42792986414086       -4.53579052501554       -3.50880065706313
H            3.06278819759999       -1.50718146808374        1.95609297089504
H            2.95192718480573       -3.15825032268435        1.37401042636895
H            2.98365803791710       -1.82729479246870        0.22214252075987
33
 energy: -46.059647232954 gnorm: 0.006598440759 xtb: 6.7.1 (edcfbbe)
C            1.46630046519741        0.47594652157641        0.76505014260866
C            0.54758920052984       -0.59794555116310        1.25996342548603
O           -0.56487083296213       -0.38888482556159        1.65818519080175
C            1.09023383592718       -2.04795920922951        1.28531432666121
N            0.47668168838225       -2.88542883050335        0.25684984167798
C           -0.15042553079293       -2.55081284659935       -0.88294451342694
C           -0.75770059057659       -1.24902710392200       -1.22201596994667
N           -0.32157021191274       -3.63864461826676       -1.64834860012171
C            0.15283987494110       -4.73861108212862       -0.96426262156890
C            0.65046790419027       -4.26333307004880        0.26038746302194
C            1.12152362172494       -5.14502954554649        1.22495962362849
C            1.09891096113975       -6.48929431894142        0.91505365063800
C            0.63584596025665       -6.95453443695926       -0.31646781809277
C            0.15196189917955       -6.09139898049489       -1.27638206701560
C           -0.84394916191285       -3.66850800943312       -2.98995503750994
C            2.61161585242804       -2.14803438177986        1.18379966543377
H            0.90637911310403        1.40145118714923        0.65809326096532
H            1.93957209442815        0.20954528229463       -0.17795512175858
H            2.26302813076460        0.64620517967100        1.48720253922079
H            0.76171038382659       -2.46159210086559        2.24840712852247
H           -1.40751615470955       -0.92969980505809       -0.40403839234457
H           -0.03169424101330       -0.45666733297624       -1.37990952036146
H           -1.36950437994865       -1.34070075668787       -2.11419449453434
H            1.46505665499866       -4.81005397598390        2.18896288084764
H            1.43624394965637       -7.20305146111050        1.64797518204475
H            0.63844465808617       -8.01381696177128       -0.51257935866453
H           -0.23090396151358       -6.45929283899544       -2.21358112877295
H           -1.93298317583742       -3.71823595928467       -2.99344130658421
H           -0.51882334616066       -2.78800709075729       -3.54267482043086
H           -0.45340314495482       -4.55106840962376       -3.49264316711708
H            3.06696982573705       -1.52549121568159        1.94813131962964
H            2.94194805785328       -3.16996980206226        1.34589776539222
H            2.96824059994339       -1.82724364925453        0.20915053167081
33
 energy: -46.060325595406 gnorm: 0.007845357259 xtb: 6.7.1 (edcfbbe)
C            1.45001912938255        0.47305025512770        0.79186224926016
C            0.53265387568872       -0.60504043960588        1.27123689761620
O           -0.58746262662909       -0.41071740143304        1.66326263613288
C            1.08518987774500       -2.05448985897673        1.28341781423842
N            0.46920488151376       -2.88275637949510        0.25355900162401
C           -0.14729166370903       -2.54532940219781       -0.88880757338260
C           -0.71673721165401       -1.22933635822685       -1.24952838409301
N           -0.33250023864121       -3.63671245102331       -1.64378371692653
C            0.14141700213641       -4.73558282179164       -0.95892864158895
C            0.64366523254402       -4.25703762079599        0.26120569040587
C            1.13072182045658       -5.13342869237615        1.22449620268537
C            1.11697620252721       -6.47896576711949        0.91778428110960
C            0.64316151900128       -6.94940075614159       -0.30988427635393
C            0.14382545478795       -6.08988269961792       -1.26693734964839
C           -0.87067729267714       -3.68180360104701       -2.97836947648250
C            2.60518200576125       -2.15370737475946        1.16530037343299
H            0.89372078709870        1.39902352289998        0.66931331769358
H            1.94303472919132        0.20269612792507       -0.13939573762925
H            2.23042585524758        0.63956923890352        1.53460673776723
H            0.76499166029561       -2.47348868810249        2.24794881276063
H           -1.36951437784937       -0.88577819662112       -0.44320283663675
H            0.03538905148738       -0.46200445251534       -1.40605910305668
H           -1.31779285822965       -1.31472346277783       -2.14928770820282
H            1.48669871541894       -4.79283742358036        2.18327963742251
H            1.47181213826402       -7.18797210575835        1.64811411588081
H            0.65405119754039       -8.00907917073718       -0.50580586831847
H           -0.24136419706102       -6.46064523899576       -2.20238271088024
H           -1.96122576595893       -3.72579312404238       -2.96283614415677
H           -0.55204190798659       -2.81089596680090       -3.55047966670130
H           -0.49481604948019       -4.57440382652463       -3.47520357993633
H            3.07562153774429       -1.55066755313442        1.93637144608738
H            2.93091025756720       -3.18213180657006        1.30073814621042
H            2.95097125847605       -1.81891650408720        0.19038541366710
33
 energy: -46.060945110836 gnorm: 0.010413244025 xtb: 6.7.1 (edcfbbe)
C            1.43518245670880        0.47564483014676        0.82844487421222
C            0.51944578608463       -0.61231922444411        1.28299349088798
O           -0.60719764063827       -0.43373613143347        1.66623513058526
C            1.08327651398150       -2.05816782671759        1.27895022598218
N            0.46291512950105       -2.88170364832355        0.24846447035808
C           -0.14837818380777       -2.54344740167363       -0.89560148784860
C           -0.67253591292686       -1.21176259760325       -1.28032407000684
N           -0.34469050799884       -3.63879926731773       -1.64136588940130
C            0.12371114378981       -4.73765136871638       -0.95245120869852
C            0.63011140463060       -4.25509955584350        0.26321210392438
C            1.13503540544910       -5.12441626787608        1.22491203588219
C            1.13453451474754       -6.47044628801917        0.91928757345989
C            0.65122675131389       -6.94646279020245       -0.30351496053154
C            0.13280916889358       -6.09325647135697       -1.25692305355922
C           -0.90435096020162       -3.69819240192017       -2.96759322063629
C            2.60192217809715       -2.15391632805405        1.14350528217093
H            0.87702295891868        1.39829070398121        0.69107006179406
H            1.95344085021576        0.20804664219864       -0.09002563403002
H            2.19375690250175        0.64450489505812        1.59426102440980
H            0.77402043063250       -2.48562255684768        2.24371339334702
H           -1.32971212315054       -0.83783593153465       -0.49122457182772
H            0.11612909603735       -0.47806031007171       -1.43312660745251
H           -1.25816246213798       -1.28660405772339       -2.19145969441952
H            1.50014261055975       -4.77782076969184        2.17870669491385
H            1.51168492021965       -7.17432427672524        1.64480006510091
H            0.67325313415979       -8.00655694266314       -0.49913468241967
H           -0.25530163697159       -6.46896737816041       -2.18941860282347
H           -1.99599135527570       -3.73210176929957       -2.92914296162943
H           -0.58956189647622       -2.83883684042788       -3.55910144767418
H           -0.54566131819126       -4.60088934657608       -3.45885956849567
H            3.08592121757433       -1.57037370817787        1.92122474835103
H            2.92672204844292       -3.18696486715522        1.25088791722883
H            2.93749937531641       -1.80134074682752        0.17058856884689
33
 energy: -46.061558189170 gnorm: 0.009601931574 xtb: 6.7.1 (edcfbbe)
C            1.42310290432852        0.48460899136605        0.87153312573848
C            0.50924187886088       -0.61872176805104        1.29276127438602
O           -0.62454634045853       -0.45688539088736        1.66094860772804
C            1.08512647681239       -2.05868985555003        1.27072000453656
N            0.46018495947412       -2.88218713723825        0.24133514965471
C           -0.14936493185152       -2.54563607676071       -0.90441942521778
C           -0.62681628632135       -1.20117467353393       -1.31057529803794
N           -0.35766568139580       -3.64509291568809       -1.64155334083883
C            0.10313346290781       -4.74411294752837       -0.94612542532144
C            0.61550552952607       -4.25706301327965        0.26478013197173
C            1.13646739797352       -5.11894439559282        1.22472105181919
C            1.14860050226535       -6.46491294933337        0.91942154582111
C            0.65758451716644       -6.94637523508745       -0.29792609748760
C            0.12000710219493       -6.10073719351369       -1.24729215787592
C           -0.94274471954563       -3.71554033598409       -2.95758786448675
C            2.60229544803644       -2.14791704170323        1.11968097473441
H            0.85765178191614        1.40074740859054        0.72284545714334
H            1.97202582708827        0.22911594158689       -0.03312592102621
H            2.15528760807255        0.65956275964697        1.66191929257560
H            0.78757787701035       -2.49600957414513        2.23464748566073
H           -1.28648121067046       -0.79522967549513       -0.54076199355466
H            0.19852019644195       -0.50267192773137       -1.45636078756880
H           -1.19470468277901       -1.26294081725315       -2.23440239789956
H            1.50568419011709       -4.76684024697761        2.17463652082647
H            1.54628582195977       -7.16393842978695        1.63933938705887
H            0.69239658940945       -8.00644810161480       -0.49363541934925
H           -0.27219185298318       -6.48284731129337       -2.17551688004528
H           -2.03423327242225       -3.73540980329602       -2.89590571292607
H           -0.62897478824253       -2.86878613420558       -3.56693251485193
H           -0.60344233537568       -4.62853273403200       -3.44317644029852
H            3.09389079861250       -1.58026592547645        1.90364623446335
H            2.92864132852474       -3.18269746650133        1.20322059057141
H            2.93017390334641       -1.77661602364884        0.15113084209797
33
 energy: -46.062195349228 gnorm: 0.006891176791 xtb: 6.7.1 (edcfbbe)
C            1.41309979843847        0.49987469181556        0.92108255445685
C            0.50169963429851       -0.62448656109412        1.29745730902609
O           -0.64091323603131       -0.48106278284448        1.64269196180129
C            1.09142985137079       -2.05642798254253        1.25743467281303
N            0.46259525413996       -2.88402274590475        0.23133999246851
C           -0.14721185347808       -2.55146352476037       -0.91624072201510
C           -0.57959788488049       -1.19895940068253       -1.33995776003803
N           -0.37075460503312       -3.65515414943768       -1.64396971549929
C            0.08218081692014       -4.75382235057659       -0.94044757333619
C            0.60344075405051       -4.26188151826550        0.26489979710932
C            1.13641608931072       -5.11688450928200        1.22331190792708
C            1.15773383301448       -6.46263937858124        0.91881391696008
C            0.66034325758896       -6.94925042181354       -0.29279653587322
C            0.10518979901039       -6.11122931253451       -1.23790586042605
C           -0.98390899279090       -3.73304349660541       -2.94770944862007
C            2.60720415635015       -2.13551068838815        1.09428248210323
H            0.83595779684158        1.40745955932755        0.76668430225057
H            1.99660214153469        0.26760372663450        0.03131968723486
H            2.11463157041843        0.68020206469513        1.73774033711620
H            0.80591253249071       -2.50352219726565        2.22013698291715
H           -1.23932778572173       -0.76296806239244       -0.58963267876798
H            0.27500267624933       -0.53188094289129       -1.47467250655792
H           -1.12853653822217       -1.24753472752358       -2.27619719872278
H            1.50825937326063       -4.75970175059444        2.16959284708680
H            1.57099047912922       -7.15728517014799        1.63355678432171
H            0.70621134569359       -8.00891232642324       -0.48843428548732
H           -0.29297401106676       -6.50047106521232       -2.16053795142434
H           -2.07381424382855       -3.73460557141032       -2.86330851557660
H           -0.66866811425579       -2.89994577201092       -3.57398356883051
H           -0.66755579731799       -4.65724430991567       -3.42731110424958
H            3.10017757038669       -1.57892315165449        1.88421605095546
H            2.93739443093611       -3.16957457743020        1.15897922847201
H            2.92900990119238       -1.74592159428594        0.13155461040670
33
 energy: -46.062815623842 gnorm: 0.005892315176 xtb: 6.7.1 (edcfbbe)
C            1.40246487942293        0.51782359771091        0.97451327391418
C            0.49536773945634       -0.63048309926266        1.29644027734183
O           -0.65844904412746       -0.50738475760674        1.61018254803077
C            1.10180547764246       -2.05278694202300        1.24030870143559
N            0.46980263794142       -2.88693041151403        0.21982116938400
C           -0.14084458591553       -2.55951618435428       -0.92948857329818
C           -0.53217960633103       -1.20319122828717       -1.36818186203813
N           -0.38304884975657       -3.66703296888357       -1.64646510701938
C            0.06374308488139       -4.76444678973703       -0.93515071746327
C            0.59731981297277       -4.26774440233624        0.26350596725146
C            1.13784463325625       -5.11774581530189        1.22051352742118
C            1.16133497819628       -6.46375325917414        0.91868702393792
C            0.65648057120465       -6.95479032605631       -0.28693284756585
C            0.08798061420129       -6.12254258651101       -1.22815932137822
C           -1.02317648114442       -3.74886655204497       -2.93682606824606
C            2.61669931734247       -2.11745533379044        1.06663572502749
H            0.81165495660867        1.41667998008831        0.82090030150044
H            2.01991435750852        0.31763802444992        0.10018406549316
H            2.07167852471353        0.69785451225184        1.81727343628395
H            0.82945295143091       -2.50811126808959        2.20269211842068
H           -1.19281057210614       -0.74151164521713       -0.63675359268006
H            0.34162264309956       -0.56022156774541       -1.48719433456038
H           -1.06111553132174       -1.24094796723770       -2.31623383393309
H            1.51459623593845       -4.75626884436747        2.16266354588932
H            1.58408313362756       -7.15499018605155        1.62970355722350
H            0.70892485570842       -8.01382749927721       -0.48223580164088
H           -0.31760342435465       -6.51807504948202       -2.14469116870039
H           -2.11039110398605       -3.72825776563833       -2.83196536325689
H           -0.70407637396632       -2.93024512134537       -3.57947400665716
H           -0.73328634555437       -4.68519264202722       -3.40994750506303
H            3.10693302953088       -1.56704252673664        1.86209741894534
H            2.95420044029683       -3.14923046788132        1.11627379785470
H            2.93129704358194       -1.71059290651941        0.10929364814798
33
 energy: -46.063444474527 gnorm: 0.007312370176 xtb: 6.7.1 (edcfbbe)
C            1.38841443114298        0.53420912045057        1.03049313848594
C            0.48803883896950       -0.63779307834032        1.29044263508321
O           -0.67852311836698       -0.53653456276650        1.56494507474145
C            1.11488227616550       -2.04906138997887        1.22127043969947
N            0.47989047175069       -2.89063071880569        0.20845545646512
C           -0.13163737196451       -2.56811765973143       -0.94205655573144
C           -0.48465334816358       -1.20967382921963       -1.39632441873482
N           -0.39453307340175       -3.67868974973717       -1.64695172213293
C            0.04861378690224       -4.77417423347482       -0.92951089704344
C            0.59692498515114       -4.27326292634917        0.26139471732468
C            1.14269006193166       -5.12044233958109        1.21670029533929
C            1.16144399922475       -6.46752170895985        0.91965311780138
C            0.64603212918432       -6.96223772917257       -0.27944417790904
C            0.06821195501325       -6.13313267308060       -1.21727790911816
C           -1.05884278010244       -3.76240466912098       -2.92386265197702
C            2.62922351408266       -2.09464419125886        1.03542955298681
H            0.78458156932405        1.42567214716469        0.88280761504610
H            2.03724041409973        0.37124555730893        0.17216548739155
H            2.02508534939681        0.70512996938364        1.89911659973728
H            0.85863910194095       -2.51047842783315        2.18528959066805
H           -1.15188466556981       -0.72710768659270       -0.68518930896541
H            0.40374694414717       -0.58576454267832       -1.49309296446014
H           -0.98969598239412       -1.23920676366860       -2.35777076928704
H            1.52979311133146       -4.75542331868249        2.15324032356352
H            1.58976709081617       -7.15649189300868        1.62839372517792
H            0.69876793794049       -8.02100940526607       -0.47349357169339
H           -0.34612947670324       -6.53317213809126       -2.12776588363841
H           -2.14279385533429       -3.71580418268919       -2.80086962288202
H           -0.73356315667144       -2.95947668913878       -3.58309214897808
H           -0.79865272295258       -4.71147878756476       -3.38964797130609
H            3.11610657568300       -1.54640507822927        1.83456832127817
H            2.97807660358412       -3.12291409331050        1.07236091939324
H            2.93295840384103       -1.67239232797513        0.08161356367737
33
 energy: -46.064210256673 gnorm: 0.008991710020 xtb: 6.7.1 (edcfbbe)
C            1.36856063243165        0.54807200306767        1.09212361855064
C            0.47919848381310       -0.64703493466141        1.28024012235838
O           -0.70027444491098       -0.56987715145038        1.50718185967924
C            1.13165251965184       -2.04489677334350        1.19971030280878
N            0.49444422632237       -2.89502543433255        0.19647364142687
C           -0.11846582526296       -2.57670123184142       -0.95450694007515
C           -0.43576135025349       -1.21790327640218       -1.42551343823392
N           -0.40422959865758       -3.68973390848718       -1.64551679720502
C            0.03676187634610       -4.78295879789421       -0.92337475116852
C            0.60249297021297       -4.27827373962911        0.25830148434820
C            1.15199886025090       -5.12457030504603        1.21155889108744
C            1.15796445713052       -6.47368298018107        0.92209051324342
C            0.62680296218641       -6.97173777560157       -0.26880069810780
C            0.04417333025686       -6.14327586379289       -1.20414977589782
C           -1.09110581002671       -3.77399496638282       -2.90872515933640
C            2.64513039821529       -2.06535323911380        0.99783267323940
H            0.75269327540420        1.43366870219743        0.95675486026815
H            2.04609632231683        0.42877401218481        0.25082444474722
H            1.97229102185563        0.69865289141699        1.98623441365149
H            0.89649767365211       -2.51095012144212        2.16739033758712
H           -1.11904940413502       -0.72150701039526       -0.73918533334607
H            0.46347595292756       -0.60809396851670       -1.48943685029126
H           -0.90816666980173       -1.24240605287347       -2.40416071501056
H            1.55575057575118       -4.75667612013329        2.14034887259621
H            1.58880730178286       -7.16147897496295        1.62986811295975
H            0.67222667039012       -8.03109975561709       -0.45966973357358
H           -0.38102876735735       -6.54600978221843       -2.10835698618350
H           -2.17093002881151       -3.69562944215474       -2.76919636673039
H           -0.75657243684815       -2.98936568504165       -3.58564690367657
H           -0.86527603686735       -4.73664452090382       -3.36525777958550
H            3.12959935562642       -1.51499507587926        1.79736359238818
H            3.01009891119260       -3.08846117482245        1.02416966122772
H            2.93236259521392       -1.63001954574386        0.04502082625764
33
 energy: -46.065225208885 gnorm: 0.010555757987 xtb: 6.7.1 (edcfbbe)
C            1.33952099601852        0.55897696515395        1.16567730682907
C            0.46780455845365       -0.65980583619228        1.26551696482340
O           -0.72415934194424       -0.61242123589244        1.43451982451606
C            1.15453888140375       -2.04010843363423        1.17335156124453
N            0.51618452954800       -2.90046121415686        0.18207076774056
C           -0.09961870902464       -2.58527183146341       -0.96798426358855
C           -0.38203765306275       -1.22679652323610       -1.45776139182264
N           -0.41192059217908       -3.70050251528830       -1.64224896066027
C            0.02719427147751       -4.79140890608836       -0.91631720106600
C            0.61435246532476       -4.28307536997440        0.25368833711642