      -----------------------------------------------------------      
     |                   =====================                   |     
     |                           x T B                           |     
     |                   =====================                   |     
     |                         S. Grimme                         |     
     |          Mulliken Center for Theoretical Chemistry        |     
     |                    University of Bonn                     |     
      -----------------------------------------------------------      

   * xtb version 6.7.1 (edcfbbe) compiled by 'conda@3ef47c1a292c' on 2024-11-25

   xtb is free software: you can redistribute it and/or modify it under
   the terms of the GNU Lesser General Public License as published by
   the Free Software Foundation, either version 3 of the License, or
   (at your option) any later version.
   
   xtb is distributed in the hope that it will be useful,
   but WITHOUT ANY WARRANTY; without even the implied warranty of
   MERCHANTABILITY or FITNESS FOR A PARTICULAR PURPOSE.  See the
   GNU Lesser General Public License for more details.
   
   Cite this work as:
   * C. Bannwarth, E. Caldeweyher, S. Ehlert, A. Hansen, P. Pracht,
     J. Seibert, S. Spicher, S. Grimme, WIREs Comput. Mol. Sci., 2020, 11,
     e01493. DOI: 10.1002/wcms.1493
   
   for GFN2-xTB:
   * C. Bannwarth, S. Ehlert and S. Grimme., J. Chem. Theory Comput., 2019,
     15, 1652-1671. DOI: 10.1021/acs.jctc.8b01176
   for GFN1-xTB:
   * S. Grimme, C. Bannwarth, P. Shushkov, J. Chem. Theory Comput., 2017,
     13, 1989-2009. DOI: 10.1021/acs.jctc.7b00118
   for GFN0-xTB:
   * P. Pracht, E. Caldeweyher, S. Ehlert, S. Grimme, ChemRxiv, 2019, preprint.
     DOI: 10.26434/chemrxiv.8326202.v1
   for GFN-FF:
   * S. Spicher and S. Grimme, Angew. Chem. Int. Ed., 2020, 59, 15665-15673.
     DOI: 10.1002/anie.202004239
   
   for ALPB and GBSA implicit solvation:
   * S. Ehlert, M. Stahn, S. Spicher, S. Grimme, J. Chem. Theory Comput.,
     2021, 17, 4250-4261. DOI: 10.1021/acs.jctc.1c00471
   
   for ddCOSMO and CPCM-X implicit solvation:
   * M. Stahn, S. Ehlert, S. Grimme, J. Phys. Chem. A,
     2023, XX, XXXX-XXXX. DOI: 10.1021/acs.jpca.3c04382
   
   for DFT-D4:
   * E. Caldeweyher, C. Bannwarth and S. Grimme, J. Chem. Phys., 2017,
     147, 034112. DOI: 10.1063/1.4993215
   * E. Caldeweyher, S. Ehlert, A. Hansen, H. Neugebauer, S. Spicher,
     C. Bannwarth and S. Grimme, J. Chem. Phys., 2019, 150, 154122.
     DOI: 10.1063/1.5090222
   * E. Caldeweyher, J.-M. Mewes, S. Ehlert and S. Grimme, Phys. Chem. Chem. Phys.
     2020, 22, 8499-8512. DOI: 10.1039/D0CP00502A
   
   for sTDA-xTB:
   * S. Grimme and C. Bannwarth, J. Chem. Phys., 2016, 145, 054103.
     DOI: 10.1063/1.4959605
   
   in the mass-spec context:
   * V. Asgeirsson, C. Bauer and S. Grimme, Chem. Sci., 2017, 8, 4879.
     DOI: 10.1039/c7sc00601b
   * J. Koopman and S. Grimme, ACS Omega 2019, 4, 12, 15120-15133.
     DOI: 10.1021/acsomega.9b02011
   
   for metadynamics refer to:
   * S. Grimme, J. Chem. Theory Comput., 2019, 155, 2847-2862
     DOI: 10.1021/acs.jctc.9b00143
   
   for SPH calculations refer to:
   * S. Spicher and S. Grimme, J. Chem. Theory Comput., 2021, 17, 1701-1714
     DOI: 10.1021/acs.jctc.0c01306
   
   for ONIOM refer to:
   * C. Plett, A. Katbashev, S. Ehlert, S. Grimme, M. Bursch,
     Phys. Chem. Chem. Phys., 2023, 25, 17860-17868. DOI: 10.1039/D3CP02178E
   
   for DIPRO refer to:
   * J. Kohn, N. Gildemeister, S. Grimme, D. Fazzi, A. Hansen,
     J. Chem. Phys., 2023, just accepted.
   
   for PTB refer to:
   * S. Grimme, M. Mueller, A. Hansen, J. Chem. Phys., 2023, 158, 124111.
     DOI: 10.1063/5.0137838
   
   with help from (in alphabetical order)
   P. Atkinson, C. Bannwarth, F. Bohle, G. Brandenburg, E. Caldeweyher
   M. Checinski, S. Dohm, S. Ehlert, S. Ehrlich, I. Gerasimov, C. Hölzer
   A. Katbashev, J. Kohn, J. Koopman, C. Lavigne, S. Lehtola, F. März, M. Müller,
   F. Musil, H. Neugebauer, J. Pisarek, C. Plett, P. Pracht, F. Pultar,
   J. Seibert, P. Shushkov, S. Spicher, M. Stahn, M. Steiner, T. Strunk,
   J. Stückrath, T. Rose, and J. Unsleber
   
 * started run on 2024/12/20 at 06:47:09.912     
   ID    Z sym.   atoms
    1    6 C      1, 2, 4, 6-18
    2    7 N      3
    3    8 O      5
    4    1 H      19-52

           -------------------------------------------------
          |                Calculation Setup                |
           -------------------------------------------------

          program call               : xtb C0515.xyz --opt --namespace C0515 --charge +1
          calculation namespace      : C0515
          coordinate file            : C0515.xyz
          omp threads                :                     8


           -------------------------------------------------
          |                 G F N 2 - x T B                 |
           -------------------------------------------------

        Reference                      10.1021/acs.jctc.8b01176
      * Hamiltonian:
        H0-scaling (s, p, d)           1.850000    2.230000    2.230000
        zeta-weighting                 0.500000
      * Dispersion:
        s8                             2.700000
        a1                             0.520000
        a2                             5.000000
        s9                             5.000000
      * Repulsion:
        kExp                           1.500000    1.000000
        rExp                           1.000000
      * Coulomb:
        alpha                          2.000000
        third order                    shell-resolved
        anisotropic                    true
        a3                             3.000000
        a5                             4.000000
        cn-shift                       1.200000
        cn-exp                         4.000000
        max-rad                        5.000000


          ...................................................
          :                      SETUP                      :
          :.................................................:
          :  # basis functions                 106          :
          :  # atomic orbitals                 106          :
          :  # shells                           70          :
          :  # electrons                       108          :
          :  max. iterations                   250          :
          :  Hamiltonian                  GFN2-xTB          :
          :  restarted?                      false          :
          :  GBSA solvation                  false          :
          :  PC potential                    false          :
          :  electronic temp.          300.0000000     K    :
          :  accuracy                    1.0000000          :
          :  -> integral cutoff          0.2500000E+02      :
          :  -> integral neglect         0.1000000E-07      :
          :  -> SCF convergence          0.1000000E-05 Eh   :
          :  -> wf. convergence          0.1000000E-03 e    :
          :  Broyden damping             0.4000000          :
          :  net charge                          1          :
          :  unpaired electrons                  0          :
          ...................................................

 iter      E             dE          RMSdq      gap      omega  full diag
   1    -58.7812203 -0.587812E+02  0.273E+00    9.09       0.0  T
   2    -58.9577232 -0.176503E+00  0.178E+00    6.90       1.0  T
   3    -58.9612563 -0.353308E-02  0.975E-01    6.61       1.0  T
   4    -58.9619513 -0.695008E-03  0.141E-01    6.07       1.0  T
   5    -58.9621162 -0.164913E-03  0.662E-02    6.08       1.0  T
   6    -58.9621210 -0.479117E-05  0.234E-02    6.10       1.0  T
   7    -58.9621252 -0.422794E-05  0.413E-03    6.11       3.4  T
   8    -58.9621253 -0.103531E-06  0.162E-03    6.11       8.6  T
   9    -58.9621253 -0.250596E-07  0.553E-04    6.11      25.1  T
  10    -58.9621253 -0.884619E-09  0.217E-04    6.11      64.0  T

   *** convergence criteria satisfied after 10 iterations ***

         #    Occupation            Energy/Eh            Energy/eV
      -------------------------------------------------------------
         1        2.0000           -0.8538869             -23.2354
       ...           ...                  ...                  ...
        48        2.0000           -0.5339727             -14.5301
        49        2.0000           -0.5222869             -14.2122
        50        2.0000           -0.5190313             -14.1236
        51        2.0000           -0.5169910             -14.0680
        52        2.0000           -0.5030533             -13.6888
        53        2.0000           -0.5003586             -13.6155
        54        2.0000           -0.4960486             -13.4982 (HOMO)
        55                         -0.2714984              -7.3878 (LUMO)
        56                         -0.2038570              -5.5472
        57                         -0.1941002              -5.2817
        58                         -0.1800192              -4.8986
        59                         -0.1261150              -3.4318
       ...                                ...                  ...
       106                          0.2347648               6.3883
      -------------------------------------------------------------
                  HL-Gap            0.2245501 Eh            6.1103 eV
             Fermi-level           -0.3837735 Eh          -10.4430 eV

 SCC (total)                   0 d,  0 h,  0 min,  0.032 sec
 SCC setup                      ...        0 min,  0.000 sec (  0.586%)
 Dispersion                     ...        0 min,  0.001 sec (  2.050%)
 classical contributions        ...        0 min,  0.000 sec (  0.367%)
 integral evaluation            ...        0 min,  0.002 sec (  7.632%)
 iterations                     ...        0 min,  0.021 sec ( 63.245%)
 molecular gradient             ...        0 min,  0.008 sec ( 25.586%)
 printout                       ...        0 min,  0.000 sec (  0.484%)

         :::::::::::::::::::::::::::::::::::::::::::::::::::::
         ::                     SUMMARY                     ::
         :::::::::::::::::::::::::::::::::::::::::::::::::::::
         :: total energy             -58.215884225886 Eh    ::
         :: gradient norm              0.060035344218 Eh/a0 ::
         :: HOMO-LUMO gap              6.110319793668 eV    ::
         ::.................................................::
         :: SCC energy               -58.960976308710 Eh    ::
         :: -> isotropic ES            0.095032879952 Eh    ::
         :: -> anisotropic ES          0.003104695431 Eh    ::
         :: -> anisotropic XC          0.030862877980 Eh    ::
         :: -> dispersion             -0.045917484590 Eh    ::
         :: repulsion energy           0.745092082824 Eh    ::
         :: add. restraining           0.000000000000 Eh    ::
         :: total charge               1.000000000000 e     ::
         :::::::::::::::::::::::::::::::::::::::::::::::::::::

      ----------------------------------------------------------- 
     |                   =====================                   |
     |                        A N C O P T                        |
     |                   =====================                   |
     |               Approximate Normal Coordinate               |
     |                Rational Function Optimizer                |
      ----------------------------------------------------------- 
      ----------------------------------------------------------- 
     |                   =====================                   |
     |                        A N C O P T                        |
     |                   =====================                   |
     |               Approximate Normal Coordinate               |
     |                Rational Function Optimizer                |
      ----------------------------------------------------------- 

          ...................................................
          :                      SETUP                      :
          :.................................................:
          :   optimization level            normal          :
          :   max. optcycles                   200          :
          :   ANC micro-cycles                  20          :
          :   degrees of freedom               150          :
          :.................................................:
          :   RF solver                   davidson          :
          :   write xtbopt.log                true          :
          :   linear?                        false          :
          :   energy convergence         0.5000000E-05 Eh   :
          :   grad. convergence          0.1000000E-02 Eh/α :
          :   maxmium RF displ.          1.0000000          :
          :   Hlow (freq-cutoff)         0.1000000E-01      :
          :   Hmax (freq-cutoff)         5.0000000          :
          :   S6 in model hess.         20.0000000          :
          ...................................................

generating ANC from exact Hessian ...
Using Lindh-Hessian (1995)
 Shifting diagonal of input Hessian by    9.9035883471271235E-003
 Lowest  eigenvalues of input Hessian
    0.000000    0.000000    0.000000    0.000000    0.000000    0.000000
    0.010000    0.010231    0.010478    0.011045    0.011442    0.011595
    0.012266    0.012620    0.012759    0.013388    0.014562    0.015611
 Highest eigenvalues
    1.265271    1.266625    1.278591    1.288704    1.293179    1.536746


........................................................................
.............................. CYCLE    1 ..............................
........................................................................

 iter      E             dE          RMSdq      gap      omega  full diag
   1    -58.9621253 -0.589621E+02  0.632E-05    6.11       0.0  T
   2    -58.9621253 -0.247624E-10  0.362E-05    6.11     383.5  T
   3    -58.9621253 -0.259348E-11  0.160E-05    6.11     867.4  T
     SCC iter.                  ...        0 min,  0.009 sec
     gradient                   ...        0 min,  0.009 sec
 * total energy  :   -58.2158842 Eh     change       -0.2855600E-09 Eh
   gradient norm :     0.0600381 Eh/α   predicted     0.0000000E+00 (-100.00%)
   displ. norm   :     0.3023166 α      lambda       -0.1033649E-01
   maximum displ.:     0.1018126 α      in ANC's #34, #38, #39, ...

........................................................................
.............................. CYCLE    2 ..............................
........................................................................

 iter      E             dE          RMSdq      gap      omega  full diag
   1    -58.9932773 -0.589933E+02  0.152E-01    6.72       0.0  T
   2    -58.9934118 -0.134475E-03  0.897E-02    6.70       1.0  T
   3    -58.9934156 -0.376170E-05  0.320E-02    6.70       1.0  T
   4    -58.9934187 -0.311161E-05  0.439E-03    6.70       3.2  T
   5    -58.9934188 -0.107328E-06  0.254E-03    6.70       5.5  T
   6    -58.9934188 -0.205871E-07  0.534E-04    6.70      26.0  T
   7    -58.9934188 -0.174141E-08  0.256E-04    6.70      54.2  T
     SCC iter.                  ...        0 min,  0.012 sec
     gradient                   ...        0 min,  0.008 sec
 * total energy  :   -58.2228197 Eh     change       -0.6935513E-02 Eh
   gradient norm :     0.0295283 Eh/α   predicted    -0.5641108E-02 ( -18.66%)
   displ. norm   :     0.2519843 α      lambda       -0.3019109E-02
   maximum displ.:     0.1007887 α      in ANC's #11, #6, #38, ...

........................................................................
.............................. CYCLE    3 ..............................
........................................................................

 iter      E             dE          RMSdq      gap      omega  full diag
   1    -59.0097465 -0.590097E+02  0.825E-02    7.17       0.0  T
   2    -59.0098111 -0.645814E-04  0.500E-02    7.15       1.0  T
   3    -59.0098128 -0.170759E-05  0.223E-02    7.15       1.0  T
   4    -59.0098135 -0.639760E-06  0.265E-03    7.15       5.2  T
   5    -59.0098135 -0.458334E-07  0.156E-03    7.15       8.9  T
   6    -59.0098135 -0.738242E-08  0.388E-04    7.15      35.7  T
   7    -59.0098135 -0.735973E-09  0.155E-04    7.15      89.4  T
     SCC iter.                  ...        0 min,  0.012 sec
     gradient                   ...        0 min,  0.008 sec
 * total energy  :   -58.2245135 Eh     change       -0.1693802E-02 Eh
   gradient norm :     0.0082806 Eh/α   predicted    -0.1606627E-02 (  -5.15%)
   displ. norm   :     0.1406385 α      lambda       -0.3269234E-03
   maximum displ.:     0.0826585 α      in ANC's #6, #11, #3, ...

........................................................................
.............................. CYCLE    4 ..............................
........................................................................

 iter      E             dE          RMSdq      gap      omega  full diag
   1    -59.0099671 -0.590100E+02  0.245E-02    7.20       0.0  T
   2    -59.0099693 -0.219248E-05  0.145E-02    7.20       1.0  T
   3    -59.0099693 -0.532337E-07  0.390E-03    7.20       3.6  T
   4    -59.0099694 -0.866231E-07  0.716E-04    7.20      19.4  T
   5    -59.0099694 -0.449985E-08  0.304E-04    7.20      45.5  T
     SCC iter.                  ...        0 min,  0.009 sec
     gradient                   ...        0 min,  0.008 sec
 * total energy  :   -58.2247654 Eh     change       -0.2518861E-03 Eh
   gradient norm :     0.0037900 Eh/α   predicted    -0.1667220E-03 ( -33.81%)
   displ. norm   :     0.2518340 α      lambda       -0.3512184E-03
   maximum displ.:     0.1618954 α      in ANC's #6, #7, #11, ...

........................................................................
.............................. CYCLE    5 ..............................
........................................................................

 iter      E             dE          RMSdq      gap      omega  full diag
   1    -59.0085164 -0.590085E+02  0.350E-02    7.19       0.0  T
   2    -59.0085190 -0.259508E-05  0.207E-02    7.19       1.0  T
   3    -59.0085191 -0.445370E-07  0.390E-03    7.19       3.6  T
   4    -59.0085193 -0.174743E-06  0.930E-04    7.19      14.9  T
   5    -59.0085193 -0.873895E-08  0.332E-04    7.19      41.7  T
     SCC iter.                  ...        0 min,  0.009 sec
     gradient                   ...        0 min,  0.008 sec
 * total energy  :   -58.2250005 Eh     change       -0.2350739E-03 Eh
   gradient norm :     0.0041802 Eh/α   predicted    -0.1867505E-03 ( -20.56%)
   displ. norm   :     0.1757043 α      lambda       -0.1391457E-03
   maximum displ.:     0.1141658 α      in ANC's #6, #7, #3, ...

........................................................................
.............................. CYCLE    6 ..............................
........................................................................

 iter      E             dE          RMSdq      gap      omega  full diag
   1    -59.0081339 -0.590081E+02  0.207E-02    7.17       0.0  T
   2    -59.0081347 -0.822378E-06  0.123E-02    7.17       1.1  T
   3    -59.0081348 -0.136560E-07  0.213E-03    7.17       6.5  T
   4    -59.0081348 -0.292170E-07  0.382E-04    7.17      36.3  T
   5    -59.0081348 -0.140046E-08  0.152E-04    7.17      91.4  T
     SCC iter.                  ...        0 min,  0.009 sec
     gradient                   ...        0 min,  0.008 sec
 * total energy  :   -58.2251101 Eh     change       -0.1095572E-03 Eh
   gradient norm :     0.0044823 Eh/α   predicted    -0.7172117E-04 ( -34.54%)
   displ. norm   :     0.2063669 α      lambda       -0.1420410E-03
   maximum displ.:     0.1260622 α      in ANC's #6, #7, #3, ...

........................................................................
.............................. CYCLE    7 ..............................
........................................................................

 iter      E             dE          RMSdq      gap      omega  full diag
   1    -59.0084742 -0.590085E+02  0.243E-02    7.15       0.0  T
   2    -59.0084749 -0.704257E-06  0.144E-02    7.15       1.0  T
   3    -59.0084749 -0.180857E-07  0.179E-03    7.15       7.8  T
   4    -59.0084749 -0.196298E-07  0.376E-04    7.15      36.8  T
   5    -59.0084749 -0.422702E-09  0.159E-04    7.15      87.1  T
     SCC iter.                  ...        0 min,  0.009 sec
     gradient                   ...        0 min,  0.008 sec
 * total energy  :   -58.2252156 Eh     change       -0.1055130E-03 Eh
   gradient norm :     0.0031902 Eh/α   predicted    -0.7404546E-04 ( -29.82%)
   displ. norm   :     0.2012804 α      lambda       -0.9334012E-04
   maximum displ.:     0.1140442 α      in ANC's #6, #3, #4, ...

........................................................................
.............................. CYCLE    8 ..............................
........................................................................

 iter      E             dE          RMSdq      gap      omega  full diag
   1    -59.0090392 -0.590090E+02  0.239E-02    7.15       0.0  T
   2    -59.0090395 -0.294396E-06  0.141E-02    7.15       1.0  T
   3    -59.0090395 -0.133003E-07  0.110E-03    7.15      12.6  T
   4    -59.0090395 -0.213619E-07  0.373E-04    7.15      37.2  T
   5    -59.0090395 -0.374683E-09  0.146E-04    7.15      95.2  T
     SCC iter.                  ...        0 min,  0.009 sec
     gradient                   ...        0 min,  0.008 sec
 * total energy  :   -58.2252802 Eh     change       -0.6463279E-04 Eh
   gradient norm :     0.0021553 Eh/α   predicted    -0.4856247E-04 ( -24.86%)
   displ. norm   :     0.1438389 α      lambda       -0.5023247E-04
   maximum displ.:     0.0733482 α      in ANC's #4, #6, #3, ...

........................................................................
.............................. CYCLE    9 ..............................
........................................................................

 iter      E             dE          RMSdq      gap      omega  full diag
   1    -59.0095592 -0.590096E+02  0.178E-02    7.17       0.0  T
   2    -59.0095595 -0.348868E-06  0.105E-02    7.17       1.3  T
   3    -59.0095596 -0.522732E-08  0.131E-03    7.17      10.6  T
   4    -59.0095596 -0.215754E-07  0.313E-04    7.17      44.3  T
   5    -59.0095596 -0.641641E-09  0.132E-04    7.17     105.3  T
     SCC iter.                  ...        0 min,  0.009 sec
     gradient                   ...        0 min,  0.015 sec
 * total energy  :   -58.2253192 Eh     change       -0.3894683E-04 Eh
   gradient norm :     0.0016910 Eh/α   predicted    -0.2563707E-04 ( -34.17%)
   displ. norm   :     0.2275429 α      lambda       -0.5530962E-04
   maximum displ.:     0.1308954 α      in ANC's #4, #3, #6, ...

........................................................................
.............................. CYCLE   10 ..............................
........................................................................

 iter      E             dE          RMSdq      gap      omega  full diag
   1    -59.0100240 -0.590100E+02  0.298E-02    7.22       0.0  T
   2    -59.0100257 -0.172591E-05  0.175E-02    7.21       1.0  T
   3    -59.0100257 -0.253907E-07  0.315E-03    7.21       4.4  T
   4    -59.0100258 -0.655403E-07  0.562E-04    7.21      24.7  T
   5    -59.0100258 -0.262043E-08  0.240E-04    7.21      57.7  T
     SCC iter.                  ...        0 min,  0.009 sec
     gradient                   ...        0 min,  0.008 sec
 * total energy  :   -58.2253774 Eh     change       -0.5825904E-04 Eh
   gradient norm :     0.0023738 Eh/α   predicted    -0.2829269E-04 ( -51.44%)
   displ. norm   :     0.1244660 α      lambda       -0.4448667E-04
   maximum displ.:     0.0762083 α      in ANC's #4, #3, #10, ...

........................................................................
.............................. CYCLE   11 ..............................
........................................................................

 iter      E             dE          RMSdq      gap      omega  full diag
   1    -59.0098834 -0.590099E+02  0.160E-02    7.23       0.0  T
   2    -59.0098836 -0.234486E-06  0.943E-03    7.23       1.5  T
   3    -59.0098836 -0.779416E-08  0.102E-03    7.23      13.6  T
   4    -59.0098836 -0.909557E-08  0.261E-04    7.23      53.2  T
   5    -59.0098836 -0.271022E-09  0.115E-04    7.23     120.5  T
     SCC iter.                  ...        0 min,  0.010 sec
     gradient                   ...        0 min,  0.008 sec
 * total energy  :   -58.2254172 Eh     change       -0.3975038E-04 Eh
   gradient norm :     0.0024471 Eh/α   predicted    -0.2258935E-04 ( -43.17%)
   displ. norm   :     0.2558801 α      lambda       -0.9401522E-04
   maximum displ.:     0.1540971 α      in ANC's #4, #3, #10, ...

........................................................................
.............................. CYCLE   12 ..............................
........................................................................

 iter      E             dE          RMSdq      gap      omega  full diag
   1    -59.0093264 -0.590093E+02  0.326E-02    7.24       0.0  T
   2    -59.0093268 -0.398168E-06  0.193E-02    7.24       1.0  T
   3    -59.0093268 -0.355621E-07  0.121E-03    7.24      11.5  T
   4    -59.0093269 -0.173444E-07  0.483E-04    7.24      28.7  T
   5    -59.0093269 -0.510752E-09  0.189E-04    7.24      73.2  T
     SCC iter.                  ...        0 min,  0.009 sec
     gradient                   ...        0 min,  0.008 sec
 * total energy  :   -58.2254929 Eh     change       -0.7573279E-04 Eh
   gradient norm :     0.0027073 Eh/α   predicted    -0.5008802E-04 ( -33.86%)
   displ. norm   :     0.3086918 α      lambda       -0.8906447E-04
   maximum displ.:     0.1889967 α      in ANC's #4, #3, #10, ...

........................................................................
.............................. CYCLE   13 ..............................
........................................................................

 iter      E             dE          RMSdq      gap      omega  full diag
   1    -59.0081400 -0.590081E+02  0.383E-02    7.24       0.0  T
   2    -59.0081403 -0.268509E-06  0.227E-02    7.24       1.0  T
   3    -59.0081404 -0.471383E-07  0.110E-03    7.24      12.6  T
   4    -59.0081404 -0.172301E-07  0.539E-04    7.24      25.7  T
   5    -59.0081404 -0.779714E-09  0.187E-04    7.24      74.3  T
     SCC iter.                  ...        0 min,  0.009 sec
     gradient                   ...        0 min,  0.008 sec
 * total energy  :   -58.2255622 Eh     change       -0.6928918E-04 Eh
   gradient norm :     0.0032224 Eh/α   predicted    -0.4877586E-04 ( -29.61%)
   displ. norm   :     0.2803500 α      lambda       -0.7921099E-04
   maximum displ.:     0.1749405 α      in ANC's #4, #3, #1, ...

........................................................................
.............................. CYCLE   14 ..............................
........................................................................

 iter      E             dE          RMSdq      gap      omega  full diag
   1    -59.0079761 -0.590080E+02  0.341E-02    7.23       0.0  T
   2    -59.0079764 -0.299560E-06  0.202E-02    7.23       1.0  T
   3    -59.0079764 -0.265251E-07  0.111E-03    7.23      12.5  T
   4    -59.0079765 -0.228527E-07  0.459E-04    7.23      30.2  T
   5    -59.0079765 -0.778911E-09  0.175E-04    7.23      79.3  T
     SCC iter.                  ...        0 min,  0.009 sec
     gradient                   ...        0 min,  0.008 sec
 * total energy  :   -58.2256264 Eh     change       -0.6424245E-04 Eh
   gradient norm :     0.0031113 Eh/α   predicted    -0.4272341E-04 ( -33.50%)
   displ. norm   :     0.3193940 α      lambda       -0.9801204E-04
   maximum displ.:     0.2036868 α      in ANC's #4, #3, #1, ...

........................................................................
.............................. CYCLE   15 ..............................
........................................................................

 iter      E             dE          RMSdq      gap      omega  full diag
   1    -59.0083676 -0.590084E+02  0.392E-02    7.20       0.0  T
   2    -59.0083683 -0.698483E-06  0.232E-02    7.20       1.0  T
   3    -59.0083683 -0.229650E-07  0.160E-03    7.20       8.6  T
   4    -59.0083683 -0.442465E-07  0.512E-04    7.20      27.1  T
   5    -59.0083683 -0.116130E-08  0.220E-04    7.20      63.0  T
     SCC iter.                  ...        0 min,  0.009 sec
     gradient                   ...        0 min,  0.008 sec
 * total energy  :   -58.2257037 Eh     change       -0.7732190E-04 Eh
   gradient norm :     0.0028176 Eh/α   predicted    -0.5401029E-04 ( -30.15%)
   displ. norm   :     0.3440005 α      lambda       -0.9698227E-04
   maximum displ.:     0.2232140 α      in ANC's #4, #3, #1, ...

........................................................................
.............................. CYCLE   16 ..............................
........................................................................

 iter      E             dE          RMSdq      gap      omega  full diag
   1    -59.0087717 -0.590088E+02  0.423E-02    7.17       0.0  T
   2    -59.0087724 -0.667365E-06  0.251E-02    7.17       1.0  T
   3    -59.0087724 -0.319791E-07  0.152E-03    7.17       9.1  T
   4    -59.0087724 -0.395457E-07  0.531E-04    7.17      26.1  T
   5    -59.0087724 -0.757119E-09  0.219E-04    7.17      63.3  T
     SCC iter.                  ...        0 min,  0.009 sec
     gradient                   ...        0 min,  0.008 sec
 * total energy  :   -58.2257770 Eh     change       -0.7324800E-04 Eh
   gradient norm :     0.0031357 Eh/α   predicted    -0.5423117E-04 ( -25.96%)
   displ. norm   :     0.3104556 α      lambda       -0.8171640E-04
   maximum displ.:     0.2050293 α      in ANC's #4, #3, #1, ...

........................................................................
.............................. CYCLE   17 ..............................
........................................................................

 iter      E             dE          RMSdq      gap      omega  full diag
   1    -59.0097055 -0.590097E+02  0.380E-02    7.15       0.0  T
   2    -59.0097059 -0.309141E-06  0.225E-02    7.16       1.0  T
   3    -59.0097059 -0.352332E-07  0.107E-03    7.16      12.9  T
   4    -59.0097059 -0.188978E-07  0.479E-04    7.16      28.9  T
   5    -59.0097059 -0.307857E-09  0.155E-04    7.16      89.3  T
     SCC iter.                  ...        0 min,  0.009 sec
     gradient                   ...        0 min,  0.008 sec
 * total energy  :   -58.2258377 Eh     change       -0.6068133E-04 Eh
   gradient norm :     0.0033248 Eh/α   predicted    -0.4480062E-04 ( -26.17%)
   displ. norm   :     0.3365096 α      lambda       -0.7290684E-04
   maximum displ.:     0.2261739 α      in ANC's #4, #3, #1, ...

........................................................................
.............................. CYCLE   18 ..............................
........................................................................

 iter      E             dE          RMSdq      gap      omega  full diag
   1    -59.0088198 -0.590088E+02  0.421E-02    7.16       0.0  T
   2    -59.0088203 -0.493475E-06  0.250E-02    7.16       1.0  T
   3    -59.0088203 -0.469786E-07  0.130E-03    7.16      10.7  T
   4    -59.0088204 -0.251755E-07  0.554E-04    7.16      25.0  T
   5    -59.0088204 -0.728875E-09  0.216E-04    7.16      64.3  T
     SCC iter.                  ...        0 min,  0.020 sec
     gradient                   ...        0 min,  0.008 sec
 * total energy  :   -58.2258895 Eh     change       -0.5179694E-04 Eh
   gradient norm :     0.0039065 Eh/α   predicted    -0.4058201E-04 ( -21.65%)
   displ. norm   :     0.3354919 α      lambda       -0.1596845E-03
   maximum displ.:     0.2119738 α      in ANC's #4, #1, #3, ...

........................................................................
.............................. CYCLE   19 ..............................
........................................................................

 iter      E             dE          RMSdq      gap      omega  full diag
   1    -59.0140846 -0.590141E+02  0.471E-02    7.18       0.0  T
   2    -59.0140872 -0.254784E-05  0.277E-02    7.18       1.0  T
   3    -59.0140873 -0.964048E-07  0.340E-03    7.18       4.1  T
   4    -59.0140874 -0.105192E-06  0.911E-04    7.18      15.2  T
   5    -59.0140874 -0.555711E-08  0.403E-04    7.18      34.4  T
     SCC iter.                  ...        0 min,  0.009 sec
     gradient                   ...        0 min,  0.008 sec
 * total energy  :   -58.2259202 Eh     change       -0.3076428E-04 Eh
   gradient norm :     0.0052250 Eh/α   predicted    -0.8883193E-04 ( 188.75%)
   displ. norm   :     0.3109569 α      lambda       -0.1357301E-03
   maximum displ.:     0.2129523 α      in ANC's #4, #3, #1, ...

........................................................................
.............................. CYCLE   20 ..............................
........................................................................

 iter      E             dE          RMSdq      gap      omega  full diag
   1    -59.0093783 -0.590094E+02  0.434E-02    7.20       0.0  T
   2    -59.0093797 -0.143989E-05  0.254E-02    7.20       1.0  T
   3    -59.0093798 -0.898919E-07  0.236E-03    7.20       5.9  T
   4    -59.0093798 -0.370384E-07  0.765E-04    7.20      18.1  T
   5    -59.0093798 -0.110935E-08  0.372E-04    7.20      37.3  T
     SCC iter.                  ...        0 min,  0.009 sec
     gradient                   ...        0 min,  0.008 sec
 * total energy  :   -58.2259844 Eh     change       -0.6416530E-04 Eh
   gradient norm :     0.0043828 Eh/α   predicted    -0.7442997E-04 (  16.00%)
   displ. norm   :     0.1840727 α      lambda       -0.8882359E-04
   maximum displ.:     0.1090147 α      in ANC's #4, #3, #7, ...
 * RMSD in coord.:     0.4972657 α      energy gain  -0.1010018E-01 Eh

generating ANC from exact Hessian ...
Using Lindh-Hessian (1995)
 Shifting diagonal of input Hessian by    9.8915412999470258E-003
 Lowest  eigenvalues of input Hessian
    0.000000    0.000000    0.000000    0.000000    0.000000    0.000000
    0.010000    0.010243    0.010527    0.011163    0.011531    0.011758
    0.012536    0.012942    0.013257    0.013889    0.014947    0.015936
 Highest eigenvalues
    1.288958    1.310803    1.351819    1.411159    1.434177    1.670446


........................................................................
.............................. CYCLE   21 ..............................
........................................................................

 iter      E             dE          RMSdq      gap      omega  full diag
   1    -59.0091742 -0.590092E+02  0.248E-02    7.21       0.0  T
   2    -59.0091749 -0.720855E-06  0.145E-02    7.21       1.0  T
   3    -59.0091749 -0.354379E-07  0.169E-03    7.21       8.2  T
   4    -59.0091750 -0.175271E-07  0.488E-04    7.21      28.4  T
   5    -59.0091750 -0.956156E-09  0.235E-04    7.21      58.9  T
     SCC iter.                  ...        0 min,  0.012 sec
     gradient                   ...        0 min,  0.008 sec
 * total energy  :   -58.2260280 Eh     change       -0.4359732E-04 Eh
   gradient norm :     0.0023575 Eh/α   predicted     0.0000000E+00 (-100.00%)
   displ. norm   :     0.0365568 α      lambda       -0.3129635E-04
   maximum displ.:     0.0203133 α      in ANC's #7, #4, #5, ...

........................................................................
.............................. CYCLE   22 ..............................
........................................................................

 iter      E             dE          RMSdq      gap      omega  full diag
   1    -59.0099214 -0.590099E+02  0.851E-03    7.21       0.0  T
   2    -59.0099215 -0.900553E-07  0.493E-03    7.21       2.8  T
   3    -59.0099215 -0.403081E-08  0.736E-04    7.21      18.8  T
   4    -59.0099215 -0.409011E-08  0.185E-04    7.21      75.1  T
     SCC iter.                  ...        0 min,  0.007 sec
     gradient                   ...        0 min,  0.008 sec
 * total energy  :   -58.2260527 Eh     change       -0.2467391E-04 Eh
   gradient norm :     0.0009455 Eh/α   predicted    -0.1575232E-04 ( -36.16%)
   displ. norm   :     0.1570081 α      lambda       -0.5041983E-04
   maximum displ.:     0.0870759 α      in ANC's #7, #4, #5, ...

........................................................................
.............................. CYCLE   23 ..............................
........................................................................

 iter      E             dE          RMSdq      gap      omega  full diag
   1    -59.0111095 -0.590111E+02  0.243E-02    7.19       0.0  T
   2    -59.0111101 -0.565827E-06  0.143E-02    7.20       1.0  T
   3    -59.0111101 -0.227027E-07  0.166E-03    7.20       8.4  T
   4    -59.0111102 -0.257459E-07  0.445E-04    7.20      31.1  T
   5    -59.0111102 -0.120833E-08  0.181E-04    7.20      76.8  T
     SCC iter.                  ...        0 min,  0.009 sec
     gradient                   ...        0 min,  0.008 sec
 * total energy  :   -58.2260964 Eh     change       -0.4367837E-04 Eh
   gradient norm :     0.0028135 Eh/α   predicted    -0.2548839E-04 ( -41.65%)
   displ. norm   :     0.0852477 α      lambda       -0.2988563E-04
   maximum displ.:     0.0433323 α      in ANC's #4, #7, #5, ...

........................................................................
.............................. CYCLE   24 ..............................
........................................................................

 iter      E             dE          RMSdq      gap      omega  full diag
   1    -59.0108488 -0.590108E+02  0.118E-02    7.19       0.0  T
   2    -59.0108489 -0.548224E-07  0.705E-03    7.19       2.0  T
   3    -59.0108489 -0.480781E-08  0.460E-04    7.19      30.1  T
   4    -59.0108489 -0.289925E-08  0.176E-04    7.19      78.6  T
     SCC iter.                  ...        0 min,  0.007 sec
     gradient                   ...        0 min,  0.008 sec
 * total energy  :   -58.2261229 Eh     change       -0.2653446E-04 Eh
   gradient norm :     0.0024104 Eh/α   predicted    -0.1505161E-04 ( -43.28%)
   displ. norm   :     0.2405048 α      lambda       -0.7637654E-04
   maximum displ.:     0.1241036 α      in ANC's #4, #7, #18, ...

........................................................................
.............................. CYCLE   25 ..............................
........................................................................

 iter      E             dE          RMSdq      gap      omega  full diag
   1    -59.0095440 -0.590095E+02  0.330E-02    7.19       0.0  T
   2    -59.0095444 -0.353208E-06  0.197E-02    7.19       1.0  T
   3    -59.0095444 -0.331409E-07  0.127E-03    7.19      11.0  T
   4    -59.0095445 -0.258298E-07  0.505E-04    7.19      27.4  T
   5    -59.0095445 -0.882643E-09  0.198E-04    7.19      70.0  T
     SCC iter.                  ...        0 min,  0.009 sec
     gradient                   ...        0 min,  0.008 sec
 * total energy  :   -58.2261735 Eh     change       -0.5059233E-04 Eh
   gradient norm :     0.0016427 Eh/α   predicted    -0.4041789E-04 ( -20.11%)
   displ. norm   :     0.1890000 α      lambda       -0.2546862E-04
   maximum displ.:     0.1064079 α      in ANC's #4, #7, #3, ...

........................................................................
.............................. CYCLE   26 ..............................
........................................................................

 iter      E             dE          RMSdq      gap      omega  full diag
   1    -59.0091136 -0.590091E+02  0.249E-02    7.20       0.0  T
   2    -59.0091137 -0.143108E-06  0.148E-02    7.20       1.0  T
   3    -59.0091138 -0.189268E-07  0.827E-04    7.20      16.8  T
   4    -59.0091138 -0.115145E-07  0.372E-04    7.20      37.3  T
     SCC iter.                  ...        0 min,  0.007 sec
     gradient                   ...        0 min,  0.008 sec
 * total energy  :   -58.2261991 Eh     change       -0.2563547E-04 Eh
   gradient norm :     0.0020814 Eh/α   predicted    -0.1294585E-04 ( -49.50%)
   displ. norm   :     0.0789659 α      lambda       -0.2589688E-04
   maximum displ.:     0.0468989 α      in ANC's #4, #3, #8, ...

........................................................................
.............................. CYCLE   27 ..............................
........................................................................

 iter      E             dE          RMSdq      gap      omega  full diag
   1    -59.0099591 -0.590100E+02  0.106E-02    7.20       0.0  T
   2    -59.0099592 -0.910068E-07  0.627E-03    7.20       2.2  T
   3    -59.0099592 -0.448446E-08  0.622E-04    7.20      22.3  T
   4    -59.0099592 -0.456153E-08  0.200E-04    7.20      69.5  T
     SCC iter.                  ...        0 min,  0.007 sec
     gradient                   ...        0 min,  0.008 sec
 * total energy  :   -58.2262202 Eh     change       -0.2108115E-04 Eh
   gradient norm :     0.0015311 Eh/α   predicted    -0.1302956E-04 ( -38.19%)
   displ. norm   :     0.2496274 α      lambda       -0.3749333E-04
   maximum displ.:     0.1511038 α      in ANC's #4, #3, #8, ...

........................................................................
.............................. CYCLE   28 ..............................
........................................................................

 iter      E             dE          RMSdq      gap      omega  full diag
   1    -59.0103380 -0.590103E+02  0.339E-02    7.20       0.0  T
   2    -59.0103384 -0.319381E-06  0.201E-02    7.20       1.0  T
   3    -59.0103384 -0.403886E-07  0.117E-03    7.20      11.8  T
   4    -59.0103384 -0.215314E-07  0.519E-04    7.20      26.7  T
   5    -59.0103384 -0.104590E-08  0.194E-04    7.20      71.4  T
     SCC iter.                  ...        0 min,  0.009 sec
     gradient                   ...        0 min,  0.008 sec
 * total energy  :   -58.2262510 Eh     change       -0.3078599E-04 Eh
   gradient norm :     0.0013494 Eh/α   predicted    -0.1927698E-04 ( -37.38%)
   displ. norm   :     0.0598712 α      lambda       -0.7893870E-05
   maximum displ.:     0.0400560 α      in ANC's #4, #3, #1, ...

........................................................................
.............................. CYCLE   29 ..............................
........................................................................

 iter      E             dE          RMSdq      gap      omega  full diag
   1    -59.0105588 -0.590106E+02  0.801E-03    7.20       0.0  T
   2    -59.0105588 -0.510401E-07  0.473E-03    7.20       2.9  T
   3    -59.0105588 -0.966438E-09  0.466E-04    7.20      29.7  T
   4    -59.0105588 -0.304500E-08  0.131E-04    7.20     106.2  T
     SCC iter.                  ...        0 min,  0.007 sec
     gradient                   ...        0 min,  0.008 sec
 * total energy  :   -58.2262604 Eh     change       -0.9370303E-05 Eh
   gradient norm :     0.0007888 Eh/α   predicted    -0.3953507E-05 ( -57.81%)
   displ. norm   :     0.1000359 α      lambda       -0.1204268E-04
   maximum displ.:     0.0648369 α      in ANC's #4, #3, #1, ...

........................................................................
.............................. CYCLE   30 ..............................
........................................................................

 iter      E             dE          RMSdq      gap      omega  full diag
   1    -59.0105346 -0.590105E+02  0.133E-02    7.19       0.0  T
   2    -59.0105348 -0.164506E-06  0.785E-03    7.19       1.8  T
   3    -59.0105348  0.117260E-08  0.891E-04    7.19      15.6  T
   4    -59.0105348 -0.135807E-07  0.218E-04    7.19      63.5  T
     SCC iter.                  ...        0 min,  0.007 sec
     gradient                   ...        0 min,  0.008 sec
 * total energy  :   -58.2262743 Eh     change       -0.1398511E-04 Eh
   gradient norm :     0.0007817 Eh/α   predicted    -0.6050674E-05 ( -56.73%)
   displ. norm   :     0.1181173 α      lambda       -0.1086104E-04
   maximum displ.:     0.0744335 α      in ANC's #4, #3, #1, ...

........................................................................
.............................. CYCLE   31 ..............................
........................................................................

 iter      E             dE          RMSdq      gap      omega  full diag
   1    -59.0106250 -0.590106E+02  0.144E-02    7.18       0.0  T
   2    -59.0106251 -0.107603E-06  0.852E-03    7.18       1.6  T
   3    -59.0106251  0.301384E-09  0.702E-04    7.18      19.8  T
   4    -59.0106252 -0.111910E-07  0.207E-04    7.18      67.0  T
     SCC iter.                  ...        0 min,  0.007 sec
     gradient                   ...        0 min,  0.008 sec
 * total energy  :   -58.2262872 Eh     change       -0.1291051E-04 Eh
   gradient norm :     0.0009913 Eh/α   predicted    -0.5468233E-05 ( -57.65%)
   displ. norm   :     0.1290564 α      lambda       -0.9661791E-05
   maximum displ.:     0.0814736 α      in ANC's #4, #3, #1, ...

........................................................................
.............................. CYCLE   32 ..............................
........................................................................

 iter      E             dE          RMSdq      gap      omega  full diag
   1    -59.0103645 -0.590104E+02  0.161E-02    7.18       0.0  T
   2    -59.0103645 -0.412021E-07  0.951E-03    7.18       1.5  T
   3    -59.0103645 -0.500287E-08  0.474E-04    7.18      29.2  T
   4    -59.0103645 -0.502818E-08  0.208E-04    7.18      66.7  T
     SCC iter.                  ...        0 min,  0.007 sec
     gradient                   ...        0 min,  0.008 sec
 * total energy  :   -58.2262985 Eh     change       -0.1129914E-04 Eh
   gradient norm :     0.0009343 Eh/α   predicted    -0.4867660E-05 ( -56.92%)
   displ. norm   :     0.1506803 α      lambda       -0.9008953E-05
   maximum displ.:     0.0946063 α      in ANC's #4, #3, #1, ...

........................................................................
.............................. CYCLE   33 ..............................
........................................................................

 iter      E             dE          RMSdq      gap      omega  full diag
   1    -59.0102913 -0.590103E+02  0.182E-02    7.19       0.0  T
   2    -59.0102913 -0.472457E-07  0.108E-02    7.19       1.3  T
   3    -59.0102913 -0.844895E-08  0.487E-04    7.19      28.5  T
   4    -59.0102913 -0.429194E-08  0.233E-04    7.19      59.5  T
     SCC iter.                  ...        0 min,  0.007 sec
     gradient                   ...        0 min,  0.008 sec
 * total energy  :   -58.2263077 Eh     change       -0.9160008E-05 Eh
   gradient norm :     0.0007590 Eh/α   predicted    -0.4553927E-05 ( -50.28%)
   displ. norm   :     0.1506803 α      lambda        0.0000000E+00
   maximum displ.:     0.0946063 α      in ANC's #4, #3, #1, ...

........................................................................
.............................. CYCLE   34 ..............................
........................................................................

 iter      E             dE          RMSdq      gap      omega  full diag
   1    -59.0099496 -0.590099E+02  0.182E-02    7.19       0.0  T
   2    -59.0099497 -0.501098E-07  0.108E-02    7.19       1.3  T
   3    -59.0099497 -0.900592E-08  0.498E-04    7.19      27.8  T
   4    -59.0099497 -0.432961E-08  0.240E-04    7.19      57.8  T
     SCC iter.                  ...        0 min,  0.007 sec
     gradient                   ...        0 min,  0.008 sec
 * total energy  :   -58.2263072 Eh     change        0.4798565E-06 Eh
   gradient norm :     0.0012872 Eh/α   predicted     0.4715497E-08 ( -99.02%)
   displ. norm   :     0.0553790 α      lambda       -0.5644487E-05
   maximum displ.:     0.0324513 α      in ANC's #4, #3, #15, ...

........................................................................
.............................. CYCLE   35 ..............................
........................................................................

 iter      E             dE          RMSdq      gap      omega  full diag
   1    -59.0103816 -0.590104E+02  0.736E-03    7.19       0.0  T
   2    -59.0103816 -0.267270E-07  0.434E-03    7.19       3.2  T
   3    -59.0103816 -0.181103E-08  0.354E-04    7.19      39.2  T
   4    -59.0103816 -0.210652E-08  0.132E-04    7.19     105.4  T
     SCC iter.                  ...        0 min,  0.007 sec
     gradient                   ...        0 min,  0.008 sec
 * total energy  :   -58.2263126 Eh     change       -0.5357301E-05 Eh
   gradient norm :     0.0005169 Eh/α   predicted    -0.2827023E-05 ( -47.23%)
   displ. norm   :     0.0317377 α      lambda       -0.3578924E-05
   maximum displ.:     0.0168334 α      in ANC's #5, #18, #15, ...

........................................................................
.............................. CYCLE   36 ..............................
........................................................................

 iter      E             dE          RMSdq      gap      omega  full diag
   1    -59.0104881 -0.590105E+02  0.421E-03    7.19       0.0  T
   2    -59.0104881 -0.150085E-07  0.251E-03    7.19       5.5  T
   3    -59.0104881 -0.251902E-09  0.260E-04    7.19      53.3  T
   4    -59.0104881 -0.114389E-08  0.733E-05    7.19     189.1  T
     SCC iter.                  ...        0 min,  0.007 sec
     gradient                   ...        0 min,  0.008 sec
 * total energy  :   -58.2263166 Eh     change       -0.4050026E-05 Eh
   gradient norm :     0.0004658 Eh/α   predicted    -0.1792654E-05 ( -55.74%)
   displ. norm   :     0.0890726 α      lambda       -0.5374215E-05
   maximum displ.:     0.0489675 α      in ANC's #4, #3, #1, ...

   *** GEOMETRY OPTIMIZATION CONVERGED AFTER 36 ITERATIONS ***

------------------------------------------------------------------------
 total energy gain   :        -0.0104324 Eh       -6.5464 kcal/mol
 total RMSD          :         0.6291793 a0        0.3329 Å
 total power (kW/mol):        -0.7608412 (step)  -31.0814 (real)
------------------------------------------------------------------------

 ANCopt (total)                0 d,  0 h,  0 min,  0.881 sec
 optimizer setup                ...        0 min,  0.000 sec (  0.016%)
 model hessian                  ...        0 min,  0.158 sec ( 17.925%)
 ANC generation                 ...        0 min,  0.003 sec (  0.351%)
 coordinate transformation      ...        0 min,  0.001 sec (  0.082%)
 single point calculation       ...        0 min,  0.709 sec ( 80.430%)
 optimization log               ...        0 min,  0.005 sec (  0.540%)
 hessian update                 ...        0 min,  0.001 sec (  0.098%)
 rational function              ...        0 min,  0.003 sec (  0.389%)

================
 final structure:
================
52
 xtb: 6.7.1 (edcfbbe)
C           -4.74642079090310        3.79900426959313        0.01018922422791
C           -3.32264686802142        4.14288888173818        0.41668660397233
N           -2.92112076549351        3.71643376572998        1.79245762145278
C           -2.97119927965421        2.19934046857419        1.87422026037011
O           -2.18606878683457        1.66416738521884        0.89052917186695
C           -1.13883722889494        0.74364821633645        1.28681489407920
C           -1.72160468448226       -0.59585632518589        1.73604274648078
C           -2.27392312740819       -1.45795192532768        0.59815059799145
C           -3.56671456611180       -0.89760509148681        0.00901555521805
C           -1.18136618766163       -1.64105988294682       -0.45431895391427
C           -0.65249609749066       -0.31036956366777       -0.98192713149003
C           -0.17169901705651        0.67852590806431        0.09048429437145
C            1.30812377571440        0.53626493245313        0.52135223946059
C            1.75232621203254       -0.87028928353479        0.90824822072577
C            2.22777489455631        1.06485431361070       -0.58078389971213
C           -1.50666737089208        4.13085271467549        2.05059833410027
C           -1.24360215523779        5.62709260849739        2.08415689175261
C           -3.81930416201387        4.27880874569144        2.81255496206339
H           -4.91283516531478        2.72745673559673       -0.04105103161241
H           -4.90540657609339        4.19655317891117       -0.98924478923438
H           -5.48805795386821        4.25198933665112        0.66137696112838
H           -2.62942106881750        3.65720355556492       -0.27221928523147
H           -3.18991256389107        5.22282153638867        0.35924937273904
H           -2.64512599730893        1.91267114671180        2.88267489619570
H           -4.02192341589301        1.91242860036452        1.74305466329257
H           -0.61337846498436        1.19350206521509        2.14508908413984
H           -2.50676380305277       -0.41473048506699        2.47605832036118
H           -0.92602776249530       -1.14667474017395        2.23836585053122
H           -2.50736901893894       -2.44142748038159        1.02093474121625
H           -4.32990561248378       -0.81781127092803        0.78155930950035
H           -3.40932775256237        0.08240567396266       -0.43052678441623
H           -3.93927464075530       -1.56563966502844       -0.76311669807603
H           -0.37278395651377       -2.22385915501075       -0.01616387173893
H           -1.57895221821637       -2.21273000110450       -1.29444563553339
H           -1.44773902285262        0.17297118263609       -1.55152125386577
H            0.16474734039290       -0.50218802051848       -1.67653428459423
H           -0.23258296325148        1.67584146614984       -0.36585837065317
H            1.44587967591680        1.18270758667238        1.39850896540510
H            1.72944670918748       -1.53403102802676        0.04921140548119
H            2.77699716640334       -0.83378751709263        1.27159797508601
H            1.13455250661599       -1.28667461956737        1.69845305974742
H            1.97920744550936        2.09081449735783       -0.84501065864428
H            3.26083693013242        1.04232800147768       -0.24390780458959
H            2.15476728309988        0.45357761537176       -1.47618920729810
H           -1.22098539622206        3.70383112227800        3.01517700802136
H           -0.89447333029492        3.66677118532978        1.27450993751341
H           -1.80783744457621        6.12751368015335        2.86557448448808
H           -0.18815440249121        5.76933000108445        2.30347901668718
H           -1.44103046968610        6.11045166528749        1.13232184281021
H           -3.95061769907361        5.34573883324866        2.64744555379951
H           -4.79269620089992        3.79568106098184        2.76743546901038
H           -3.40123595087261        4.12052411747022        3.80528012531329

 Bond Distances (Angstroems)
 ---------------------------
C1-C2=1.5201         C1-H19=1.0856        C1-H20=1.0873        C1-H21=1.0859        C2-C1=1.5201         C2-N3=1.4953         
C2-H22=1.0913        C2-H23=1.0896        N3-C2=1.4953         N3-C4=1.5201         N3-C16=1.4963        N3-C18=1.4709        
C4-N3=1.5201         C4-O5=1.3677         C4-H24=1.0979        C4-H25=1.0971        O5-C4=1.3677         O5-C6=1.4495         
C6-O5=1.4495         C6-C7=1.5283         C6-C12=1.5397        C6-H26=1.1023        C7-C6=1.5283         C7-C8=1.5307         
C7-H27=1.0940        C7-H28=1.0903        C8-C7=1.5307         C8-C9=1.5272         C8-C10=1.5280        C8-H29=1.0957        
C9-C8=1.5272         C9-H30=1.0889        C9-H31=1.0855        C9-H32=1.0869        C10-C8=1.5280        C10-C11=1.5260       
C10-H33=1.0888       C10-H34=1.0912       C11-C10=1.5260       C11-C12=1.5360       C11-H35=1.0911       C11-H36=1.0896       
C12-C6=1.5397        C12-C11=1.5360       C12-C13=1.5478       C12-H37=1.0985       C13-C12=1.5478       C13-C14=1.5249       
C13-C15=1.5297       C13-H38=1.0983       C14-C13=1.5249       C14-H39=1.0858       C14-H40=1.0878       C14-H41=1.0860       
C15-C13=1.5297       C15-H42=1.0882       C15-H43=1.0868       C15-H44=1.0866       C16-N3=1.4963        C16-C17=1.5196       
C16-H45=1.0929       C16-H46=1.0920       C17-C16=1.5196       C17-H47=1.0860       C17-H48=1.0873       C17-H49=1.0856       
C18-N3=1.4709        C18-H50=1.0876       C18-H51=1.0876       C18-H52=1.0887       H19-C1=1.0856        H20-C1=1.0873        
H21-C1=1.0859        H22-C2=1.0913        H23-C2=1.0896        H24-C4=1.0979        H25-C4=1.0971        H26-C6=1.1023        
H27-C7=1.0940        H28-C7=1.0903        H29-C8=1.0957        H30-C9=1.0889        H31-C9=1.0855        H32-C9=1.0869        
H33-C10=1.0888       H34-C10=1.0912       H35-C11=1.0911       H36-C11=1.0896       H37-C12=1.0985       H38-C13=1.0983       
H39-C14=1.0858       H40-C14=1.0878       H41-C14=1.0860       H42-C15=1.0882       H43-C15=1.0868       H44-C15=1.0866       
H45-C16=1.0929       H46-C16=1.0920       H47-C17=1.0860       H48-C17=1.0873       H49-C17=1.0856       H50-C18=1.0876       
H51-C18=1.0876       H52-C18=1.0887       
 C  H  Rav=1.0901 sigma=0.0044  Rmin=1.0855  Rmax=1.1023    34
 C  C  Rav=1.5298 sigma=0.0077  Rmin=1.5196  Rmax=1.5478    12
 N  C  Rav=1.4957 sigma=0.0174  Rmin=1.4709  Rmax=1.5201     4
 O  C  Rav=1.4086 sigma=0.0409  Rmin=1.3677  Rmax=1.4495     2

 selected bond angles (degree)
 --------------------
H19-C1-C2=112.30               H20-C1-C2=107.46               H20-C1-H19=107.16              H21-C1-C2=112.64               
H21-C1-H19=109.59              H21-C1-H20=107.39              N3-C2-C1=115.66                H22-C2-C1=108.99               
H22-C2-N3=106.46               H23-C2-C1=108.92               H23-C2-N3=107.37               H23-C2-H22=109.30              
C4-N3-C2=108.98                C16-N3-C2=109.49               C16-N3-C4=107.35               C18-N3-C2=111.41               
C18-N3-C4=108.91               C18-N3-C16=110.59              O5-C4-N3=109.45                H24-C4-N3=107.47               
H24-C4-O5=112.83               H25-C4-N3=106.63               H25-C4-O5=111.19               H25-C4-H24=109.02              
C6-O5-C4=117.81                C7-C6-O5=111.19                C12-C6-O5=105.56               C12-C6-C7=115.52               
H26-C6-O5=107.34               H26-C6-C7=108.09               H26-C6-C12=108.83              C8-C7-C6=114.38                
H27-C7-C6=109.11               H27-C7-C8=109.70               H28-C7-C6=107.46               H28-C7-C8=108.74               
H28-C7-H27=107.20              C9-C8-C7=112.68                C10-C8-C7=108.75               C10-C8-C9=112.55               
H29-C8-C7=107.19               H29-C8-C9=107.33               H29-C8-C10=108.09              H30-C9-C8=110.27               
H31-C9-C8=111.39               H31-C9-H30=108.83              H32-C9-C8=109.80               H32-C9-H30=107.99              
H32-C9-H31=108.48              C11-C10-C8=112.42              H33-C10-C8=108.54              H33-C10-C11=110.40             
H34-C10-C8=109.42              H34-C10-C11=108.48             H34-C10-H33=107.46             

 selected dihedral angles (degree)
 ---------------------------------
N3-C2-C1-H19=295.67           N3-C2-C1-H20=178.06           N3-C2-C1-H21= 59.99           H22-C2-C1-H19= 55.52          
H22-C2-C1-H20=297.92          H22-C2-C1-H21=179.84          H23-C2-C1-H19=174.69          H23-C2-C1-H20= 57.09          
H23-C2-C1-H21=299.01          C4-N3-C2-C1= 63.29            C4-N3-C2-H22=302.06           C4-N3-C2-H23=185.10           
C16-N3-C2-C1=180.44           C16-N3-C2-H22= 59.21          C16-N3-C2-H23=302.25          C18-N3-C2-C1=303.09           
C18-N3-C2-H22=181.86          C18-N3-C2-H23= 64.90          O5-C4-N3-C2= 55.56            O5-C4-N3-C16=297.06           
O5-C4-N3-C18=177.29           H24-C4-N3-C2=178.41           H24-C4-N3-C16= 59.91          H24-C4-N3-C18=300.14          
H25-C4-N3-C2=295.19           H25-C4-N3-C16=176.70          H25-C4-N3-C18= 56.93          C6-O5-C4-N3=124.25            
C6-O5-C4-H24=  4.64           C6-O5-C4-H25=241.78           C7-C6-O5-C4= 71.91            C12-C6-O5-C4=197.90           
H26-C6-O5-C4=313.88           C8-C7-C6-O5= 72.50            C8-C7-C6-C12=312.24           C8-C7-C6-H26=190.08           
H27-C7-C6-O5=309.22           H27-C7-C6-C12=188.96          H27-C7-C6-H26= 66.80          H28-C7-C6-O5=193.31           
H28-C7-C6-C12= 73.05          H28-C7-C6-H26=310.89          C9-C8-C7-C6=288.83            C9-C8-C7-H27= 51.79           
C9-C8-C7-H28=168.74           C10-C8-C7-C6= 54.34           C10-C8-C7-H27=177.30          C10-C8-C7-H28=294.25          
H29-C8-C7-C6=170.98           H29-C8-C7-H27=293.94          H29-C8-C7-H28= 50.88          H30-C9-C8-C7=301.28           
H30-C9-C8-C10=177.85          H30-C9-C8-H29= 59.05          H31-C9-C8-C7= 62.22           H31-C9-C8-C10=298.80          
H31-C9-C8-H29=179.99          H32-C9-C8-C7=182.41           H32-C9-C8-C10= 58.98          H32-C9-C8-H29=300.18          
C11-C10-C8-C7=303.39          C11-C10-C8-C9= 68.98          C11-C10-C8-H29=187.34         H33-C10-C8-C7= 65.81          
H33-C10-C8-C9=191.39          H33-C10-C8-H29=309.75         H34-C10-C8-C7=182.80          H34-C10-C8-C9=308.38          
H34-C10-C8-H29= 66.74         
           -------------------------------------------------
          |                Final Singlepoint                |
           -------------------------------------------------

          ...................................................
          :                      SETUP                      :
          :.................................................:
          :  # basis functions                 106          :
          :  # atomic orbitals                 106          :
          :  # shells                           70          :
          :  # electrons                       108          :
          :  max. iterations                   250          :
          :  Hamiltonian                  GFN2-xTB          :
          :  restarted?                      false          :
          :  GBSA solvation                  false          :
          :  PC potential                    false          :
          :  electronic temp.          300.0000000     K    :
          :  accuracy                    1.0000000          :
          :  -> integral cutoff          0.2500000E+02      :
          :  -> integral neglect         0.1000000E-07      :
          :  -> SCF convergence          0.1000000E-05 Eh   :
          :  -> wf. convergence          0.1000000E-03 e    :
          :  Broyden damping             0.4000000          :
          :  net charge                          1          :
          :  unpaired electrons                  0          :
          ...................................................

 iter      E             dE          RMSdq      gap      omega  full diag
   1    -59.0104881 -0.590105E+02  0.308E-05    7.19       0.0  T
   2    -59.0104881 -0.200373E-11  0.177E-05    7.19     783.5  T
   3    -59.0104881 -0.341061E-12  0.488E-06    7.19    2840.2  T

   *** convergence criteria satisfied after 3 iterations ***

         #    Occupation            Energy/Eh            Energy/eV
      -------------------------------------------------------------
         1        2.0000           -0.8640403             -23.5117
       ...           ...                  ...                  ...
        48        2.0000           -0.5343305             -14.5399
        49        2.0000           -0.5263406             -14.3225
        50        2.0000           -0.5214617             -14.1897
        51        2.0000           -0.5191727             -14.1274
        52        2.0000           -0.5058408             -13.7646
        53        2.0000           -0.5033982             -13.6982
        54        2.0000           -0.4996479             -13.5961 (HOMO)
        55                         -0.2352735              -6.4021 (LUMO)
        56                         -0.1817596              -4.9459
        57                         -0.1540125              -4.1909
        58                         -0.1447246              -3.9382
        59                         -0.1201574              -3.2696
       ...                                ...                  ...
       106                          0.2393142               6.5121
      -------------------------------------------------------------
                  HL-Gap            0.2643744 Eh            7.1940 eV
             Fermi-level           -0.3674607 Eh           -9.9991 eV

 SCC (total)                   0 d,  0 h,  0 min,  0.017 sec
 SCC setup                      ...        0 min,  0.000 sec (  1.283%)
 Dispersion                     ...        0 min,  0.000 sec (  1.809%)
 classical contributions        ...        0 min,  0.000 sec (  1.150%)
 integral evaluation            ...        0 min,  0.002 sec ( 11.153%)
 iterations                     ...        0 min,  0.005 sec ( 31.383%)
 molecular gradient             ...        0 min,  0.009 sec ( 52.427%)
 printout                       ...        0 min,  0.000 sec (  0.695%)

         :::::::::::::::::::::::::::::::::::::::::::::::::::::
         ::                     SUMMARY                     ::
         :::::::::::::::::::::::::::::::::::::::::::::::::::::
         :: total energy             -58.226316634169 Eh    ::
         :: gradient norm              0.000465530887 Eh/a0 ::
         :: HOMO-LUMO gap              7.193992593979 eV    ::
         ::.................................................::
         :: SCC energy               -59.009324209043 Eh    ::
         :: -> isotropic ES            0.094514241965 Eh    ::
         :: -> anisotropic ES          0.002239942398 Eh    ::
         :: -> anisotropic XC          0.029329951747 Eh    ::
         :: -> dispersion             -0.046594612093 Eh    ::
         :: repulsion energy           0.783007574874 Eh    ::
         :: add. restraining           0.000000000000 Eh    ::
         :: total charge               1.000000000000 e     ::
         :::::::::::::::::::::::::::::::::::::::::::::::::::::

           -------------------------------------------------
          |                Property Printout                |
           -------------------------------------------------

    * Orbital Energies and Occupations

         #    Occupation            Energy/Eh            Energy/eV
      -------------------------------------------------------------
         1        2.0000           -0.8640403             -23.5117
       ...           ...                  ...                  ...
        42        2.0000           -0.5665323             -15.4161
        43        2.0000           -0.5606858             -15.2570
        44        2.0000           -0.5512260             -14.9996
        45        2.0000           -0.5501076             -14.9692
        46        2.0000           -0.5427699             -14.7695
        47        2.0000           -0.5398824             -14.6909
        48        2.0000           -0.5343305             -14.5399
        49        2.0000           -0.5263406             -14.3225
        50        2.0000           -0.5214617             -14.1897
        51        2.0000           -0.5191727             -14.1274
        52        2.0000           -0.5058408             -13.7646
        53        2.0000           -0.5033982             -13.6982
        54        2.0000           -0.4996479             -13.5961 (HOMO)
        55                         -0.2352735              -6.4021 (LUMO)
        56                         -0.1817596              -4.9459
        57                         -0.1540125              -4.1909
        58                         -0.1447246              -3.9382
        59                         -0.1201574              -3.2696
        60                         -0.0649628              -1.7677
        61                         -0.0553388              -1.5058
        62                         -0.0453475              -1.2340
        63                         -0.0391592              -1.0656
        64                         -0.0294009              -0.8000
        65                         -0.0253644              -0.6902
       ...                                ...                  ...
       106                          0.2393142               6.5121
      -------------------------------------------------------------
                  HL-Gap            0.2643744 Eh            7.1940 eV
             Fermi-level           -0.3674607 Eh           -9.9991 eV

     #   Z          covCN         q      C6AA      α(0)
     1   6 C        3.751    -0.129    23.050     6.847
     2   6 C        3.754    -0.031    21.180     6.562
     3   7 N        3.617     0.094    19.610     6.577
     4   6 C        3.645     0.123    18.897     6.248
     5   8 O        1.699    -0.302    19.024     5.889
     6   6 C        3.735     0.109    18.870     6.199
     7   6 C        3.806    -0.068    21.795     6.646
     8   6 C        3.851    -0.013    20.766     6.481
     9   6 C        3.753    -0.109    22.652     6.787
    10   6 C        3.807    -0.069    21.811     6.648
    11   6 C        3.803    -0.061    21.679     6.629
    12   6 C        3.850    -0.028    21.039     6.524
    13   6 C        3.848    -0.014    20.784     6.485
    14   6 C        3.755    -0.111    22.675     6.790
    15   6 C        3.757    -0.112    22.693     6.792
    16   6 C        3.758    -0.026    21.092     6.548
    17   6 C        3.751    -0.130    23.054     6.848
    18   6 C        3.709    -0.092    22.394     6.763
    19   1 H        0.925     0.069     2.098     2.265
    20   1 H        0.925     0.085     1.924     2.169
    21   1 H        0.925     0.064     2.150     2.293
    22   1 H        0.924     0.100     1.788     2.091
    23   1 H        0.925     0.086     1.922     2.168
    24   1 H        0.923     0.060     2.198     2.319
    25   1 H        0.924     0.079     1.991     2.207
    26   1 H        0.923     0.012     2.859     2.644
    27   1 H        0.924     0.027     2.631     2.537
    28   1 H        0.924     0.051     2.304     2.374
    29   1 H        0.924     0.039     2.463     2.454
    30   1 H        0.925     0.026     2.650     2.546
    31   1 H        0.925     0.043     2.409     2.427
    32   1 H        0.925     0.046     2.374     2.410
    33   1 H        0.925     0.047     2.357     2.401
    34   1 H        0.924     0.045     2.380     2.413
    35   1 H        0.924     0.042     2.426     2.436
    36   1 H        0.925     0.050     2.319     2.382
    37   1 H        0.923     0.039     2.463     2.454
    38   1 H        0.923     0.020     2.729     2.584
    39   1 H        0.925     0.050     2.314     2.379
    40   1 H        0.925     0.047     2.358     2.401
    41   1 H        0.925     0.034     2.529     2.487
    42   1 H        0.925     0.031     2.576     2.510
    43   1 H        0.925     0.049     2.330     2.387
    44   1 H        0.925     0.046     2.368     2.407
    45   1 H        0.924     0.075     2.027     2.226
    46   1 H        0.924     0.094     1.845     2.124
    47   1 H        0.925     0.068     2.113     2.273
    48   1 H        0.925     0.086     1.920     2.167
    49   1 H        0.925     0.066     2.130     2.282
    50   1 H        0.925     0.104     1.744     2.065
    51   1 H        0.925     0.096     1.826     2.113
    52   1 H        0.925     0.092     1.857     2.131

 Mol. C6AA /au·bohr⁶  :      17853.654052
 Mol. C8AA /au·bohr⁸  :     378648.141858
 Mol. α(0) /au        :        197.786975


Wiberg/Mayer (AO) data.
largest (>0.10) Wiberg bond orders for each atom

 ---------------------------------------------------------------------------
     #   Z sym  total        # sym  WBO       # sym  WBO       # sym  WBO
 ---------------------------------------------------------------------------
     1   6 C    3.982 --     2 C    1.023    21 H    0.981    19 H    0.979
                            20 H    0.973
     2   6 C    3.927 --     1 C    1.023    22 H    0.964    23 H    0.963
                             3 N    0.923
     3   7 N    3.793 --    18 C    0.965    16 C    0.926     2 C    0.923
                             4 C    0.891
     4   6 C    3.934 --     5 O    1.063    24 H    0.957    25 H    0.950
                             3 N    0.891
     5   8 O    2.117 --     4 C    1.063     6 C    0.905
     6   6 C    3.913 --     7 C    0.996    12 C    0.978    26 H    0.959
                             5 O    0.905
     7   6 C    3.994 --     6 C    0.996     8 C    0.995    27 H    0.971
                            28 H    0.965
     8   6 C    3.994 --     9 C    1.010    10 C    0.997     7 C    0.995
                            29 H    0.967
     9   6 C    3.996 --     8 C    1.010    30 H    0.987    32 H    0.985
                            31 H    0.982
    10   6 C    3.996 --    11 C    1.010     8 C    0.997    34 H    0.974
                            33 H    0.972
    11   6 C    3.995 --    10 C    1.010    12 C    0.995    35 H    0.975
                            36 H    0.970
    12   6 C    3.987 --    11 C    0.995    13 C    0.978     6 C    0.978
                            37 H    0.961
    13   6 C    3.994 --    14 C    1.011    15 C    1.008    12 C    0.978
                            38 H    0.966
    14   6 C    3.994 --    13 C    1.011    40 H    0.984    39 H    0.982
                            41 H    0.980
    15   6 C    3.994 --    13 C    1.008    42 H    0.986    43 H    0.985
                            44 H    0.983
    16   6 C    3.932 --    17 C    1.023    45 H    0.968    46 H    0.964
                             3 N    0.926
    17   6 C    3.982 --    16 C    1.023    47 H    0.981    49 H    0.979
                            48 H    0.972
    18   6 C    3.931 --    52 H    0.976    51 H    0.972    50 H    0.972
                             3 N    0.965
    19   1 H    0.995 --     1 C    0.979
    20   1 H    0.992 --     1 C    0.973
    21   1 H    0.996 --     1 C    0.981
    22   1 H    0.990 --     2 C    0.964
    23   1 H    0.993 --     2 C    0.963
    24   1 H    0.996 --     4 C    0.957
    25   1 H    0.993 --     4 C    0.950
    26   1 H    1.000 --     6 C    0.959
    27   1 H    0.999 --     7 C    0.971
    28   1 H    0.997 --     7 C    0.965
    29   1 H    0.998 --     8 C    0.967
    30   1 H    0.999 --     9 C    0.987
    31   1 H    0.998 --     9 C    0.982
    32   1 H    0.998 --     9 C    0.985
    33   1 H    0.998 --    10 C    0.972
    34   1 H    0.998 --    10 C    0.974
    35   1 H    0.998 --    11 C    0.975
    36   1 H    0.997 --    11 C    0.970
    37   1 H    0.998 --    12 C    0.961
    38   1 H    1.000 --    13 C    0.966
    39   1 H    0.997 --    14 C    0.982
    40   1 H    0.998 --    14 C    0.984
    41   1 H    0.999 --    14 C    0.980
    42   1 H    0.999 --    15 C    0.986
    43   1 H    0.997 --    15 C    0.985
    44   1 H    0.998 --    15 C    0.983
    45   1 H    0.994 --    16 C    0.968
    46   1 H    0.991 --    16 C    0.964
    47   1 H    0.995 --    17 C    0.981
    48   1 H    0.992 --    17 C    0.972
    49   1 H    0.996 --    17 C    0.979
    50   1 H    0.989 --    18 C    0.972
    51   1 H    0.991 --    18 C    0.972
    52   1 H    0.991 --    18 C    0.976
 ---------------------------------------------------------------------------

Topologies differ in total number of bonds
Writing topology from bond orders to xtbtopo.mol

molecular dipole:
                 x           y           z       tot (Debye)
 q only:       -4.822       6.285       3.028
   full:       -4.871       6.334       3.374      22.045
molecular quadrupole (traceless):
                xx          xy          yy          xz          yz          zz
 q only:       -0.202     -53.923      29.947     -24.249      33.598     -29.746
  q+dip:       -1.383     -53.589      28.179     -25.757      34.826     -26.796
   full:       -1.002     -53.755      28.252     -26.056      34.769     -27.250

           -------------------------------------------------
          |                Geometry Summary                 |
           -------------------------------------------------

      molecular mass/u    :      256.4478680
   center of mass at/Å    :       -1.5816210       1.5282806       0.8456439
  moments of inertia/u·Å² :        0.8883196E+03   0.1919222E+04   0.2384487E+04
rotational constants/cm⁻¹ :        0.1897699E-01   0.8783577E-02   0.7069709E-02

 * 50 selected distances

     #   Z          #   Z                                           value/Å
     1   6 C        2   6 C                                       1.5200754
     2   6 C        3   7 N                                       1.4952704
     3   7 N        4   6 C                                       1.5201202
     4   6 C        5   8 O                                       1.3676581
     6   6 C        7   6 C                                       1.5282985
     7   6 C        8   6 C                                       1.5307069
     8   6 C        9   6 C                                       1.5272128
     8   6 C       10   6 C                                       1.5280385
    10   6 C       11   6 C                                       1.5260443
     6   6 C       12   6 C                                       1.5397417 (max)
    11   6 C       12   6 C                                       1.5359514
    13   6 C       14   6 C                                       1.5249261
    13   6 C       15   6 C                                       1.5296632
     3   7 N       16   6 C                                       1.4963484
    16   6 C       17   6 C                                       1.5195604
     3   7 N       18   6 C                                       1.4709174
     1   6 C       19   1 H                                       1.0856029
     1   6 C       20   1 H                                       1.0872857
     1   6 C       21   1 H                                       1.0859405
     2   6 C       22   1 H                                       1.0913495
     2   6 C       23   1 H                                       1.0895743
     4   6 C       24   1 H                                       1.0979454
     4   6 C       25   1 H                                       1.0970617
     6   6 C       26   1 H                                       1.1023204
     7   6 C       27   1 H                                       1.0940314
     7   6 C       28   1 H                                       1.0902625
     8   6 C       29   1 H                                       1.0956586
     9   6 C       30   1 H                                       1.0888763
     9   6 C       31   1 H                                       1.0855365 (min)
     9   6 C       32   1 H                                       1.0868577
    10   6 C       33   1 H                                       1.0887793
    10   6 C       34   1 H                                       1.0911895
    11   6 C       35   1 H                                       1.0910854
    11   6 C       36   1 H                                       1.0895689
    12   6 C       37   1 H                                       1.0984507
    13   6 C       38   1 H                                       1.0983028
    14   6 C       39   1 H                                       1.0858274
    14   6 C       40   1 H                                       1.0877988
    14   6 C       41   1 H                                       1.0860226
    15   6 C       42   1 H                                       1.0882077
    15   6 C       43   1 H                                       1.0868350
    15   6 C       44   1 H                                       1.0866187
    16   6 C       45   1 H                                       1.0928741
    16   6 C       46   1 H                                       1.0920012
    17   6 C       47   1 H                                       1.0860002
    17   6 C       48   1 H                                       1.0873380
    17   6 C       49   1 H                                       1.0856353
    18   6 C       50   1 H                                       1.0875865
    18   6 C       51   1 H                                       1.0876306
    18   6 C       52   1 H                                       1.0887325

 * 4 distinct bonds (by element types)

   Z      Z             #   av. dist./Å        max./Å        min./Å
   1 H    6 C          34     1.0901408     1.1023204     1.0855365
   6 C    6 C          11     1.5282017     1.5397417     1.5195604
   6 C    7 N           4     1.4956641     1.5201202     1.4709174
   6 C    8 O           1     1.3676581     1.3676581     1.3676581


optimized geometry written to: xtbopt.xyz


           -------------------------------------------------
          | TOTAL ENERGY              -58.226316634169 Eh   |
          | GRADIENT NORM               0.000465530887 Eh/α |
          | HOMO-LUMO GAP               7.193992593979 eV   |
           -------------------------------------------------

------------------------------------------------------------------------
 * finished run on 2024/12/20 at 06:47:10.862     
------------------------------------------------------------------------
 total:
 * wall-time:     0 d,  0 h,  0 min,  0.951 sec
 *  cpu-time:     0 d,  0 h,  0 min,  7.534 sec
 * ratio c/w:     7.926 speedup
 SCF:
 * wall-time:     0 d,  0 h,  0 min,  0.033 sec
 *  cpu-time:     0 d,  0 h,  0 min,  0.259 sec
 * ratio c/w:     7.959 speedup
 ANC optimizer:
 * wall-time:     0 d,  0 h,  0 min,  0.900 sec
 *  cpu-time:     0 d,  0 h,  0 min,  7.142 sec
 * ratio c/w:     7.938 speedup

