53
 energy: -55.147528596749 gnorm: 0.057504124577 xtb: 6.7.1 (edcfbbe)
C            0.54561000000000       -0.02704000000000        0.84509000000000
C            0.43576000000000        0.65569000000000       -0.50892000000000
C            1.16225000000000       -0.09474000000000       -1.62638000000000
C            0.60739000000000       -1.48216000000000       -1.97155000000000
C           -0.84421000000000       -1.52926000000000       -2.46580000000000
C           -1.18942000000000       -0.73445000000000       -3.73368000000000
N           -0.95649000000000       -1.44445000000000       -5.09714000000000
C           -1.65788000000000       -2.85991000000000       -5.14682000000000
C           -3.15791000000000       -2.92015000000000       -4.82466000000000
C           -4.16325000000000       -2.66985000000000       -5.96027000000000
C           -3.90346000000000       -3.39619000000000       -7.28440000000000
C           -3.89057000000000       -4.92363000000000       -7.20369000000000
C           -5.25687000000000       -5.51548000000000       -6.89364000000000
C           -1.58040000000000       -0.59111000000000       -6.23327000000000
C           -0.94642000000000        0.76439000000000       -6.48899000000000
C            0.53456000000000       -1.76833000000000       -5.39215000000000
C            1.52255000000000       -0.61905000000000       -5.29499000000000
H            0.02342000000000       -0.98786000000000        0.85385000000000
H            0.09821000000000        0.60302000000000        1.62054000000000
H            1.59303000000000       -0.19862000000000        1.11375000000000
H           -0.61821000000000        0.80562000000000       -0.76491000000000
H            0.87854000000000        1.65595000000000       -0.42564000000000
H            1.16320000000000        0.53933000000000       -2.51708000000000
H            2.21656000000000       -0.21033000000000       -1.34375000000000
H            1.26958000000000       -1.94446000000000       -2.70700000000000
H            0.68163000000000       -2.12151000000000       -1.08314000000000
H           -1.14945000000000       -2.57506000000000       -2.55299000000000
H           -1.47363000000000       -1.13071000000000       -1.65939000000000
H           -2.25776000000000       -0.49171000000000       -3.70747000000000
H           -0.66871000000000        0.22286000000000       -3.75330000000000
H           -1.43877000000000       -3.28319000000000       -6.13213000000000
H           -1.12310000000000       -3.48588000000000       -4.42399000000000
H           -3.35220000000000       -3.93974000000000       -4.46351000000000
H           -3.41274000000000       -2.27665000000000       -3.97787000000000
H           -5.15950000000000       -2.94624000000000       -5.59233000000000
H           -4.23745000000000       -1.59923000000000       -6.16702000000000
H           -4.67359000000000       -3.08698000000000       -8.00273000000000
H           -2.95354000000000       -3.05752000000000       -7.71108000000000
H           -3.55897000000000       -5.31615000000000       -8.17277000000000
H           -3.16159000000000       -5.26818000000000       -6.46291000000000
H           -6.00148000000000       -5.18523000000000       -7.62535000000000
H           -5.21050000000000       -6.60856000000000       -6.93160000000000
H           -5.60179000000000       -5.22983000000000       -5.89598000000000
H           -1.55457000000000       -1.19299000000000       -7.14696000000000
H           -2.61726000000000       -0.41248000000000       -5.94620000000000
H            0.00831000000000        0.67648000000000       -7.00946000000000
H           -1.59829000000000        1.34142000000000       -7.15530000000000
H           -0.81588000000000        1.35713000000000       -5.58173000000000
H            0.82575000000000       -2.55932000000000       -4.69439000000000
H            0.56969000000000       -2.19988000000000       -6.39998000000000
H            1.18036000000000        0.23506000000000       -4.71497000000000
H            2.45429000000000       -0.97480000000000       -4.84080000000000
H            1.79834000000000       -0.26492000000000       -6.29318000000000
53
 energy: -55.155105423690 gnorm: 0.028476394725 xtb: 6.7.1 (edcfbbe)
C            0.54086009947587       -0.03216590063415        0.84430431096558
C            0.43229818300760        0.65202450325623       -0.51090127605304
C            1.15708032645018       -0.09078088334472       -1.63435139442794
C            0.61269301116853       -1.47982157314227       -1.98037189671979
C           -0.83807079832427       -1.52947198756944       -2.47523954663436
C           -1.18247595642656       -0.76620513871730       -3.75708307026923
N           -0.95850719390977       -1.45357616129314       -5.09901426933711
C           -1.66056830483036       -2.82716926035973       -5.13911699438916
C           -3.15568432660398       -2.91775566094002       -4.83093710001772
C           -4.15853276731453       -2.65942166150871       -5.96631739056475
C           -3.89307430168517       -3.39403855140361       -7.28252818081106
C           -3.88916495518368       -4.92147823878719       -7.20063118549475
C           -5.25598257375843       -5.51400113394059       -6.88732835451537
C           -1.56858259755355       -0.59644020594009       -6.20082122994329
C           -0.94047028133566        0.75727580798160       -6.48231910742199
C            0.50875614653615       -1.75700839594467       -5.38352624281339
C            1.52139004381241       -0.62211959088989       -5.30089145879303
H            0.02432381021314       -0.99039512661961        0.85397773790671
H            0.09753011328990        0.59424799720065        1.61680997446450
H            1.58441978740572       -0.20042266507412        1.10641276070326
H           -0.62046262129906        0.79576209365042       -0.76779506161192
H            0.87738235724941        1.64820985544088       -0.43205581249478
H            1.15889705398734        0.54393338356955       -2.52402175018578
H            2.20350056962355       -0.21458004927027       -1.34106557295853
H            1.28146639403276       -1.93781750472141       -2.71141781050122
H            0.66833836341331       -2.10482691660425       -1.08492008271870
H           -1.14272323460466       -2.57304051984541       -2.56177437642903
H           -1.46902539598255       -1.10594575127891       -1.68667318565053
H           -2.24627266765170       -0.51684054610251       -3.73627345648222
H           -0.64042943721688        0.17733932005966       -3.77519977934386
H           -1.45873590154551       -3.23782290572409       -6.12915015380241
H           -1.12414965457264       -3.45000061730462       -4.42074498405576
H           -3.32157587568733       -3.94175285001644       -4.47834793369589
H           -3.40924065366768       -2.27372073765761       -3.98775782582064
H           -5.14159252685999       -2.95890809116905       -5.59261339338820
H           -4.23667690659084       -1.59081619860546       -6.18050291976223
H           -4.67233247390042       -3.09279894661446       -7.98824080953453
H           -2.94469426783705       -3.05696726739170       -7.71181447014015
H           -3.55909419021135       -5.30873930978962       -8.16898374355924
H           -3.16335969680470       -5.26081406378284       -6.45706849654524
H           -5.99352603869374       -5.18248762894754       -7.61678739505150
H           -5.21146719357336       -6.60129850005974       -6.92559513552769
H           -5.60100271989718       -5.22778869989157       -5.89540139657791
H           -1.54133564937471       -1.19750399472246       -7.11039368479563
H           -2.60903836044689       -0.44014198166313       -5.91936831950323
H            0.01286123329286        0.67843501074534       -6.99658985393510
H           -1.60991264941932        1.30849098815610       -7.14478614081580
H           -0.81937572995068        1.35856584317761       -5.58609275310018
H            0.78742198688733       -2.54568476751317       -4.68327757577504
H            0.53449776781648       -2.18890997108552       -6.38666083756454
H            1.18338893888509        0.22052354395272       -4.71114144806636
H            2.43912221497974       -0.98577578547497       -4.83888591192142
H            1.79407950118684       -0.25443260584483       -6.28875401451867
53
 energy: -55.157059202775 gnorm: 0.005362879254 xtb: 6.7.1 (edcfbbe)
C            0.53635260125791       -0.04111672601816        0.83846189191844
C            0.42294362410517        0.64817911253987       -0.51547231519766
C            1.15363206419731       -0.08754154115241       -1.64053587380787
C            0.61508034467254       -1.47772170565158       -1.98931562706654
C           -0.83378557753988       -1.53130878829579       -2.48909256890208
C           -1.17352399876037       -0.77482418356457       -3.77704686451570
N           -0.95998235306588       -1.45330265704094       -5.09532209801379
C           -1.64630009206659       -2.79772532045283       -5.14445161348864
C           -3.14199220192275       -2.89993276695000       -4.83530632914875
C           -4.14836243835230       -2.65203774941203       -5.96972527241785
C           -3.88513511854597       -3.39073840950784       -7.28394236334371
C           -3.88237728219152       -4.91842905610071       -7.19312802300590
C           -5.25247269205701       -5.50630895462818       -6.87835336866244
C           -1.56248764096473       -0.60887341196000       -6.17643579868132
C           -0.94453507804652        0.74892258938454       -6.46712761632345
C            0.48162463182385       -1.76081568685695       -5.37767431196213
C            1.50776833441221       -0.63159274708133       -5.30018984686142
H            0.02304373437102       -0.99830867344451        0.84627717064256
H            0.09372730413548        0.58274404060242        1.60898109864651
H            1.57909367637867       -0.20574961545403        1.09513150746632
H           -0.62992719068308        0.78572104408004       -0.77125094004853
H            0.86692329376089        1.64226764017392       -0.43565598896522
H            1.15312907295003        0.55168391580240       -2.52618334942411
H            2.19603501199285       -0.21248495475194       -1.34227734277491
H            1.29077785719368       -1.93220559713644       -2.71446016354622
H            0.65871381937018       -2.09341852868920       -1.09023120000941
H           -1.13961720441251       -2.57480199300971       -2.56194193120987
H           -1.46015573804436       -1.08585659522280       -1.71298561444111
H           -2.23340023945259       -0.51871400898726       -3.74967428374393
H           -0.61580666707108        0.15943876781065       -3.78872383282903
H           -1.46506723541023       -3.21278137880063       -6.13617726342753
H           -1.11878923843784       -3.42690829296532       -4.42826835272468
H           -3.28874059676806       -3.92929187935123       -4.49958839792386
H           -3.40820419899696       -2.26620630951841       -3.98904328163430
H           -5.12223716983907       -2.96464803730566       -5.59101044325976
H           -4.23293319368347       -1.58668716909554       -6.19081917537954
H           -4.66890989451585       -3.09504500209289       -7.98339726129740
H           -2.93770231803252       -3.05922196809972       -7.71733741420330
H           -3.55554793215206       -5.30531216753568       -8.16015388712526
H           -3.15913302999120       -5.25510285926741       -6.44727083471539
H           -5.98534646926738       -5.17360148797110       -7.60791910551683
H           -5.20792851923152       -6.59049436804650       -6.91549167817492
H           -5.59548263376890       -5.21798646509047       -5.88905468906473
H           -1.53658365564702       -1.20187803773131       -7.09112297228844
H           -2.60521112624249       -0.46011775447030       -5.90093520850308
H            0.00818070555270        0.67411016718443       -6.97617556951619
H           -1.62515976908310        1.27498435194350       -7.13373880590373
H           -0.83139936388949        1.36250402742192       -5.58002084123642
H            0.76400376930041       -2.54089366228314       -4.67170676823898
H            0.51304901283267       -2.19639908770699       -6.37753464449442
H            1.18058924319507        0.20748551051513       -4.70052578554521
H            2.41744240970315       -1.00913453416157       -4.84187282228068
H            1.77529734692836       -0.25940103459585       -6.28321192782708
53
 energy: -55.157238325104 gnorm: 0.002337339182 xtb: 6.7.1 (edcfbbe)
C            0.53181857070740       -0.04775155091288        0.83368070256133
C            0.41571591173866        0.64558109695528       -0.51824687542992
C            1.15090435579795       -0.08500786652541       -1.64401150978506
C            0.61677780423920       -1.47729936475689       -1.99255009119290
C           -0.83242176116396       -1.53105494708568       -2.49166933406857
C           -1.16944297815128       -0.77526418540653       -3.78253162834037
N           -0.95819091412814       -1.45593344612887       -5.09899540164293
C           -1.64576025337328       -2.79692323367886       -5.14293406866806
C           -3.14348144244189       -2.89808504225170       -4.83429873513738
C           -4.14657960676956       -2.64750700999114       -5.97113998177638
C           -3.87981026736990       -3.38850172161867       -7.28380352387871
C           -3.87698314032817       -4.91613829948547       -7.18777316602540
C           -5.24830784558224       -5.50052213262651       -6.87068897320732
C           -1.56327500268106       -0.61148540115427       -6.17675737505906
C           -0.95328534473688        0.75174822718226       -6.46211034767977
C            0.48283085723397       -1.76429591755628       -5.37693931461525
C            1.51097982728935       -0.63605684124205       -5.30019232660667
H            0.02046279958166       -1.00667187119355        0.83826236882493
H            0.08772922125958        0.57291156841582        1.60682734126911
H            1.57591961388689       -0.21069834405087        1.08835560942511
H           -0.63779116588517        0.77869945983161       -0.77382191831449
H            0.85446736827756        1.64178420854436       -0.43492352258583
H            1.14839512754843        0.55629484763972       -2.52819574671335
H            2.19387101290729       -0.20551040800323       -1.34580301369716
H            1.29455152845269       -1.93119345605311       -2.71595965768987
H            0.66121830105391       -2.09226730589464       -1.09327493459695
H           -1.13994030397901       -2.57424228448264       -2.55972217428609
H           -1.45678337221744       -1.08179353081712       -1.71691267270649
H           -2.22776611221563       -0.51194046502384       -3.75089625186024
H           -0.60822658409112        0.15681107286047       -3.79202156471923
H           -1.46892779041215       -3.21314665355251       -6.13534942914161
H           -1.12135394403276       -3.43289151419746       -4.42951674448875
H           -3.29083755263391       -3.92796583135251       -4.50253852722634
H           -3.41162609285694       -2.26617554436866       -3.98750782356241
H           -5.12076448654078       -2.95972307464050       -5.59399461949430
H           -4.23223080752375       -1.58263314331808       -6.19395351128919
H           -4.66252700408365       -3.09476799604994       -7.98521931054047
H           -2.93217669951751       -3.05861559150729       -7.71821711709640
H           -3.55005472598418       -5.30799403971858       -8.15287529642749
H           -3.15478525512278       -5.25081465132651       -6.44001377650377
H           -5.98081333108244       -5.16717450501604       -7.60120374807216
H           -5.20587249884912       -6.58551849100830       -6.90500631897075
H           -5.58975293288939       -5.20849219392002       -5.88127248956679
H           -1.53581673325071       -1.19816537964208       -7.09641674064871
H           -2.60707604433382       -0.46503626864066       -5.90194745233730
H            0.00306302835606        0.68126954052122       -6.96586872055432
H           -1.63349540710261        1.27212945953855       -7.13315610255976
H           -0.84812426928879        1.36647730820530       -5.57414829779956
H            0.76708173309891       -2.54170302639804       -4.66797577854322
H            0.51834031070557       -2.20379600497380       -6.37545419126449
H            1.18854673171801        0.20185347719697       -4.69528123755424
H            2.42235435165479       -1.01959883190945       -4.84966708519113
H            1.77242321511186       -0.26208289941112       -6.28439759296305
53
 energy: -55.157463157410 gnorm: 0.004576131803 xtb: 6.7.1 (edcfbbe)
C            0.52007463841321       -0.06366261615584        0.82394573848544
C            0.39873531821027        0.63962048367474       -0.52262298177797
C            1.14416923139052       -0.07815912974697       -1.65005487261741
C            0.62101309903328       -1.47486521817700       -1.99898312150621
C           -0.82890268077400       -1.53133595054410       -2.49552877087797
C           -1.16211366734571       -0.77416101456377       -3.78878067531050
N           -0.95553202202183       -1.46057147528256       -5.10290109469194
C           -1.64550676672872       -2.79764688855472       -5.14393286077677
C           -3.14650375036716       -2.89221465521729       -4.83394216070042
C           -4.14360844170256       -2.63813484001805       -5.97511897056625
C           -3.86908905275192       -3.38400748161697       -7.28382577367720
C           -3.86519238803076       -4.91090004481210       -7.17479907095855
C           -5.23824006245096       -5.48810084160641       -6.85117868005460
C           -1.56252706093193       -0.61715832583613       -6.17921175669675
C           -0.96994979950666        0.75836410017260       -6.45044472636714
C            0.48502376435869       -1.77313857569464       -5.37713706291986
C            1.51742883388996       -0.64691802014670       -5.30661162585909
H            0.01365623585247       -1.02624820514622        0.82055680242764
H            0.07265966202887        0.54801338216800        1.60363681539915
H            1.56633889916921       -0.22320579261880        1.07529175398839
H           -0.65590451292659        0.76255974021826       -0.77915989073614
H            0.82495735871502        1.64092377391968       -0.43119171583573
H            1.13541376689717        0.56645141285751       -2.53195161408290
H            2.18896436435103       -0.18721220576782       -1.35281545015731
H            1.30191380513132       -1.92543366092952       -2.72127059434353
H            0.67024793899932       -2.08985843557243       -1.10016576843156
H           -1.13916613677403       -2.57370354747186       -2.55871277684675
H           -1.45026566331372       -1.07758056746208       -1.72225990608786
H           -2.21772079188095       -0.49841477394268       -3.75362394621229
H           -0.59314852317390        0.15303466874066       -3.79653920449729
H           -1.47470502761225       -3.21846601775506       -6.13629907466820
H           -1.12468078445586       -3.44013892860806       -4.43244765219360
H           -3.29767830347232       -3.92205937997850       -4.50674889577955
H           -3.41493351194257       -2.26154624483483       -3.98665141779475
H           -5.12033969700806       -2.94748253704601       -5.60284022132775
H           -4.22885357523418       -1.57403180488071       -6.20105683307583
H           -4.64866220846333       -3.09540190987769       -7.99118175180771
H           -2.92042386664121       -3.05600044634318       -7.71778584159853
H           -3.53789834912984       -5.31386240371283       -8.13554822565736
H           -3.14391700633839       -5.23954157379820       -6.42334497395902
H           -5.97109746814690       -5.15478364274747       -7.58254586552738
H           -5.20116767511146       -6.57441015057935       -6.87831920843974
H           -5.57576045310389       -5.18763275162976       -5.86192594500011
H           -1.52640682857726       -1.19324870760757       -7.10665555332332
H           -2.60938583757157       -0.48067008840756       -5.90764640875395
H           -0.00276792591545        0.70338024874014       -6.93792602893221
H           -1.64733280278584        1.26714692431150       -7.13291010735698
H           -0.88975321216010        1.37372709014228       -5.55904492119957
H            0.76856540414788       -2.54499352956668       -4.66044937340624
H            0.52606448373040       -2.22271091180129       -6.37204395871796
H            1.20922412144676        0.18642036810696       -4.68651211332403
H            2.43535546767469       -1.04194879662911       -4.87793954898315
H            1.76249946091118       -0.26496010036435       -6.29287211688188
53
 energy: -55.157648180400 gnorm: 0.006366845842 xtb: 6.7.1 (edcfbbe)
C            0.50646755402447       -0.08062248853685        0.81632202210139
C            0.38119243414479        0.63357906292268       -0.52406872837928
C            1.13612001578936       -0.07009382294469       -1.65393551036608
C            0.62551256779505       -1.47077174760606       -2.00565632846077
C           -0.82458842042874       -1.53282198933207       -2.50031424240421
C           -1.15531468649275       -0.77452203871530       -3.79418801010179
N           -0.95210141574006       -1.46394095831313       -5.10730726303779
C           -1.64659999747314       -2.79787615670207       -5.14378102688953
C           -3.14962675809879       -2.88446927809828       -4.83440345784892
C           -4.14152087634306       -2.62927159116978       -5.97963673511665
C           -3.86004314648131       -3.38055417147826       -7.28371035953474
C           -3.85445318067627       -4.90626116215782       -7.16152363893330
C           -5.22784484589273       -5.47756208985143       -6.82949828397677
C           -1.55889701527826       -0.62028829807889       -6.18342906123602
C           -0.98404447080455        0.76696337855342       -6.43770653885809
C            0.48804877451871       -1.78312330753456       -5.37817234511206
C            1.52347772990172       -0.65902489281944       -5.31897444671285
H            0.00467899936936       -1.04595903659505        0.80413277684728
H            0.05608938729138        0.52121903103642        1.60230188279162
H            1.55385833412585       -0.23756984032492        1.06539895590081
H           -0.67404571137604        0.74769232783289       -0.78253498385640
H            0.79598139217162        1.63906223466204       -0.42383702056197
H            1.12027743523471        0.57765804321236       -2.53366687063708
H            2.18258602258772       -0.16781548930643       -1.35783587927913
H            1.30915579068941       -1.91487096725968       -2.72924358544717
H            0.68112493724506       -2.08751187553561       -1.10836371364688
H           -1.13433079745181       -2.57506286188126       -2.56290748249153
H           -1.44547667875577       -1.07904590323658       -1.72733399821088
H           -2.20866817856407       -0.48984358797515       -3.75916341139965
H           -0.57895004830822        0.14787145217688       -3.80289593206656
H           -1.47866108428120       -3.22220910456245       -6.13524401462153
H           -1.12889671173790       -3.44285372436506       -4.43177658420611
H           -3.30632046007745       -3.91298597562742       -4.50673293159061
H           -3.41575877233237       -2.25136933639271       -3.98852465043928
H           -5.12134115654746       -2.93516818988324       -5.61229819728093
H           -4.22502690914841       -1.56584658990696       -6.20897296485211
H           -4.63658922426259       -3.09796584061093       -7.99710501482111
H           -2.91029505271323       -3.05319130894611       -7.71592051161391
H           -3.52796673173959       -5.31931619183932       -8.11842485071049
H           -3.13232806723070       -5.22788150107700       -6.40772129453778
H           -5.96229701473975       -5.14566338560126       -7.56019876142060
H           -5.19527514426991       -6.56436572443449       -6.84952502663884
H           -5.56050130079722       -5.16939713323216       -5.84059597858578
H           -1.50790798273011       -1.18848435399911       -7.11545752090440
H           -2.60970919868607       -0.49771647148480       -5.91915402339700
H           -0.00506170693043        0.73124490389531       -6.90496580699654
H           -1.65652274393817        1.26497446522914       -7.13293842916079
H           -0.93400380851733        1.38048662024917       -5.54180166376972
H            0.76966570961045       -2.54870092981429       -4.65332985419706
H            0.53008017409232       -2.24280746669820       -6.36881545170159
H            1.23231246684776        0.16715851499308       -4.68007747996984
H            2.45051379562166       -1.06379381266530       -4.91759874189515
H            1.74699577778303       -0.26618943817030       -6.30691702976074
53
 energy: -55.157953067380 gnorm: 0.007520785938 xtb: 6.7.1 (edcfbbe)
C            0.48329597867981       -0.10746031490105        0.80824802712909
C            0.35417131498746        0.62461075912642       -0.52188826875572
C            1.12255721926441       -0.05593900807394       -1.65654285173432
C            0.63327600958441       -1.46215416464319       -2.01586126811030
C           -0.81640030129995       -1.53556598273479       -2.50902723833086
C           -1.14448627648899       -0.77491831214292       -3.80154024549071
N           -0.94626976767854       -1.46855971974022       -5.11343129077097
C           -1.65028933694978       -2.79794355659436       -5.14596232173350
C           -3.15442879880030       -2.86982192731047       -4.83676695704564
C           -4.13978322036555       -2.61581983168541       -5.98743661818574
C           -3.84884450173666       -3.37653102564135       -7.28355144636028
C           -3.83970176789655       -4.90011766927139       -7.14177052139008
C           -5.21144743527520       -5.46494877990554       -6.79349324864600
C           -1.54836053290066       -0.62338850599405       -6.19160946211767
C           -1.00295432999101        0.78185945228978       -6.41602456442818
C            0.49260454192102       -1.79956995933156       -5.38140026630848
C            1.53179694621372       -0.67941983404803       -5.34484800033786
H           -0.01236986762934       -1.07575642439397        0.78165305725741
H            0.02893622569279        0.47917568898899        1.60320776461017
H            1.53143460208766       -0.26168700873175        1.05498730200437
H           -0.70126074847278        0.72784714333671       -0.78416086717581
H            0.75392788185836        1.63471665928372       -0.40702922945288
H            1.09528689187077        0.59722857778291       -2.53249558006539
H            2.17104397309289       -0.13719638109506       -1.36201032219220
H            1.32155763178945       -1.89210011249103       -2.74372974336345
H            0.69953284330082       -2.08402080905708       -1.12261123454360
H           -1.12050595824695       -2.57893919626699       -2.57479249068520
H           -1.44052576933309       -1.08752684928437       -1.73563077625927
H           -2.19495421140103       -0.48052786053512       -3.76891942863983
H           -0.55807067205371        0.14083355364854       -3.81327382655227
H           -1.48432398769546       -3.22758159754685       -6.13517741122426
H           -1.13730889172769       -3.44282057805272       -4.43068806866309
H           -3.32064993827739       -3.89464231287780       -4.50187405870183
H           -3.41505704729820       -2.22858040603017       -3.99546148538807
H           -5.12369950291189       -2.91660206125494       -5.62590293894936
H           -4.22036127298842       -1.55348755779934       -6.22292809969607
H           -4.62183727553515       -3.10422038995776       -8.00501248651785
H           -2.89791965907494       -3.04909354122076       -7.71318576314642
H           -3.51710689095675       -5.32681704845258       -8.09400584643332
H           -3.11339267147068       -5.21032455014571       -6.38704926230991
H           -5.95060894181139       -5.13677591010550       -7.52089967358495
H           -5.18353273261777       -6.55173665383466       -6.80337761243246
H           -5.53481545764302       -5.14647837269226       -5.80474312234881
H           -1.46760928922193       -1.18039944772404       -7.12867507011651
H           -2.60615639321591       -0.52634330769041       -5.94403419889988
H           -0.00612960407669        0.78033445206102       -6.84858099468037
H           -1.66575038651711        1.26454134718537       -7.13156465423279
H           -1.00393718573548        1.38954039665480       -5.51290451102730
H            0.77030144465607       -2.55348502489949       -4.64264215342934
H            0.53226967512732       -2.27644896326507       -6.36416939113095
H            1.27119380430876        0.13233261944114       -4.67250922065589
H            2.47509208897832       -1.09796951760792       -4.99273273607621
H            1.71574155188023       -0.26618017476981       -6.33419932267394
53
 energy: -55.158336248013 gnorm: 0.007996153424 xtb: 6.7.1 (edcfbbe)
C            0.45656616095109       -0.13608607265036        0.80496590375318
C            0.32652159035716        0.61608482661336       -0.51359601566090
C            1.10806591395008       -0.03876216937247       -1.65404942900560
C            0.64313077687946       -1.44977410910024       -2.02582508284401
C           -0.80498318897327       -1.53913027304019       -2.52022808799125
C           -1.13212444091050       -0.77592403912072       -3.80956368659395