      -----------------------------------------------------------      
     |                   =====================                   |     
     |                           x T B                           |     
     |                   =====================                   |     
     |                         S. Grimme                         |     
     |          Mulliken Center for Theoretical Chemistry        |     
     |                    University of Bonn                     |     
      -----------------------------------------------------------      

   * xtb version 6.7.1 (edcfbbe) compiled by 'conda@3ef47c1a292c' on 2024-11-25

   xtb is free software: you can redistribute it and/or modify it under
   the terms of the GNU Lesser General Public License as published by
   the Free Software Foundation, either version 3 of the License, or
   (at your option) any later version.
   
   xtb is distributed in the hope that it will be useful,
   but WITHOUT ANY WARRANTY; without even the implied warranty of
   MERCHANTABILITY or FITNESS FOR A PARTICULAR PURPOSE.  See the
   GNU Lesser General Public License for more details.
   
   Cite this work as:
   * C. Bannwarth, E. Caldeweyher, S. Ehlert, A. Hansen, P. Pracht,
     J. Seibert, S. Spicher, S. Grimme, WIREs Comput. Mol. Sci., 2020, 11,
     e01493. DOI: 10.1002/wcms.1493
   
   for GFN2-xTB:
   * C. Bannwarth, S. Ehlert and S. Grimme., J. Chem. Theory Comput., 2019,
     15, 1652-1671. DOI: 10.1021/acs.jctc.8b01176
   for GFN1-xTB:
   * S. Grimme, C. Bannwarth, P. Shushkov, J. Chem. Theory Comput., 2017,
     13, 1989-2009. DOI: 10.1021/acs.jctc.7b00118
   for GFN0-xTB:
   * P. Pracht, E. Caldeweyher, S. Ehlert, S. Grimme, ChemRxiv, 2019, preprint.
     DOI: 10.26434/chemrxiv.8326202.v1
   for GFN-FF:
   * S. Spicher and S. Grimme, Angew. Chem. Int. Ed., 2020, 59, 15665-15673.
     DOI: 10.1002/anie.202004239
   
   for ALPB and GBSA implicit solvation:
   * S. Ehlert, M. Stahn, S. Spicher, S. Grimme, J. Chem. Theory Comput.,
     2021, 17, 4250-4261. DOI: 10.1021/acs.jctc.1c00471
   
   for ddCOSMO and CPCM-X implicit solvation:
   * M. Stahn, S. Ehlert, S. Grimme, J. Phys. Chem. A,
     2023, XX, XXXX-XXXX. DOI: 10.1021/acs.jpca.3c04382
   
   for DFT-D4:
   * E. Caldeweyher, C. Bannwarth and S. Grimme, J. Chem. Phys., 2017,
     147, 034112. DOI: 10.1063/1.4993215
   * E. Caldeweyher, S. Ehlert, A. Hansen, H. Neugebauer, S. Spicher,
     C. Bannwarth and S. Grimme, J. Chem. Phys., 2019, 150, 154122.
     DOI: 10.1063/1.5090222
   * E. Caldeweyher, J.-M. Mewes, S. Ehlert and S. Grimme, Phys. Chem. Chem. Phys.
     2020, 22, 8499-8512. DOI: 10.1039/D0CP00502A
   
   for sTDA-xTB:
   * S. Grimme and C. Bannwarth, J. Chem. Phys., 2016, 145, 054103.
     DOI: 10.1063/1.4959605
   
   in the mass-spec context:
   * V. Asgeirsson, C. Bauer and S. Grimme, Chem. Sci., 2017, 8, 4879.
     DOI: 10.1039/c7sc00601b
   * J. Koopman and S. Grimme, ACS Omega 2019, 4, 12, 15120-15133.
     DOI: 10.1021/acsomega.9b02011
   
   for metadynamics refer to:
   * S. Grimme, J. Chem. Theory Comput., 2019, 155, 2847-2862
     DOI: 10.1021/acs.jctc.9b00143
   
   for SPH calculations refer to:
   * S. Spicher and S. Grimme, J. Chem. Theory Comput., 2021, 17, 1701-1714
     DOI: 10.1021/acs.jctc.0c01306
   
   for ONIOM refer to:
   * C. Plett, A. Katbashev, S. Ehlert, S. Grimme, M. Bursch,
     Phys. Chem. Chem. Phys., 2023, 25, 17860-17868. DOI: 10.1039/D3CP02178E
   
   for DIPRO refer to:
   * J. Kohn, N. Gildemeister, S. Grimme, D. Fazzi, A. Hansen,
     J. Chem. Phys., 2023, just accepted.
   
   for PTB refer to:
   * S. Grimme, M. Mueller, A. Hansen, J. Chem. Phys., 2023, 158, 124111.
     DOI: 10.1063/5.0137838
   
   with help from (in alphabetical order)
   P. Atkinson, C. Bannwarth, F. Bohle, G. Brandenburg, E. Caldeweyher
   M. Checinski, S. Dohm, S. Ehlert, S. Ehrlich, I. Gerasimov, C. Hölzer
   A. Katbashev, J. Kohn, J. Koopman, C. Lavigne, S. Lehtola, F. März, M. Müller,
   F. Musil, H. Neugebauer, J. Pisarek, C. Plett, P. Pracht, F. Pultar,
   J. Seibert, P. Shushkov, S. Spicher, M. Stahn, M. Steiner, T. Strunk,
   J. Stückrath, T. Rose, and J. Unsleber
   
 * started run on 2024/12/20 at 06:47:56.827     
   ID    Z sym.   atoms
    1    6 C      1-11, 13-17
    2    7 N      12
    3    1 H      18-45

           -------------------------------------------------
          |                Calculation Setup                |
           -------------------------------------------------

          program call               : xtb C0539.xyz --opt --namespace C0539 --charge +1
          calculation namespace      : C0539
          coordinate file            : C0539.xyz
          omp threads                :                     8


           -------------------------------------------------
          |                 G F N 2 - x T B                 |
           -------------------------------------------------

        Reference                      10.1021/acs.jctc.8b01176
      * Hamiltonian:
        H0-scaling (s, p, d)           1.850000    2.230000    2.230000
        zeta-weighting                 0.500000
      * Dispersion:
        s8                             2.700000
        a1                             0.520000
        a2                             5.000000
        s9                             5.000000
      * Repulsion:
        kExp                           1.500000    1.000000
        rExp                           1.000000
      * Coulomb:
        alpha                          2.000000
        third order                    shell-resolved
        anisotropic                    true
        a3                             3.000000
        a5                             4.000000
        cn-shift                       1.200000
        cn-exp                         4.000000
        max-rad                        5.000000


          ...................................................
          :                      SETUP                      :
          :.................................................:
          :  # basis functions                  96          :
          :  # atomic orbitals                  96          :
          :  # shells                           62          :
          :  # electrons                        96          :
          :  max. iterations                   250          :
          :  Hamiltonian                  GFN2-xTB          :
          :  restarted?                      false          :
          :  GBSA solvation                  false          :
          :  PC potential                    false          :
          :  electronic temp.          300.0000000     K    :
          :  accuracy                    1.0000000          :
          :  -> integral cutoff          0.2500000E+02      :
          :  -> integral neglect         0.1000000E-07      :
          :  -> SCF convergence          0.1000000E-05 Eh   :
          :  -> wf. convergence          0.1000000E-03 e    :
          :  Broyden damping             0.4000000          :
          :  net charge                          1          :
          :  unpaired electrons                  0          :
          ...................................................

 iter      E             dE          RMSdq      gap      omega  full diag
   1    -51.7128579 -0.517129E+02  0.326E+00    4.59       0.0  T
   2    -51.8358046 -0.122947E+00  0.215E+00    2.52       1.0  T
   3    -51.8402481 -0.444349E-02  0.106E+00    1.21       1.0  T
   4    -51.8417340 -0.148590E-02  0.470E-01    0.33       1.0  T
   5    -51.8495610 -0.782698E-02  0.108E-01    0.31       1.0  T
   6    -51.8497485 -0.187501E-03  0.432E-02    0.36       1.0  T
   7    -51.8497492 -0.715118E-06  0.144E-02    0.36       1.0  T
   8    -51.8497506 -0.141535E-05  0.401E-03    0.36       3.7  T
   9    -51.8497510 -0.391275E-06  0.144E-03    0.36      10.4  T
  10    -51.8497510 -0.133617E-07  0.381E-04    0.36      39.2  T
  11    -51.8497510 -0.172825E-08  0.150E-04    0.36      99.1  T

   *** convergence criteria satisfied after 11 iterations ***

         #    Occupation            Energy/Eh            Energy/eV
      -------------------------------------------------------------
         1        2.0000           -0.8745628             -23.7981
       ...           ...                  ...                  ...
        42        2.0000           -0.5170920             -14.0708
        43        2.0000           -0.5066782             -13.7874
        44        2.0000           -0.5015718             -13.6485
        45        2.0000           -0.4973084             -13.5325
        46        2.0000           -0.4808932             -13.0858
        47        2.0000           -0.4782602             -13.0141
        48        1.9982           -0.4748368             -12.9210 (HOMO)
        49        0.0018           -0.4615028             -12.5581 (LUMO)
        50                         -0.4312310             -11.7344
        51                         -0.3115395              -8.4774
        52                         -0.2035277              -5.5383
        53                         -0.0953121              -2.5936
       ...                                ...                  ...
        96                          0.4222865              11.4910
      -------------------------------------------------------------
                  HL-Gap            0.0133341 Eh            0.3628 eV
             Fermi-level           -0.4681562 Eh          -12.7392 eV

 SCC (total)                   0 d,  0 h,  0 min,  0.027 sec
 SCC setup                      ...        0 min,  0.000 sec (  0.539%)
 Dispersion                     ...        0 min,  0.001 sec (  1.977%)
 classical contributions        ...        0 min,  0.000 sec (  0.224%)
 integral evaluation            ...        0 min,  0.002 sec (  7.233%)
 iterations                     ...        0 min,  0.018 sec ( 67.248%)
 molecular gradient             ...        0 min,  0.006 sec ( 22.263%)
 printout                       ...        0 min,  0.000 sec (  0.454%)

         :::::::::::::::::::::::::::::::::::::::::::::::::::::
         ::                     SUMMARY                     ::
         :::::::::::::::::::::::::::::::::::::::::::::::::::::
         :: total energy             -51.070906960498 Eh    ::
         :: gradient norm              0.037059203074 Eh/a0 ::
         :: HOMO-LUMO gap              0.362838758876 eV    ::
         ::.................................................::
         :: SCC energy               -51.849722411707 Eh    ::
         :: -> isotropic ES            0.086760216242 Eh    ::
         :: -> anisotropic ES         -0.006546466503 Eh    ::
         :: -> anisotropic XC          0.036162363088 Eh    ::
         :: -> dispersion             -0.036691435365 Eh    ::
         :: repulsion energy           0.778815451208 Eh    ::
         :: add. restraining           0.000000000000 Eh    ::
         :: total charge               1.000000000000 e     ::
         :::::::::::::::::::::::::::::::::::::::::::::::::::::

      ----------------------------------------------------------- 
     |                   =====================                   |
     |                        A N C O P T                        |
     |                   =====================                   |
     |               Approximate Normal Coordinate               |
     |                Rational Function Optimizer                |
      ----------------------------------------------------------- 
      ----------------------------------------------------------- 
     |                   =====================                   |
     |                        A N C O P T                        |
     |                   =====================                   |
     |               Approximate Normal Coordinate               |
     |                Rational Function Optimizer                |
      ----------------------------------------------------------- 

          ...................................................
          :                      SETUP                      :
          :.................................................:
          :   optimization level            normal          :
          :   max. optcycles                   200          :
          :   ANC micro-cycles                  20          :
          :   degrees of freedom               129          :
          :.................................................:
          :   RF solver                   davidson          :
          :   write xtbopt.log                true          :
          :   linear?                        false          :
          :   energy convergence         0.5000000E-05 Eh   :
          :   grad. convergence          0.1000000E-02 Eh/α :
          :   maxmium RF displ.          1.0000000          :
          :   Hlow (freq-cutoff)         0.1000000E-01      :
          :   Hmax (freq-cutoff)         5.0000000          :
          :   S6 in model hess.         20.0000000          :
          ...................................................

generating ANC from exact Hessian ...
Using Lindh-Hessian (1995)
 Shifting diagonal of input Hessian by    9.8179368909272965E-003
 Lowest  eigenvalues of input Hessian
    0.000000    0.000000    0.000000    0.000000    0.000000    0.000000
    0.010000    0.010145    0.010347    0.010538    0.010712    0.011016
    0.011166    0.011894    0.012669    0.014366    0.015012    0.017290
 Highest eigenvalues
    1.426730    1.598925    1.639497    1.914716    2.073588    2.090494


........................................................................
.............................. CYCLE    1 ..............................
........................................................................

 iter      E             dE          RMSdq      gap      omega  full diag
   1    -51.8497510 -0.518498E+02  0.854E-05    0.36       0.0  T
   2    -51.8497510 -0.891163E-10  0.541E-05    0.36     275.6  T
   3    -51.8497510 -0.849454E-10  0.301E-05    0.36     494.7  T
     SCC iter.                  ...        0 min,  0.005 sec
     gradient                   ...        0 min,  0.006 sec
 * total energy  :   -51.0709070 Eh     change       -0.2033360E-09 Eh
   gradient norm :     0.0370595 Eh/α   predicted     0.0000000E+00 (-100.00%)
   displ. norm   :     0.1908322 α      lambda       -0.4167071E-02
   maximum displ.:     0.0743406 α      in ANC's #53, #52, #39, ...

........................................................................
.............................. CYCLE    2 ..............................
........................................................................

 iter      E             dE          RMSdq      gap      omega  full diag
   1    -51.8758154 -0.518758E+02  0.116E-01    0.43       0.0  T
   2    -51.8758830 -0.676751E-04  0.683E-02    0.41       1.0  T
   3    -51.8758789  0.417735E-05  0.277E-02    0.41       1.0  T
   4    -51.8758851 -0.628497E-05  0.109E-02    0.41       1.4  T
   5    -51.8758900 -0.485078E-05  0.165E-03    0.41       9.0  T
   6    -51.8758900 -0.275754E-08  0.801E-04    0.41      18.6  T
   7    -51.8758900 -0.282191E-08  0.216E-04    0.41      69.1  T
     SCC iter.                  ...        0 min,  0.010 sec
     gradient                   ...        0 min,  0.006 sec
 * total energy  :   -51.0736081 Eh     change       -0.2701182E-02 Eh
   gradient norm :     0.0155883 Eh/α   predicted    -0.2159465E-02 ( -20.05%)
   displ. norm   :     0.1362889 α      lambda       -0.7864021E-03
   maximum displ.:     0.0839770 α      in ANC's #7, #6, #4, ...

........................................................................
.............................. CYCLE    3 ..............................
........................................................................

 iter      E             dE          RMSdq      gap      omega  full diag
   1    -51.8864278 -0.518864E+02  0.545E-02    0.45       0.0  T
   2    -51.8864529 -0.250591E-04  0.323E-02    0.44       1.0  T
   3    -51.8864533 -0.375299E-06  0.149E-02    0.44       1.0  T
   4    -51.8864534 -0.135511E-06  0.623E-03    0.44       2.4  T
   5    -51.8864549 -0.149672E-05  0.731E-04    0.44      20.4  T
   6    -51.8864549 -0.142614E-08  0.403E-04    0.44      37.0  T
   7    -51.8864549 -0.663029E-09  0.128E-04    0.44     116.4  T
     SCC iter.                  ...        0 min,  0.010 sec
     gradient                   ...        0 min,  0.006 sec
 * total energy  :   -51.0740589 Eh     change       -0.4507567E-03 Eh
   gradient norm :     0.0055450 Eh/α   predicted    -0.4005594E-03 ( -11.14%)
   displ. norm   :     0.0979759 α      lambda       -0.1187486E-03
   maximum displ.:     0.0787049 α      in ANC's #7, #6, #4, ...

........................................................................
.............................. CYCLE    4 ..............................
........................................................................

 iter      E             dE          RMSdq      gap      omega  full diag
   1    -51.8870665 -0.518871E+02  0.189E-02    0.45       0.0  T
   2    -51.8870676 -0.109457E-05  0.107E-02    0.45       1.4  T
   3    -51.8870676  0.346784E-07  0.361E-03    0.45       4.1  T
   4    -51.8870676 -0.646696E-07  0.914E-04    0.45      16.3  T
   5    -51.8870677 -0.331383E-07  0.205E-04    0.45      72.6  T
     SCC iter.                  ...        0 min,  0.007 sec
     gradient                   ...        0 min,  0.006 sec
 * total energy  :   -51.0741539 Eh     change       -0.9497924E-04 Eh
   gradient norm :     0.0028974 Eh/α   predicted    -0.5994564E-04 ( -36.89%)
   displ. norm   :     0.1555342 α      lambda       -0.1302283E-03
   maximum displ.:     0.1150167 α      in ANC's #7, #6, #4, ...

........................................................................
.............................. CYCLE    5 ..............................
........................................................................

 iter      E             dE          RMSdq      gap      omega  full diag
   1    -51.8861287 -0.518861E+02  0.269E-02    0.45       0.0  T
   2    -51.8861291 -0.382121E-06  0.157E-02    0.45       1.0  T
   3    -51.8861289  0.122763E-06  0.258E-03    0.45       5.8  T
   4    -51.8861291 -0.174352E-06  0.799E-04    0.45      18.7  T
   5    -51.8861291 -0.171902E-07  0.280E-04    0.45      53.3  T
     SCC iter.                  ...        0 min,  0.007 sec
     gradient                   ...        0 min,  0.006 sec
 * total energy  :   -51.0742559 Eh     change       -0.1019926E-03 Eh
   gradient norm :     0.0030260 Eh/α   predicted    -0.6668967E-04 ( -34.61%)
   displ. norm   :     0.1696349 α      lambda       -0.9885404E-04
   maximum displ.:     0.1170350 α      in ANC's #7, #6, #4, ...

........................................................................
.............................. CYCLE    6 ..............................
........................................................................

 iter      E             dE          RMSdq      gap      omega  full diag
   1    -51.8853153 -0.518853E+02  0.297E-02    0.45       0.0  T
   2    -51.8853154 -0.169011E-06  0.174E-02    0.45       1.0  T
   3    -51.8853153  0.841609E-07  0.176E-03    0.45       8.5  T
   4    -51.8853155 -0.137737E-06  0.556E-04    0.45      26.8  T
   5    -51.8853155 -0.418149E-08  0.238E-04    0.45      62.7  T
     SCC iter.                  ...        0 min,  0.007 sec
     gradient                   ...        0 min,  0.006 sec
 * total energy  :   -51.0743385 Eh     change       -0.8266676E-04 Eh
   gradient norm :     0.0044598 Eh/α   predicted    -0.5085003E-04 ( -38.49%)
   displ. norm   :     0.2146241 α      lambda       -0.1078103E-03
   maximum displ.:     0.1392607 α      in ANC's #7, #6, #4, ...

........................................................................
.............................. CYCLE    7 ..............................
........................................................................

 iter      E             dE          RMSdq      gap      omega  full diag
   1    -51.8849576 -0.518850E+02  0.398E-02    0.46       0.0  T
   2    -51.8849579 -0.301350E-06  0.233E-02    0.46       1.0  T
   3    -51.8849578  0.711935E-07  0.190E-03    0.46       7.9  T
   4    -51.8849580 -0.146642E-06  0.713E-04    0.46      20.9  T
   5    -51.8849580 -0.105929E-07  0.305E-04    0.46      48.9  T
     SCC iter.                  ...        0 min,  0.007 sec
     gradient                   ...        0 min,  0.006 sec
 * total energy  :   -51.0744288 Eh     change       -0.9024841E-04 Eh
   gradient norm :     0.0045215 Eh/α   predicted    -0.5638928E-04 ( -37.52%)
   displ. norm   :     0.3044666 α      lambda       -0.1249867E-03
   maximum displ.:     0.1901774 α      in ANC's #7, #6, #4, ...

........................................................................
.............................. CYCLE    8 ..............................
........................................................................

 iter      E             dE          RMSdq      gap      omega  full diag
   1    -51.8851059 -0.518851E+02  0.589E-02    0.47       0.0  T
   2    -51.8851066 -0.660425E-06  0.345E-02    0.47       1.0  T
   3    -51.8851063  0.269723E-06  0.318E-03    0.47       4.7  T
   4    -51.8851068 -0.444384E-06  0.105E-03    0.47      14.2  T
   5    -51.8851068 -0.234628E-07  0.451E-04    0.47      33.0  T
   6    -51.8851068 -0.447656E-09  0.109E-04    0.47     137.1  T
     SCC iter.                  ...        0 min,  0.023 sec
     gradient                   ...        0 min,  0.021 sec
 * total energy  :   -51.0745206 Eh     change       -0.9180953E-04 Eh
   gradient norm :     0.0032135 Eh/α   predicted    -0.6829449E-04 ( -25.61%)
   displ. norm   :     0.2564082 α      lambda       -0.6543980E-04
   maximum displ.:     0.1536135 α      in ANC's #7, #6, #8, ...

........................................................................
.............................. CYCLE    9 ..............................
........................................................................

 iter      E             dE          RMSdq      gap      omega  full diag
   1    -51.8858053 -0.518858E+02  0.515E-02    0.48       0.0  T
   2    -51.8858058 -0.487491E-06  0.302E-02    0.48       1.0  T
   3    -51.8858054  0.364675E-06  0.324E-03    0.48       4.6  T
   4    -51.8858060 -0.522219E-06  0.883E-04    0.48      16.9  T
   5    -51.8858060 -0.135171E-07  0.389E-04    0.48      38.3  T
     SCC iter.                  ...        0 min,  0.011 sec
     gradient                   ...        0 min,  0.012 sec
 * total energy  :   -51.0745619 Eh     change       -0.4130507E-04 Eh
   gradient norm :     0.0015653 Eh/α   predicted    -0.3487144E-04 ( -15.58%)
   displ. norm   :     0.1338697 α      lambda       -0.1863925E-04
   maximum displ.:     0.0739744 α      in ANC's #8, #7, #6, ...

........................................................................
.............................. CYCLE   10 ..............................
........................................................................

 iter      E             dE          RMSdq      gap      omega  full diag
   1    -51.8870998 -0.518871E+02  0.294E-02    0.49       0.0  T
   2    -51.8870999 -0.179029E-06  0.172E-02    0.49       1.0  T
   3    -51.8870998  0.189033E-06  0.218E-03    0.49       6.8  T
   4    -51.8871000 -0.251787E-06  0.511E-04    0.49      29.2  T
   5    -51.8871000 -0.412567E-08  0.242E-04    0.49      61.6  T
     SCC iter.                  ...        0 min,  0.009 sec
     gradient                   ...        0 min,  0.006 sec
 * total energy  :   -51.0745792 Eh     change       -0.1733816E-04 Eh
   gradient norm :     0.0008555 Eh/α   predicted    -0.9395071E-05 ( -45.81%)
   displ. norm   :     0.0551483 α      lambda       -0.1028838E-04
   maximum displ.:     0.0299604 α      in ANC's #8, #7, #1, ...

........................................................................
.............................. CYCLE   11 ..............................
........................................................................

 iter      E             dE          RMSdq      gap      omega  full diag
   1    -51.8874143 -0.518874E+02  0.704E-03    0.49       0.0  T
   2    -51.8874143 -0.113016E-07  0.416E-03    0.49       3.6  T
   3    -51.8874143  0.600841E-08  0.529E-04    0.49      28.2  T
   4    -51.8874143 -0.101870E-07  0.161E-04    0.49      92.5  T
     SCC iter.                  ...        0 min,  0.006 sec
     gradient                   ...        0 min,  0.006 sec
 * total energy  :   -51.0745912 Eh     change       -0.1196098E-04 Eh
   gradient norm :     0.0010990 Eh/α   predicted    -0.5151744E-05 ( -56.93%)
   displ. norm   :     0.0717206 α      lambda       -0.9909242E-05
   maximum displ.:     0.0441066 α      in ANC's #8, #1, #7, ...

........................................................................
.............................. CYCLE   12 ..............................
........................................................................

 iter      E             dE          RMSdq      gap      omega  full diag
   1    -51.8868308 -0.518868E+02  0.104E-02    0.49       0.0  T
   2    -51.8868309 -0.418801E-07  0.607E-03    0.49       2.5  T
   3    -51.8868309  0.265120E-07  0.902E-04    0.49      16.5  T
   4    -51.8868309 -0.351376E-07  0.271E-04    0.49      55.0  T
     SCC iter.                  ...        0 min,  0.006 sec
     gradient                   ...        0 min,  0.006 sec
 * total energy  :   -51.0746023 Eh     change       -0.1107593E-04 Eh
   gradient norm :     0.0006675 Eh/α   predicted    -0.4967145E-05 ( -55.15%)
   displ. norm   :     0.0672456 α      lambda       -0.6275292E-05
   maximum displ.:     0.0410031 α      in ANC's #8, #1, #7, ...

........................................................................
.............................. CYCLE   13 ..............................
........................................................................

 iter      E             dE          RMSdq      gap      omega  full diag
   1    -51.8866930 -0.518867E+02  0.110E-02    0.49       0.0  T
   2    -51.8866931 -0.337985E-07  0.648E-03    0.49       2.3  T
   3    -51.8866930  0.193835E-07  0.789E-04    0.49      18.9  T
   4    -51.8866931 -0.265451E-07  0.243E-04    0.49      61.3  T
     SCC iter.                  ...        0 min,  0.006 sec
     gradient                   ...        0 min,  0.006 sec
 * total energy  :   -51.0746097 Eh     change       -0.7377633E-05 Eh
   gradient norm :     0.0003738 Eh/α   predicted    -0.3146438E-05 ( -57.35%)
   displ. norm   :     0.0789646 α      lambda       -0.5943318E-05
   maximum displ.:     0.0479447 α      in ANC's #8, #1, #6, ...

........................................................................
.............................. CYCLE   14 ..............................
........................................................................

 iter      E             dE          RMSdq      gap      omega  full diag
   1    -51.8864070 -0.518864E+02  0.157E-02    0.48       0.0  T
   2    -51.8864071 -0.465962E-07  0.920E-03    0.49       1.6  T
   3    -51.8864071  0.247871E-07  0.881E-04    0.49      16.9  T
   4    -51.8864071 -0.372738E-07  0.286E-04    0.49      52.1  T
     SCC iter.                  ...        0 min,  0.006 sec
     gradient                   ...        0 min,  0.006 sec
 * total energy  :   -51.0746168 Eh     change       -0.7134511E-05 Eh
   gradient norm :     0.0005748 Eh/α   predicted    -0.2981864E-05 ( -58.21%)
   displ. norm   :     0.0980922 α      lambda       -0.6139178E-05
   maximum displ.:     0.0609363 α      in ANC's #1, #8, #6, ...

........................................................................
.............................. CYCLE   15 ..............................
........................................................................

 iter      E             dE          RMSdq      gap      omega  full diag
   1    -51.8863186 -0.518863E+02  0.213E-02    0.49       0.0  T
   2    -51.8863187 -0.534904E-07  0.125E-02    0.49       1.2  T
   3    -51.8863187  0.344791E-09  0.707E-04    0.49      21.1  T
   4    -51.8863187 -0.175986E-07  0.331E-04    0.49      45.1  T
     SCC iter.                  ...        0 min,  0.006 sec
     gradient                   ...        0 min,  0.006 sec
 * total energy  :   -51.0746236 Eh     change       -0.6827973E-05 Eh
   gradient norm :     0.0006445 Eh/α   predicted    -0.3084009E-05 ( -54.83%)
   displ. norm   :     0.0749058 α      lambda       -0.3831506E-05
   maximum displ.:     0.0482940 α      in ANC's #1, #8, #6, ...

........................................................................
.............................. CYCLE   16 ..............................
........................................................................

 iter      E             dE          RMSdq      gap      omega  full diag
   1    -51.8864029 -0.518864E+02  0.166E-02    0.49       0.0  T
   2    -51.8864030 -0.371302E-07  0.976E-03    0.49       1.5  T
   3    -51.8864030 -0.172188E-08  0.532E-04    0.49      28.0  T
   4    -51.8864030 -0.913439E-08  0.268E-04    0.49      55.6  T
     SCC iter.                  ...        0 min,  0.006 sec
     gradient                   ...        0 min,  0.006 sec
 * total energy  :   -51.0746276 Eh     change       -0.4008552E-05 Eh
   gradient norm :     0.0004518 Eh/α   predicted    -0.1922899E-05 ( -52.03%)
   displ. norm   :     0.0480545 α      lambda       -0.2239395E-05
   maximum displ.:     0.0318320 α      in ANC's #1, #6, #8, ...

   *** GEOMETRY OPTIMIZATION CONVERGED AFTER 16 ITERATIONS ***

------------------------------------------------------------------------
 total energy gain   :        -0.0037207 Eh       -2.3348 kcal/mol
 total RMSD          :         0.2368860 a0        0.1254 Å
 total power (kW/mol):        -0.6105377 (step)  -29.4329 (real)
------------------------------------------------------------------------

 ANCopt (total)                0 d,  0 h,  0 min,  0.332 sec
 optimizer setup                ...        0 min,  0.000 sec (  0.027%)
 model hessian                  ...        0 min,  0.037 sec ( 11.228%)
 ANC generation                 ...        0 min,  0.001 sec (  0.394%)
 coordinate transformation      ...        0 min,  0.000 sec (  0.090%)
 single point calculation       ...        0 min,  0.285 sec ( 85.950%)
 optimization log               ...        0 min,  0.002 sec (  0.571%)
 hessian update                 ...        0 min,  0.004 sec (  1.112%)
 rational function              ...        0 min,  0.001 sec (  0.430%)

================
 final structure:
================
45
 xtb: 6.7.1 (edcfbbe)
C            1.08207009276118       -0.40206918946842       -0.34741509597346
C            0.88374764149840       -1.27081415983056        0.88892816051780
C            1.29083671947175       -0.57469076406814        2.18853388743475
C            0.49369130820473        0.68810107759098        2.52180900523281
C           -1.01377826323204        0.47978268914381        2.68073588178699
C           -1.41926895921851       -0.51730187954540        3.76844588641921
C           -0.91049915238581       -0.18513628123930        5.17278225246935
C           -1.31010601557215        1.19668563203726        5.69658462272197
C           -2.81798881855650        1.45654662970516        5.74618703692957
C           -3.60394173871366        0.51971113555136        6.66200622342894
C           -3.27991360780929        0.68661532839945        8.15555002327325
N           -3.69623417675129        1.99581308320673        8.62039190774756
C           -4.96894552375382        2.19160316794284        8.98545649278133
C           -5.42456076955864        3.44037778829213        9.35135114296763
C           -4.54534314885995        4.51691572680140        9.33247679942402
C           -3.22992876260398        4.29445696661590        8.94947051569519
C           -2.83539354452528        3.01894320009492        8.59724273298950
H            0.41023508061295        0.45266423085251       -0.34184938692285
H            0.88383302534990       -0.97936330643120       -1.24724589015469
H            2.10545926061402       -0.03645719896183       -0.39522834896579
H           -0.15835481589949       -1.59092907568052        0.94635518089713
H            1.49307566687138       -2.17176008571345        0.78603313410947
H            1.20338193624094       -1.28873115114312        3.01050288063389
H            2.34480063145740       -0.29522411240920        2.11559054573724
H            0.90199875013561        1.11719470259820        3.44008339866195
H            0.65037527560566        1.42474726128489        1.73216785346077
H           -1.47453024739281        1.45021248855146        2.88306457887164
H           -1.42553780028321        0.12779690062972        1.73377146211462
H           -2.50973993992875       -0.59068436544094        3.77985120032721
H           -1.04040638535671       -1.50505209601705        3.50287420802145
H           -1.26294434196285       -0.95815784763352        5.86059472173562
H            0.17898203198192       -0.23662702203980        5.17486434102150
H           -0.86729034697145        1.32239264105274        6.68901210669337
H           -0.86436120891382        1.95741215628457        5.05519147780031
H           -2.99237445074421        2.49704343672418        6.04039587800939
H           -3.21985715036728        1.34697180080114        4.73920858350242
H           -4.67348613707902        0.68278992834332        6.51173851271692
H           -3.38702037531319       -0.51353050442824        6.39458327249439
H           -3.80670712845846       -0.07705740371163        8.73039186972133
H           -2.20809281822258        0.57056357433160        8.31758073933857
H           -5.62089405836698        1.33030689938855        8.98359210699715
H           -6.45381808938224        3.56753176634939        9.64616642565587
H           -4.87794377722796        5.50368917320247        9.61339192598341
H           -2.51282028683354        5.09915173599873        8.92354894286279
H           -1.81837558056434        2.80611532198425        8.30300080282762

 Bond Distances (Angstroems)
 ---------------------------
C1-C2=1.5240         C1-H18=1.0872        C1-H19=1.0873        C1-H20=1.0878        C2-C1=1.5240         C2-C3=1.5295         
C2-H21=1.0917        C2-H22=1.0925        C3-C2=1.5295         C3-C4=1.5301         C3-H23=1.0923        C3-H24=1.0928        
C4-C3=1.5301         C4-C5=1.5301         C4-H25=1.0927        C4-H26=1.0912        C5-C4=1.5301         C5-C6=1.5303         
C5-H27=1.0931        C5-H28=1.0910        C6-C5=1.5303         C6-C7=1.5301         C6-H29=1.0930        C6-H30=1.0907        
C7-C6=1.5301         C7-C8=1.5308         C7-H31=1.0931        C7-H32=1.0907        C8-C7=1.5308         C8-C9=1.5309         
C8-H33=1.0940        C8-H34=1.0903        C9-C8=1.5309         C9-C10=1.5278        C9-H35=1.0953        C9-H36=1.0897        
C10-C9=1.5278        C10-C11=1.5374       C10-H37=1.0923       C10-H38=1.0891       C11-C10=1.5374       C11-N12=1.4503       
C11-H39=1.0914       C11-H40=1.0902       N12-C11=1.4503       N12-C13=1.3384       N12-C17=1.3373       C13-N12=1.3384       
C13-C14=1.3787       C13-H41=1.0802       C14-C13=1.3787       C14-C15=1.3901       C14-H42=1.0782       C15-C14=1.3901       
C15-C16=1.3880       C15-H43=1.0785       C16-C15=1.3880       C16-C17=1.3808       C16-H44=1.0782       C17-N12=1.3373       
C17-C16=1.3808       C17-H45=1.0799       H18-C1=1.0872        H19-C1=1.0873        H20-C1=1.0878        H21-C2=1.0917        
H22-C2=1.0925        H23-C3=1.0923        H24-C3=1.0928        H25-C4=1.0927        H26-C4=1.0912        H27-C5=1.0931        
H28-C5=1.0910        H29-C6=1.0930        H30-C6=1.0907        H31-C7=1.0931        H32-C7=1.0907        H33-C8=1.0940        
H34-C8=1.0903        H35-C9=1.0953        H36-C9=1.0897        H37-C10=1.0923       H38-C10=1.0891       H39-C11=1.0914       
H40-C11=1.0902       H41-C13=1.0802       H42-C14=1.0782       H43-C15=1.0785       H44-C16=1.0782       H45-C17=1.0799       
 C  H  Rav=1.0891 sigma=0.0051  Rmin=1.0782  Rmax=1.0953    28
 C  C  Rav=1.4885 sigma=0.0659  Rmin=1.3787  Rmax=1.5374    14
 N  C  Rav=1.3753 sigma=0.0530  Rmin=1.3373  Rmax=1.4503     3

 selected bond angles (degree)
 --------------------
H18-C1-C2=111.32               H19-C1-C2=110.18               H19-C1-H18=108.00              H20-C1-C2=110.47               
H20-C1-H18=108.50              H20-C1-H19=108.28              C3-C2-C1=113.28                H21-C2-C1=109.51               
H21-C2-C3=110.05               H22-C2-C1=108.73               H22-C2-C3=107.87               H22-C2-H21=107.19              
C4-C3-C2=114.96                H23-C3-C2=108.70               H23-C3-C4=109.50               H24-C3-C2=108.44               
H24-C3-C4=107.81               H24-C3-H23=107.13              C5-C4-C3=115.06                H25-C4-C3=108.21               
H25-C4-C5=109.53               H26-C4-C3=108.95               H26-C4-C5=107.97               H26-C4-H25=106.82              
C6-C5-C4=115.06                H27-C5-C4=108.28               H27-C5-C6=109.58               H28-C5-C4=109.00               
H28-C5-C6=107.86               H28-C5-H27=106.74              C7-C6-C5=115.01                H29-C6-C5=108.39               
H29-C6-C7=109.68               H30-C6-C5=108.96               H30-C6-C7=107.73               H30-C6-H29=106.76              
C8-C7-C6=115.04                H31-C7-C6=108.47               H31-C7-C8=109.81               H32-C7-C6=108.88               
H32-C7-C8=107.62               H32-C7-H31=106.71              C9-C8-C7=114.92                H33-C8-C7=107.97               
H33-C8-C9=110.47               H34-C8-C7=108.77               H34-C8-C9=107.66               H34-C8-H33=106.74              
C10-C9-C8=114.96               H35-C9-C8=109.07               H35-C9-C10=109.85              H36-C9-C8=108.43               
H36-C9-C10=107.61              H36-C9-H35=106.56              C11-C10-C9=114.04              H37-C10-C9=109.25              
H37-C10-C11=108.89             H38-C10-C9=109.40              H38-C10-C11=107.43             H38-C10-H37=107.63             

 selected dihedral angles (degree)
 ---------------------------------
C3-C2-C1-H18=293.51           C3-C2-C1-H19=173.72           C3-C2-C1-H20= 54.13           H21-C2-C1-H18= 56.78          
H21-C2-C1-H19=296.99          H21-C2-C1-H20=177.39          H22-C2-C1-H18=173.60          H22-C2-C1-H19= 53.81          
H22-C2-C1-H20=294.22          C4-C3-C2-C1= 61.86            C4-C3-C2-H21=298.89           C4-C3-C2-H22=182.26           
H23-C3-C2-C1=184.98           H23-C3-C2-H21= 62.01          H23-C3-C2-H22=305.38          H24-C3-C2-C1=301.13           
H24-C3-C2-H21=178.16          H24-C3-C2-H22= 61.53          C5-C4-C3-C2= 59.67            C5-C4-C3-H23=296.99           
C5-C4-C3-H24=180.75           H25-C4-C3-C2=182.51           H25-C4-C3-H23= 59.82          H25-C4-C3-H24=303.59          
H26-C4-C3-C2=298.30           H26-C4-C3-H23=175.61          H26-C4-C3-H24= 59.37          C6-C5-C4-C3= 58.86            
C6-C5-C4-H25=296.74           C6-C5-C4-H26=180.77           H27-C5-C4-C3=181.83           H27-C5-C4-H25= 59.70          
H27-C5-C4-H26=303.73          H28-C5-C4-C3=297.59           H28-C5-C4-H25=175.46          H28-C5-C4-H26= 59.49          
C7-C6-C5-C4= 57.51            C7-C6-C5-H27=295.25           C7-C6-C5-H28=179.41           H29-C6-C5-C4=180.65           
H29-C6-C5-H27= 58.39          H29-C6-C5-H28=302.55          H30-C6-C5-C4=296.47           H30-C6-C5-H27=174.20          
H30-C6-C5-H28= 58.37          C8-C7-C6-C5= 56.37            C8-C7-C6-H29=293.92           C8-C7-C6-H30=178.08           
H31-C7-C6-C5=179.76           H31-C7-C6-H29= 57.31          H31-C7-C6-H30=301.47          H32-C7-C6-C5=295.52           
H32-C7-C6-H29=173.06          H32-C7-C6-H30= 57.23          C9-C8-C7-C6= 57.68            C9-C8-C7-H31=295.01           
C9-C8-C7-H32=179.23           H33-C8-C7-C6=181.48           H33-C8-C7-H31= 58.80          H33-C8-C7-H32=303.02          
H34-C8-C7-C6=296.94           H34-C8-C7-H31=174.27          H34-C8-C7-H32= 58.48          C10-C9-C8-C7= 61.53           
C10-C9-C8-H33=299.08          C10-C9-C8-H34=182.88          H35-C9-C8-C7=185.40           H35-C9-C8-H33= 62.95          
H35-C9-C8-H34=306.75          H36-C9-C8-C7=301.07           H36-C9-C8-H33=178.61          H36-C9-C8-H34= 62.42          
C11-C10-C9-C8= 66.54          C11-C10-C9-H35=303.08         C11-C10-C9-H36=187.45         H37-C10-C9-C8=188.64          
H37-C10-C9-H35= 65.18         H37-C10-C9-H36=309.55         H38-C10-C9-C8=306.22          H38-C10-C9-H35=182.77         
H38-C10-C9-H36= 67.14         
           -------------------------------------------------
          |                Final Singlepoint                |
           -------------------------------------------------

          ...................................................
          :                      SETUP                      :
          :.................................................:
          :  # basis functions                  96          :
          :  # atomic orbitals                  96          :
          :  # shells                           62          :
          :  # electrons                        96          :
          :  max. iterations                   250          :
          :  Hamiltonian                  GFN2-xTB          :
          :  restarted?                      false          :
          :  GBSA solvation                  false          :
          :  PC potential                    false          :
          :  electronic temp.          300.0000000     K    :
          :  accuracy                    1.0000000          :
          :  -> integral cutoff          0.2500000E+02      :
          :  -> integral neglect         0.1000000E-07      :
          :  -> SCF convergence          0.1000000E-05 Eh   :
          :  -> wf. convergence          0.1000000E-03 e    :
          :  Broyden damping             0.4000000          :
          :  net charge                          1          :
          :  unpaired electrons                  0          :
          ...................................................

 iter      E             dE          RMSdq      gap      omega  full diag
   1    -51.8864030 -0.518864E+02  0.109E-04    0.49       0.0  T
   2    -51.8864030 -0.451408E-10  0.648E-05    0.49     230.2  T
   3    -51.8864030  0.539302E-11  0.375E-05    0.49     397.2  T

   *** convergence criteria satisfied after 3 iterations ***

         #    Occupation            Energy/Eh            Energy/eV
      -------------------------------------------------------------
         1        2.0000           -0.8797564             -23.9394
       ...           ...                  ...                  ...
        42        2.0000           -0.5192474             -14.1294
        43        2.0000           -0.5086059             -13.8399
        44        2.0000           -0.5034472             -13.6995
        45        2.0000           -0.4994730             -13.5914
        46        2.0000           -0.4830729             -13.1451
        47        2.0000           -0.4793685             -13.0443
        48        1.9998           -0.4763276             -12.9615 (HOMO)
        49        0.0002           -0.4583781             -12.4731 (LUMO)
        50                         -0.4282885             -11.6543
        51                         -0.3077062              -8.3731
        52                         -0.1678760              -4.5681
        53                         -0.0834363              -2.2704
       ...                                ...                  ...
        96                          0.4483318              12.1997
      -------------------------------------------------------------
                  HL-Gap            0.0179495 Eh            0.4884 eV
             Fermi-level           -0.4673335 Eh          -12.7168 eV

 SCC (total)                   0 d,  0 h,  0 min,  0.012 sec
 SCC setup                      ...        0 min,  0.000 sec (  0.655%)
 Dispersion                     ...        0 min,  0.000 sec (  1.889%)
 classical contributions        ...        0 min,  0.000 sec (  0.331%)
 integral evaluation            ...        0 min,  0.001 sec ( 11.863%)
 iterations                     ...        0 min,  0.004 sec ( 34.863%)
 molecular gradient             ...        0 min,  0.006 sec ( 49.448%)
 printout                       ...        0 min,  0.000 sec (  0.822%)

         :::::::::::::::::::::::::::::::::::::::::::::::::::::
         ::                     SUMMARY                     ::
         :::::::::::::::::::::::::::::::::::::::::::::::::::::
         :: total energy             -51.074627626190 Eh    ::
         :: gradient norm              0.000454127852 Eh/a0 ::
         :: HOMO-LUMO gap              0.488429415865 eV    ::
         ::.................................................::
         :: SCC energy               -51.886386899860 Eh    ::
         :: -> isotropic ES            0.086837691558 Eh    ::
         :: -> anisotropic ES         -0.006765960151 Eh    ::
         :: -> anisotropic XC          0.035064545345 Eh    ::
         :: -> dispersion             -0.037304311047 Eh    ::
         :: repulsion energy           0.811759273670 Eh    ::
         :: add. restraining           0.000000000000 Eh    ::
         :: total charge               1.000000000907 e     ::
         :::::::::::::::::::::::::::::::::::::::::::::::::::::

           -------------------------------------------------
          |                Property Printout                |
           -------------------------------------------------

    * Orbital Energies and Occupations

         #    Occupation            Energy/Eh            Energy/eV
      -------------------------------------------------------------
         1        2.0000           -0.8797564             -23.9394
       ...           ...                  ...                  ...
        36        2.0000           -0.5607396             -15.2585
        37        2.0000           -0.5535171             -15.0620
        38        2.0000           -0.5469321             -14.8828
        39        2.0000           -0.5436108             -14.7924
        40        2.0000           -0.5318935             -14.4736
        41        2.0000           -0.5274444             -14.3525
        42        2.0000           -0.5192474             -14.1294
        43        2.0000           -0.5086059             -13.8399
        44        2.0000           -0.5034472             -13.6995
        45        2.0000           -0.4994730             -13.5914
        46        2.0000           -0.4830729             -13.1451
        47        2.0000           -0.4793685             -13.0443
        48        1.9998           -0.4763276             -12.9615 (HOMO)
        49        0.0002           -0.4583781             -12.4731 (LUMO)
        50                         -0.4282885             -11.6543
        51                         -0.3077062              -8.3731
        52                         -0.1678760              -4.5681
        53                         -0.0834363              -2.2704
        54                         -0.0653136              -1.7773
        55                         -0.0478314              -1.3016
        56                         -0.0379265              -1.0320
        57                         -0.0284342              -0.7737
        58                         -0.0145521              -0.3960
        59                         -0.0116839              -0.3179
       ...                                ...                  ...
        96                          0.4483318              12.1997
      -------------------------------------------------------------
                  HL-Gap            0.0179495 Eh            0.4884 eV
             Fermi-level           -0.4673335 Eh          -12.7168 eV

     #   Z          covCN         q      C6AA      α(0)
     1   6 C        3.751    -0.103    22.533     6.769
     2   6 C        3.799    -0.053    21.529     6.606
     3   6 C        3.800    -0.058    21.624     6.621
     4   6 C        3.800    -0.058    21.621     6.620
     5   6 C        3.800    -0.059    21.629     6.622
     6   6 C        3.800    -0.061    21.666     6.627
     7   6 C        3.800    -0.061    21.682     6.630
     8   6 C        3.800    -0.061    21.681     6.630
     9   6 C        3.800    -0.066    21.768     6.643
    10   6 C        3.801    -0.069    21.819     6.650
    11   6 C        3.760    -0.037    21.281     6.577
    12   7 N        2.750     0.116    19.261     6.518
    13   6 C        2.893     0.032    27.277     8.563
    14   6 C        2.916    -0.010    28.269     8.719
    15   6 C        2.925     0.013    27.719     8.634
    16   6 C        2.915    -0.011    28.287     8.721
    17   6 C        2.892     0.034    27.237     8.557
    18   1 H        0.925     0.033     2.541     2.493
    19   1 H        0.925     0.036     2.506     2.476
    20   1 H        0.925     0.036     2.499     2.472
    21   1 H        0.924     0.029     2.594     2.519
    22   1 H        0.924     0.031     2.568     2.506
    23   1 H        0.924     0.027     2.632     2.537
    24   1 H        0.924     0.033     2.543     2.494
    25   1 H        0.924     0.024     2.675     2.558
    26   1 H        0.924     0.037     2.483     2.464
    27   1 H        0.924     0.022     2.700     2.569
    28   1 H        0.924     0.040     2.443     2.444
    29   1 H        0.924     0.024     2.670     2.555
    30   1 H        0.924     0.044     2.395     2.420
    31   1 H        0.924     0.025     2.663     2.552
    32   1 H        0.924     0.047     2.354     2.399
    33   1 H        0.924     0.016     2.794     2.614
    34   1 H        0.924     0.052     2.300     2.372
    35   1 H        0.924     0.021     2.716     2.577
    36   1 H        0.925     0.068     2.103     2.268
    37   1 H        0.924     0.051     2.310     2.377
    38   1 H        0.925     0.086     1.921     2.167
    39   1 H        0.924     0.089     1.891     2.151
    40   1 H        0.925     0.097     1.816     2.108
    41   1 H        0.926     0.109     1.709     2.044
    42   1 H        0.926     0.108     1.716     2.048
    43   1 H        0.926     0.107     1.724     2.053
    44   1 H        0.926     0.107     1.719     2.050
    45   1 H        0.926     0.112     1.675     2.024

 Mol. C6AA /au·bohr⁶  :      15423.990386
 Mol. C8AA /au·bohr⁸  :     341575.397162
 Mol. α(0) /au        :        189.019638


Wiberg/Mayer (AO) data.
largest (>0.10) Wiberg bond orders for each atom

 ---------------------------------------------------------------------------
     #   Z sym  total        # sym  WBO       # sym  WBO       # sym  WBO
 ---------------------------------------------------------------------------
     1   6 C    3.997 --     2 C    1.020    20 H    0.987    19 H    0.987
                            18 H    0.986
     2   6 C    3.998 --     1 C    1.020     3 C    1.008    22 H    0.978
                            21 H    0.976
     3   6 C    3.997 --     2 C    1.008     4 C    1.008    24 H    0.977
                            23 H    0.976
     4   6 C    3.997 --     5 C    1.008     3 C    1.008    25 H    0.975
                            26 H    0.975
     5   6 C    3.997 --     4 C    1.008     6 C    1.007    27 H    0.975
                            28 H    0.974
     6   6 C    3.996 --     5 C    1.007     7 C    1.007    29 H    0.975
                            30 H    0.974
     7   6 C    3.995 --     6 C    1.007     8 C    1.006    31 H    0.975
                            32 H    0.973
     8   6 C    3.995 --     9 C    1.007     7 C    1.006    34 H    0.972
                            33 H    0.972
     9   6 C    3.992 --    10 C    1.010     8 C    1.007    35 H    0.971
                            36 H    0.965
    10   6 C    3.980 --     9 C    1.010    37 H    0.974    11 C    0.970
                            38 H    0.959
    11   6 C    3.932 --    10 C    0.970    12 N    0.965    39 H    0.963
                            40 H    0.959
    12   7 N    3.769 --    17 C    1.328    13 C    1.324    11 C    0.965
    13   6 C    3.959 --    14 C    1.468    12 N    1.324    41 H    0.954
    14   6 C    3.981 --    13 C    1.468    15 C    1.416    42 H    0.959
    15   6 C    3.969 --    16 C    1.428    14 C    1.416    43 H    0.961
    16   6 C    3.981 --    17 C    1.455    15 C    1.428    44 H    0.959
    17   6 C    3.957 --    16 C    1.455    12 N    1.328    45 H    0.951
    18   1 H    0.999 --     1 C    0.986
    19   1 H    0.999 --     1 C    0.987
    20   1 H    0.999 --     1 C    0.987
    21   1 H    0.999 --     2 C    0.976
    22   1 H    0.999 --     2 C    0.978
    23   1 H    0.999 --     3 C    0.976
    24   1 H    0.999 --     3 C    0.977
    25   1 H    0.999 --     4 C    0.975
    26   1 H    0.999 --     4 C    0.975
    27   1 H    0.999 --     5 C    0.975
    28   1 H    0.998 --     5 C    0.974
    29   1 H    0.999 --     6 C    0.975
    30   1 H    0.998 --     6 C    0.974
    31   1 H    0.999 --     7 C    0.975
    32   1 H    0.998 --     7 C    0.973
    33   1 H    1.000 --     8 C    0.972
    34   1 H    0.997 --     8 C    0.972
    35   1 H    1.000 --     9 C    0.971
    36   1 H    0.994 --     9 C    0.965
    37   1 H    0.997 --    10 C    0.974
    38   1 H    0.991 --    10 C    0.959
    39   1 H    0.992 --    11 C    0.963
    40   1 H    0.990 --    11 C    0.959
    41   1 H    0.988 --    13 C    0.954
    42   1 H    0.988 --    14 C    0.959
    43   1 H    0.989 --    15 C    0.961
    44   1 H    0.988 --    16 C    0.959
    45   1 H    0.987 --    17 C    0.951
 ---------------------------------------------------------------------------

Topologies differ in total number of bonds
Writing topology from bond orders to xtbtopo.mol

molecular dipole:
                 x           y           z       tot (Debye)
 q only:       -6.997       4.491      15.674
   full:       -7.044       4.507      15.796      45.429
molecular quadrupole (traceless):
                xx          xy          yy          xz          yz          zz
 q only:      -85.553     -51.297    -124.233    -174.379     115.503     209.787
  q+dip:      -84.468     -51.014    -125.040    -176.752     116.351     209.508
   full:      -85.978     -51.255    -126.320    -175.979     115.738     212.298

           -------------------------------------------------
          |                Geometry Summary                 |
           -------------------------------------------------

      molecular mass/u    :      234.4008186
   center of mass at/Å    :       -2.0168502       1.2108369       5.6051962
  moments of inertia/u·Å² :        0.3398563E+03   0.3872608E+04   0.3982280E+04
rotational constants/cm⁻¹ :        0.4960224E-01   0.4353043E-02   0.4233161E-02

 * 45 selected distances

     #   Z          #   Z                                           value/Å
     1   6 C        2   6 C                                       1.5240061
     2   6 C        3   6 C                                       1.5294721
     3   6 C        4   6 C                                       1.5300839
     4   6 C        5   6 C                                       1.5300716
     5   6 C        6   6 C                                       1.5302659
     6   6 C        7   6 C                                       1.5301444
     7   6 C        8   6 C                                       1.5308451
     8   6 C        9   6 C                                       1.5309145
     9   6 C       10   6 C                                       1.5277788
    10   6 C       11   6 C                                       1.5373759 (max)
    11   6 C       12   7 N                                       1.4503103
    12   7 N       13   6 C                                       1.3384321
    13   6 C       14   6 C                                       1.3787322
    14   6 C       15   6 C                                       1.3900770
    15   6 C       16   6 C                                       1.3879831
    12   7 N       17   6 C                                       1.3373025
    16   6 C       17   6 C                                       1.3808179
     1   6 C       18   1 H                                       1.0871811
     1   6 C       19   1 H                                       1.0873188
     1   6 C       20   1 H                                       1.0877885
     2   6 C       21   1 H                                       1.0916727
     2   6 C       22   1 H                                       1.0925071
     3   6 C       23   1 H                                       1.0923073
     3   6 C       24   1 H                                       1.0928232
     4   6 C       25   1 H                                       1.0927325
     4   6 C       26   1 H                                       1.0912061
     5   6 C       27   1 H                                       1.0931439
     5   6 C       28   1 H                                       1.0909545
     6   6 C       29   1 H                                       1.0929969
     6   6 C       30   1 H                                       1.0907410
     7   6 C       31   1 H                                       1.0930993
     7   6 C       32   1 H                                       1.0906994
     8   6 C       33   1 H                                       1.0939838
     8   6 C       34   1 H                                       1.0903113
     9   6 C       35   1 H                                       1.0952639
     9   6 C       36   1 H                                       1.0897296
    10   6 C       37   1 H                                       1.0922914
    10   6 C       38   1 H                                       1.0891090
    11   6 C       39   1 H                                       1.0913986
    11   6 C       40   1 H                                       1.0901936
    13   6 C       41   1 H                                       1.0802184
    14   6 C       42   1 H                                       1.0781721
    15   6 C       43   1 H                                       1.0785446
    16   6 C       44   1 H                                       1.0781699 (min)
    17   6 C       45   1 H                                       1.0799073

 * 3 distinct bonds (by element types)

   Z      Z             #   av. dist./Å        max./Å        min./Å
   1 H    6 C          28     1.0890881     1.0952639     1.0781699
   6 C    6 C          14     1.4884692     1.5373759     1.3787322
   6 C    7 N           3     1.3753483     1.4503103     1.3373025


optimized geometry written to: xtbopt.xyz


           -------------------------------------------------
          | TOTAL ENERGY              -51.074627626190 Eh   |
          | GRADIENT NORM               0.000454127852 Eh/α |
          | HOMO-LUMO GAP               0.488429415865 eV   |
           -------------------------------------------------

------------------------------------------------------------------------
 * finished run on 2024/12/20 at 06:47:57.217     
------------------------------------------------------------------------
 total:
 * wall-time:     0 d,  0 h,  0 min,  0.389 sec
 *  cpu-time:     0 d,  0 h,  0 min,  2.997 sec
 * ratio c/w:     7.697 speedup
 SCF:
 * wall-time:     0 d,  0 h,  0 min,  0.027 sec
 *  cpu-time:     0 d,  0 h,  0 min,  0.213 sec
 * ratio c/w:     7.964 speedup
 ANC optimizer:
 * wall-time:     0 d,  0 h,  0 min,  0.345 sec
 *  cpu-time:     0 d,  0 h,  0 min,  2.659 sec
 * ratio c/w:     7.701 speedup

