      -----------------------------------------------------------      
     |                   =====================                   |     
     |                           x T B                           |     
     |                   =====================                   |     
     |                         S. Grimme                         |     
     |          Mulliken Center for Theoretical Chemistry        |     
     |                    University of Bonn                     |     
      -----------------------------------------------------------      

   * xtb version 6.7.1 (edcfbbe) compiled by 'conda@3ef47c1a292c' on 2024-11-25

   xtb is free software: you can redistribute it and/or modify it under
   the terms of the GNU Lesser General Public License as published by
   the Free Software Foundation, either version 3 of the License, or
   (at your option) any later version.
   
   xtb is distributed in the hope that it will be useful,
   but WITHOUT ANY WARRANTY; without even the implied warranty of
   MERCHANTABILITY or FITNESS FOR A PARTICULAR PURPOSE.  See the
   GNU Lesser General Public License for more details.
   
   Cite this work as:
   * C. Bannwarth, E. Caldeweyher, S. Ehlert, A. Hansen, P. Pracht,
     J. Seibert, S. Spicher, S. Grimme, WIREs Comput. Mol. Sci., 2020, 11,
     e01493. DOI: 10.1002/wcms.1493
   
   for GFN2-xTB:
   * C. Bannwarth, S. Ehlert and S. Grimme., J. Chem. Theory Comput., 2019,
     15, 1652-1671. DOI: 10.1021/acs.jctc.8b01176
   for GFN1-xTB:
   * S. Grimme, C. Bannwarth, P. Shushkov, J. Chem. Theory Comput., 2017,
     13, 1989-2009. DOI: 10.1021/acs.jctc.7b00118
   for GFN0-xTB:
   * P. Pracht, E. Caldeweyher, S. Ehlert, S. Grimme, ChemRxiv, 2019, preprint.
     DOI: 10.26434/chemrxiv.8326202.v1
   for GFN-FF:
   * S. Spicher and S. Grimme, Angew. Chem. Int. Ed., 2020, 59, 15665-15673.
     DOI: 10.1002/anie.202004239
   
   for ALPB and GBSA implicit solvation:
   * S. Ehlert, M. Stahn, S. Spicher, S. Grimme, J. Chem. Theory Comput.,
     2021, 17, 4250-4261. DOI: 10.1021/acs.jctc.1c00471
   
   for ddCOSMO and CPCM-X implicit solvation:
   * M. Stahn, S. Ehlert, S. Grimme, J. Phys. Chem. A,
     2023, XX, XXXX-XXXX. DOI: 10.1021/acs.jpca.3c04382
   
   for DFT-D4:
   * E. Caldeweyher, C. Bannwarth and S. Grimme, J. Chem. Phys., 2017,
     147, 034112. DOI: 10.1063/1.4993215
   * E. Caldeweyher, S. Ehlert, A. Hansen, H. Neugebauer, S. Spicher,
     C. Bannwarth and S. Grimme, J. Chem. Phys., 2019, 150, 154122.
     DOI: 10.1063/1.5090222
   * E. Caldeweyher, J.-M. Mewes, S. Ehlert and S. Grimme, Phys. Chem. Chem. Phys.
     2020, 22, 8499-8512. DOI: 10.1039/D0CP00502A
   
   for sTDA-xTB:
   * S. Grimme and C. Bannwarth, J. Chem. Phys., 2016, 145, 054103.
     DOI: 10.1063/1.4959605
   
   in the mass-spec context:
   * V. Asgeirsson, C. Bauer and S. Grimme, Chem. Sci., 2017, 8, 4879.
     DOI: 10.1039/c7sc00601b
   * J. Koopman and S. Grimme, ACS Omega 2019, 4, 12, 15120-15133.
     DOI: 10.1021/acsomega.9b02011
   
   for metadynamics refer to:
   * S. Grimme, J. Chem. Theory Comput., 2019, 155, 2847-2862
     DOI: 10.1021/acs.jctc.9b00143
   
   for SPH calculations refer to:
   * S. Spicher and S. Grimme, J. Chem. Theory Comput., 2021, 17, 1701-1714
     DOI: 10.1021/acs.jctc.0c01306
   
   for ONIOM refer to:
   * C. Plett, A. Katbashev, S. Ehlert, S. Grimme, M. Bursch,
     Phys. Chem. Chem. Phys., 2023, 25, 17860-17868. DOI: 10.1039/D3CP02178E
   
   for DIPRO refer to:
   * J. Kohn, N. Gildemeister, S. Grimme, D. Fazzi, A. Hansen,
     J. Chem. Phys., 2023, just accepted.
   
   for PTB refer to:
   * S. Grimme, M. Mueller, A. Hansen, J. Chem. Phys., 2023, 158, 124111.
     DOI: 10.1063/5.0137838
   
   with help from (in alphabetical order)
   P. Atkinson, C. Bannwarth, F. Bohle, G. Brandenburg, E. Caldeweyher
   M. Checinski, S. Dohm, S. Ehlert, S. Ehrlich, I. Gerasimov, C. Hölzer
   A. Katbashev, J. Kohn, J. Koopman, C. Lavigne, S. Lehtola, F. März, M. Müller,
   F. Musil, H. Neugebauer, J. Pisarek, C. Plett, P. Pracht, F. Pultar,
   J. Seibert, P. Shushkov, S. Spicher, M. Stahn, M. Steiner, T. Strunk,
   J. Stückrath, T. Rose, and J. Unsleber
   
 * started run on 2024/12/20 at 06:48:09.266     
   ID    Z sym.   atoms
    1   17 Cl     1
    2    6 C      2-7, 9, 10, 12
    3    7 N      8, 11
    4    1 H      13-22

           -------------------------------------------------
          |                Calculation Setup                |
           -------------------------------------------------

          program call               : xtb C0547.xyz --opt --namespace C0547 --charge +1
          calculation namespace      : C0547
          coordinate file            : C0547.xyz
          omp threads                :                     8


           -------------------------------------------------
          |                 G F N 2 - x T B                 |
           -------------------------------------------------

        Reference                      10.1021/acs.jctc.8b01176
      * Hamiltonian:
        H0-scaling (s, p, d)           1.850000    2.230000    2.230000
        zeta-weighting                 0.500000
      * Dispersion:
        s8                             2.700000
        a1                             0.520000
        a2                             5.000000
        s9                             5.000000
      * Repulsion:
        kExp                           1.500000    1.000000
        rExp                           1.000000
      * Coulomb:
        alpha                          2.000000
        third order                    shell-resolved
        anisotropic                    true
        a3                             3.000000
        a5                             4.000000
        cn-shift                       1.200000
        cn-exp                         4.000000
        max-rad                        5.000000


          ...................................................
          :                      SETUP                      :
          :.................................................:
          :  # basis functions                  64          :
          :  # atomic orbitals                  63          :
          :  # shells                           35          :
          :  # electrons                        62          :
          :  max. iterations                   250          :
          :  Hamiltonian                  GFN2-xTB          :
          :  restarted?                      false          :
          :  GBSA solvation                  false          :
          :  PC potential                    false          :
          :  electronic temp.          300.0000000     K    :
          :  accuracy                    1.0000000          :
          :  -> integral cutoff          0.2500000E+02      :
          :  -> integral neglect         0.1000000E-07      :
          :  -> SCF convergence          0.1000000E-05 Eh   :
          :  -> wf. convergence          0.1000000E-03 e    :
          :  Broyden damping             0.4000000          :
          :  net charge                          1          :
          :  unpaired electrons                  0          :
          ...................................................

 iter      E             dE          RMSdq      gap      omega  full diag
   1    -34.7870312 -0.347870E+02  0.426E+00    3.12       0.0  T
   2    -34.8730439 -0.860126E-01  0.279E+00    2.70       1.0  T
   3    -34.8749530 -0.190917E-02  0.127E+00    2.67       1.0  T
   4    -34.8748569  0.961528E-04  0.474E-01    2.58       1.0  T
   5    -34.8777517 -0.289483E-02  0.133E-01    2.67       1.0  T
   6    -34.8778624 -0.110690E-03  0.848E-02    2.67       1.0  T
   7    -34.8778845 -0.221218E-04  0.639E-02    2.66       1.0  T
   8    -34.8779189 -0.343753E-04  0.443E-02    2.66       1.0  T
   9    -34.8779360 -0.170677E-04  0.239E-02    2.66       1.0  T
  10    -34.8779418 -0.582404E-05  0.840E-03    2.67       2.5  T
  11    -34.8779425 -0.677625E-06  0.412E-03    2.66       5.2  T
  12    -34.8779426 -0.100601E-06  0.116E-03    2.66      18.3  T
  13    -34.8779426 -0.205434E-07  0.648E-04    2.66      32.9  T
  14    -34.8779426 -0.181084E-08  0.332E-04    2.66      64.2  T

   *** convergence criteria satisfied after 14 iterations ***

         #    Occupation            Energy/Eh            Energy/eV
      -------------------------------------------------------------
         1        2.0000           -1.1695369             -31.8247
       ...           ...                  ...                  ...
        25        2.0000           -0.6077868             -16.5387
        26        2.0000           -0.6017875             -16.3755
        27        2.0000           -0.5938813             -16.1603
        28        2.0000           -0.5883631             -16.0102
        29        2.0000           -0.5593312             -15.2202
        30        2.0000           -0.5385674             -14.6552
        31        2.0000           -0.5286343             -14.3849 (HOMO)
        32                         -0.4307474             -11.7212 (LUMO)
        33                         -0.3789869             -10.3128
        34                         -0.3733818             -10.1602
        35                         -0.2605751              -7.0906
        36                         -0.2564576              -6.9786
       ...                                ...                  ...
        63                          0.4998629              13.6020
      -------------------------------------------------------------
                  HL-Gap            0.0978869 Eh            2.6636 eV
             Fermi-level           -0.4796909 Eh          -13.0531 eV

 SCC (total)                   0 d,  0 h,  0 min,  0.016 sec
 SCC setup                      ...        0 min,  0.000 sec (  0.830%)
 Dispersion                     ...        0 min,  0.000 sec (  1.009%)
 classical contributions        ...        0 min,  0.000 sec (  0.212%)
 integral evaluation            ...        0 min,  0.002 sec ( 12.077%)
 iterations                     ...        0 min,  0.012 sec ( 73.356%)
 molecular gradient             ...        0 min,  0.002 sec ( 11.923%)
 printout                       ...        0 min,  0.000 sec (  0.490%)

         :::::::::::::::::::::::::::::::::::::::::::::::::::::
         ::                     SUMMARY                     ::
         :::::::::::::::::::::::::::::::::::::::::::::::::::::
         :: total energy             -34.406145662987 Eh    ::
         :: gradient norm              0.048695892212 Eh/a0 ::
         :: HOMO-LUMO gap              2.663637465908 eV    ::
         ::.................................................::
         :: SCC energy               -34.877874567104 Eh    ::
         :: -> isotropic ES            0.084650684353 Eh    ::
         :: -> anisotropic ES         -0.014240321925 Eh    ::
         :: -> anisotropic XC          0.017828017007 Eh    ::
         :: -> dispersion             -0.020008953712 Eh    ::
         :: repulsion energy           0.471728904117 Eh    ::
         :: add. restraining           0.000000000000 Eh    ::
         :: total charge               1.000000000000 e     ::
         :::::::::::::::::::::::::::::::::::::::::::::::::::::

      ----------------------------------------------------------- 
     |                   =====================                   |
     |                        A N C O P T                        |
     |                   =====================                   |
     |               Approximate Normal Coordinate               |
     |                Rational Function Optimizer                |
      ----------------------------------------------------------- 
      ----------------------------------------------------------- 
     |                   =====================                   |
     |                        A N C O P T                        |
     |                   =====================                   |
     |               Approximate Normal Coordinate               |
     |                Rational Function Optimizer                |
      ----------------------------------------------------------- 

          ...................................................
          :                      SETUP                      :
          :.................................................:
          :   optimization level            normal          :
          :   max. optcycles                   200          :
          :   ANC micro-cycles                  20          :
          :   degrees of freedom                60          :
          :.................................................:
          :   RF solver                   davidson          :
          :   write xtbopt.log                true          :
          :   linear?                        false          :
          :   energy convergence         0.5000000E-05 Eh   :
          :   grad. convergence          0.1000000E-02 Eh/α :
          :   maxmium RF displ.          1.0000000          :
          :   Hlow (freq-cutoff)         0.1000000E-01      :
          :   Hmax (freq-cutoff)         5.0000000          :
          :   S6 in model hess.         20.0000000          :
          ...................................................

generating ANC from exact Hessian ...
Using Lindh-Hessian (1995)
 Shifting diagonal of input Hessian by    6.7813108121747238E-003
 Lowest  eigenvalues of input Hessian
    0.000000    0.000000    0.000000    0.000000    0.000000    0.000000
    0.010000    0.011920    0.012694    0.016510    0.018417    0.018981
    0.019780    0.022318    0.027027    0.039942    0.048714    0.050722
 Highest eigenvalues
    1.787127    1.831774    2.053872    2.075328    2.088475    2.186361


........................................................................
.............................. CYCLE    1 ..............................
........................................................................

 iter      E             dE          RMSdq      gap      omega  full diag
   1    -34.8779426 -0.348779E+02  0.245E-04    2.66       0.0  T
   2    -34.8779426 -0.182354E-09  0.192E-04    2.66     111.3  T
   3    -34.8779426 -0.926406E-10  0.155E-04    2.66     137.6  T
     SCC iter.                  ...        0 min,  0.002 sec
     gradient                   ...        0 min,  0.002 sec
 * total energy  :   -34.4061457 Eh     change       -0.8848673E-09 Eh
   gradient norm :     0.0486977 Eh/α   predicted     0.0000000E+00 (-100.00%)
   displ. norm   :     0.1531809 α      lambda       -0.4491624E-02
   maximum displ.:     0.1038067 α      in ANC's #30, #7, #23, ...

........................................................................
.............................. CYCLE    2 ..............................
........................................................................

 iter      E             dE          RMSdq      gap      omega  full diag
   1    -34.9022514 -0.349023E+02  0.183E-01    2.75       0.0  T
   2    -34.9023051 -0.537239E-04  0.102E-01    2.73       1.0  T
   3    -34.9023028  0.231092E-05  0.361E-02    2.73       1.0  T
   4    -34.9023069 -0.411323E-05  0.125E-02    2.73       1.7  T
   5    -34.9023091 -0.212927E-05  0.449E-03    2.73       4.7  T
   6    -34.9023091 -0.748651E-07  0.301E-03    2.73       7.1  T
   7    -34.9023092 -0.441449E-07  0.214E-03    2.73      10.0  T
   8    -34.9023092 -0.389746E-07  0.144E-03    2.73      14.8  T
   9    -34.9023092 -0.208106E-07  0.535E-04    2.73      39.9  T
  10    -34.9023093 -0.297305E-08  0.184E-04    2.73     115.7  T
     SCC iter.                  ...        0 min,  0.006 sec
     gradient                   ...        0 min,  0.002 sec
 * total energy  :   -34.4091030 Eh     change       -0.2957299E-02 Eh
   gradient norm :     0.0206666 Eh/α   predicted    -0.2298591E-02 ( -22.27%)
   displ. norm   :     0.0872518 α      lambda       -0.8088791E-03
   maximum displ.:     0.0617798 α      in ANC's #7, #30, #38, ...

........................................................................
.............................. CYCLE    3 ..............................
........................................................................

 iter      E             dE          RMSdq      gap      omega  full diag
   1    -34.9105512 -0.349106E+02  0.927E-02    2.78       0.0  T
   2    -34.9105716 -0.203629E-04  0.523E-02    2.76       1.0  T
   3    -34.9105712  0.368778E-06  0.198E-02    2.76       1.1  T
   4    -34.9105719 -0.728645E-06  0.686E-03    2.76       3.1  T
   5    -34.9105726 -0.711917E-06  0.186E-03    2.76      11.5  T
   6    -34.9105727 -0.123690E-07  0.118E-03    2.76      18.1  T
   7    -34.9105727 -0.607465E-08  0.808E-04    2.76      26.4  T
   8    -34.9105727 -0.495364E-08  0.559E-04    2.76      38.1  T
     SCC iter.                  ...        0 min,  0.005 sec
     gradient                   ...        0 min,  0.002 sec
 * total energy  :   -34.4095378 Eh     change       -0.4348188E-03 Eh
   gradient norm :     0.0046447 Eh/α   predicted    -0.4076066E-03 (  -6.26%)
   displ. norm   :     0.0343243 α      lambda       -0.4303672E-04
   maximum displ.:     0.0313921 α      in ANC's #7, #5, #16, ...

........................................................................
.............................. CYCLE    4 ..............................
........................................................................

 iter      E             dE          RMSdq      gap      omega  full diag
   1    -34.9098505 -0.349099E+02  0.186E-02    2.77       0.0  T
   2    -34.9098508 -0.361944E-06  0.109E-02    2.77       2.0  T
   3    -34.9098506  0.185921E-06  0.439E-03    2.77       4.9  T
   4    -34.9098509 -0.251946E-06  0.862E-04    2.77      24.7  T
   5    -34.9098509 -0.110331E-07  0.343E-04    2.77      62.2  T
     SCC iter.                  ...        0 min,  0.003 sec
     gradient                   ...        0 min,  0.002 sec
 * total energy  :   -34.4095703 Eh     change       -0.3256484E-04 Eh
   gradient norm :     0.0019527 Eh/α   predicted    -0.2261672E-04 ( -30.55%)
   displ. norm   :     0.0576538 α      lambda       -0.2243547E-04
   maximum displ.:     0.0536387 α      in ANC's #7, #5, #23, ...

........................................................................
.............................. CYCLE    5 ..............................
........................................................................

 iter      E             dE          RMSdq      gap      omega  full diag
   1    -34.9085006 -0.349085E+02  0.241E-02    2.77       0.0  T
   2    -34.9085011 -0.445761E-06  0.140E-02    2.77       1.5  T
   3    -34.9085006  0.430802E-06  0.700E-03    2.77       3.0  T
   4    -34.9085013 -0.635885E-06  0.106E-03    2.77      20.1  T
   5    -34.9085013 -0.604055E-08  0.637E-04    2.77      33.4  T
   6    -34.9085013 -0.279363E-08  0.471E-04    2.77      45.3  T
     SCC iter.                  ...        0 min,  0.004 sec
     gradient                   ...        0 min,  0.002 sec
 * total energy  :   -34.4095817 Eh     change       -0.1132704E-04 Eh
   gradient norm :     0.0016108 Eh/α   predicted    -0.1124561E-04 (  -0.72%)
   displ. norm   :     0.0084179 α      lambda       -0.3154184E-05
   maximum displ.:     0.0066101 α      in ANC's #7, #16, #23, ...

........................................................................
.............................. CYCLE    6 ..............................
........................................................................

 iter      E             dE          RMSdq      gap      omega  full diag
   1    -34.9090793 -0.349091E+02  0.735E-03    2.77       0.0  T
   2    -34.9090794 -0.316646E-07  0.433E-03    2.77       4.9  T
   3    -34.9090794  0.188189E-07  0.125E-03    2.77      17.0  T
   4    -34.9090794 -0.246732E-07  0.325E-04    2.77      65.6  T
   5    -34.9090794 -0.113928E-08  0.225E-04    2.77      94.8  T
     SCC iter.                  ...        0 min,  0.003 sec
     gradient                   ...        0 min,  0.002 sec
 * total energy  :   -34.4095843 Eh     change       -0.2605459E-05 Eh
   gradient norm :     0.0002908 Eh/α   predicted    -0.1579468E-05 ( -39.38%)
   displ. norm   :     0.0029459 α      lambda       -0.1370217E-06
   maximum displ.:     0.0023087 α      in ANC's #7, #5, #23, ...

   *** GEOMETRY OPTIMIZATION CONVERGED AFTER 6 ITERATIONS ***

------------------------------------------------------------------------
 total energy gain   :        -0.0034386 Eh       -2.1578 kcal/mol
 total RMSD          :         0.0604384 a0        0.0320 Å
 total power (kW/mol):        -1.5046807 (step) -192.5146 (real)
------------------------------------------------------------------------

 ANCopt (total)                0 d,  0 h,  0 min,  0.047 sec
 optimizer setup                ...        0 min,  0.000 sec (  0.161%)
 model hessian                  ...        0 min,  0.005 sec ( 10.523%)
 ANC generation                 ...        0 min,  0.000 sec (  0.758%)
 coordinate transformation      ...        0 min,  0.000 sec (  0.080%)
 single point calculation       ...        0 min,  0.040 sec ( 85.867%)
 optimization log               ...        0 min,  0.000 sec (  0.842%)
 hessian update                 ...        0 min,  0.000 sec (  0.153%)
 rational function              ...        0 min,  0.001 sec (  1.071%)

================
 final structure:
================
22
 xtb: 6.7.1 (edcfbbe)
Cl           1.00936540947452       -0.12320780026270       -0.01816700071564
C            2.72317209227244       -0.11769244223529       -0.00974521869992
C            3.39937194665958        1.11499770140336       -0.00600588340810
C            4.77323270887063        1.18688892724846        0.00081408557481
C            5.47755982896755       -0.01465816656394        0.00390144062012
C            4.79504460215529       -1.24822919562890        0.00006914801294
C            3.40881259469288       -1.32157969230577       -0.00678763142935
N            5.75876771080433       -2.23330440054439        0.00447612644424
C            5.50297375002467       -3.64771504309980        0.00252448246985
C            6.94625743958606       -1.63581346488307        0.01057931955144
N            6.82352510927940       -0.31128963264215        0.01046944972840
C            7.91485724731529        0.62837260573422        0.01625912577584
H            2.81624536608442        2.02166179625821       -0.00859894684239
H            5.27199463794306        2.14198677975646        0.00359003599945
H            2.88254564417514       -2.26097667714914       -0.00970822527959
H            4.92444104385162       -3.92307172463464        0.88530929750209
H            4.93373913583764       -3.92230061760003       -0.88652773257162
H            6.44331824320113       -4.19391590079909        0.00721977479239
H            7.88752631297032       -2.15414947684489        0.01506607759284
H            8.53046354618286        0.49060386636316        0.90578830267138
H            8.53911664115749        0.49148985691811       -0.86735777306140
H            7.52059898849365        1.64072270151185        0.01484174527223

 Bond Distances (Angstroems)
 ---------------------------
Cl1-C2=1.7138        C2-Cl1=1.7138        C2-C3=1.4060         C2-C7=1.3854         C3-C2=1.4060         C3-C4=1.3758         
C3-H13=1.0780        C4-C3=1.3758         C4-C5=1.3928         C4-H14=1.0775        C5-C4=1.3928         C5-C6=1.4098         
C5-N11=1.3783        C6-C5=1.4098         C6-C7=1.3882         C6-N8=1.3781         C7-C2=1.3854         C7-C6=1.3882         
C7-H15=1.0768        N8-C6=1.3781         N8-C9=1.4374         N8-C10=1.3293        C9-N8=1.4374         C9-H16=1.0908        
C9-H17=1.0908        C9-H18=1.0875        C10-N8=1.3293        C10-N11=1.3302       C10-H19=1.0746       N11-C5=1.3783        
N11-C10=1.3302       N11-C12=1.4401       C12-N11=1.4401       C12-H20=1.0905       C12-H21=1.0905       C12-H22=1.0864       
H13-C3=1.0780        H14-C4=1.0775        H15-C7=1.0768        H16-C9=1.0908        H17-C9=1.0908        H18-C9=1.0875        
H19-C10=1.0746       H20-C12=1.0905       H21-C12=1.0905       H22-C12=1.0864       
 C  H  Rav=1.0843 sigma=0.0064  Rmin=1.0746  Rmax=1.0908    10
 C  C  Rav=1.3930 sigma=0.0118  Rmin=1.3758  Rmax=1.4098     6
 N  C  Rav=1.3822 sigma=0.0446  Rmin=1.3293  Rmax=1.4401     6
 Cl C  Rav=1.7138 sigma=0.0000  Rmin=1.7138  Rmax=1.7138     1

 selected bond angles (degree)
 --------------------
C3-C2-Cl1=118.93               C7-C2-Cl1=119.48               C7-C2-C3=121.59                C4-C3-C2=121.74                
H13-C3-C2=118.50               H13-C3-C4=119.75               C5-C4-C3=117.38                H14-C4-C3=120.57               
H14-C4-C5=122.05               C6-C5-C4=120.67                N11-C5-C4=132.81               N11-C5-C6=106.53               
C7-C6-C5=121.98                N8-C6-C5=106.67                N8-C6-C7=131.34                C6-C7-C2=116.63                
H15-C7-C2=121.08               H15-C7-C6=122.29               C9-N8-C6=125.38                C10-N8-C6=107.66               
C10-N8-C9=126.96               H16-C9-N8=109.98               H17-C9-N8=109.98               H17-C9-H16=108.62              
H18-C9-N8=109.90               H18-C9-H16=109.17              H18-C9-H17=109.17              N11-C10-N8=111.42              
H19-C10-N8=124.45              H19-C10-N11=124.13             

 selected dihedral angles (degree)
 ---------------------------------
C4-C3-C2-Cl1=180.00           C4-C3-C2-C7=  0.00            H13-C3-C2-Cl1=  0.00          H13-C3-C2-C7=180.00           
C5-C4-C3-C2=  0.00            C5-C4-C3-H13=180.00           H14-C4-C3-C2=180.00           H14-C4-C3-H13=  0.00          
C6-C5-C4-C3=  0.00            C6-C5-C4-H14=180.00           N11-C5-C4-C3=180.00           N11-C5-C4-H14=  0.00          
C7-C6-C5-C4=  0.00            C7-C6-C5-N11=180.00           N8-C6-C5-C4=180.00            N8-C6-C5-N11=  0.00           
C6-C7-C2-Cl1=180.00           C6-C7-C2-C3=  0.00            H15-C7-C2-Cl1=  0.00          H15-C7-C2-C3=180.00           
C2-C7-C6-C5=  0.00            C2-C7-C6-N8=180.00            H15-C7-C6-C5=180.00           H15-C7-C6-N8=  0.00           
C9-N8-C6-C5=180.01            C9-N8-C6-C7=  0.00            C10-N8-C6-C5=  0.00           C10-N8-C6-C7=180.00           
H16-C9-N8-C6=300.22           H16-C9-N8-C10=120.23          H17-C9-N8-C6= 59.80           H17-C9-N8-C10=239.81          
H18-C9-N8-C6=180.01           H18-C9-N8-C10=  0.00          N11-C10-N8-C6=  0.00          N11-C10-N8-C9=179.99          
H19-C10-N8-C6=180.00          H19-C10-N8-C9=  0.00          
           -------------------------------------------------
          |                Final Singlepoint                |
           -------------------------------------------------

          ...................................................
          :                      SETUP                      :
          :.................................................:
          :  # basis functions                  64          :
          :  # atomic orbitals                  63          :
          :  # shells                           35          :
          :  # electrons                        62          :
          :  max. iterations                   250          :
          :  Hamiltonian                  GFN2-xTB          :
          :  restarted?                      false          :
          :  GBSA solvation                  false          :
          :  PC potential                    false          :
          :  electronic temp.          300.0000000     K    :
          :  accuracy                    1.0000000          :
          :  -> integral cutoff          0.2500000E+02      :
          :  -> integral neglect         0.1000000E-07      :
          :  -> SCF convergence          0.1000000E-05 Eh   :
          :  -> wf. convergence          0.1000000E-03 e    :
          :  Broyden damping             0.4000000          :
          :  net charge                          1          :
          :  unpaired electrons                  0          :
          ...................................................

 iter      E             dE          RMSdq      gap      omega  full diag
   1    -34.9090794 -0.349091E+02  0.166E-04    2.77       0.0  T
   2    -34.9090794 -0.107484E-09  0.144E-04    2.77     148.5  T
   3    -34.9090794 -0.768239E-10  0.122E-04    2.77     174.6  T

   *** convergence criteria satisfied after 3 iterations ***

         #    Occupation            Energy/Eh            Energy/eV
      -------------------------------------------------------------
         1        2.0000           -1.1701781             -31.8422
       ...           ...                  ...                  ...
        25        2.0000           -0.6092631             -16.5789
        26        2.0000           -0.6031376             -16.4122
        27        2.0000           -0.5920067             -16.1093
        28        2.0000           -0.5886022             -16.0167
        29        2.0000           -0.5615006             -15.2792
        30        2.0000           -0.5387096             -14.6590
        31        2.0000           -0.5287917             -14.3892 (HOMO)
        32                         -0.4270635             -11.6210 (LUMO)
        33                         -0.3785801             -10.3017
        34                         -0.3692477             -10.0477
        35                         -0.2561723              -6.9708
        36                         -0.2533304              -6.8935
       ...                                ...                  ...
        63                          0.5168347              14.0638
      -------------------------------------------------------------
                  HL-Gap            0.1017282 Eh            2.7682 eV
             Fermi-level           -0.4779276 Eh          -13.0051 eV

 SCC (total)                   0 d,  0 h,  0 min,  0.005 sec
 SCC setup                      ...        0 min,  0.000 sec (  1.295%)
 Dispersion                     ...        0 min,  0.000 sec (  1.475%)
 classical contributions        ...        0 min,  0.000 sec (  0.238%)
 integral evaluation            ...        0 min,  0.001 sec ( 15.384%)
 iterations                     ...        0 min,  0.002 sec ( 40.296%)
 molecular gradient             ...        0 min,  0.002 sec ( 39.630%)
 printout                       ...        0 min,  0.000 sec (  1.399%)

         :::::::::::::::::::::::::::::::::::::::::::::::::::::
         ::                     SUMMARY                     ::
         :::::::::::::::::::::::::::::::::::::::::::::::::::::
         :: total energy             -34.409584278976 Eh    ::
         :: gradient norm              0.000291822523 Eh/a0 ::
         :: HOMO-LUMO gap              2.768165076950 eV    ::
         ::.................................................::
         :: SCC energy               -34.909009595433 Eh    ::
         :: -> isotropic ES            0.084777987033 Eh    ::
         :: -> anisotropic ES         -0.013733213892 Eh    ::
         :: -> anisotropic XC          0.016534735754 Eh    ::
         :: -> dispersion             -0.020125209128 Eh    ::
         :: repulsion energy           0.499425316456 Eh    ::
         :: add. restraining           0.000000000000 Eh    ::
         :: total charge               1.000000000000 e     ::
         :::::::::::::::::::::::::::::::::::::::::::::::::::::

           -------------------------------------------------
          |                Property Printout                |
           -------------------------------------------------

    * Orbital Energies and Occupations

         #    Occupation            Energy/Eh            Energy/eV
      -------------------------------------------------------------
         1        2.0000           -1.1701781             -31.8422
       ...           ...                  ...                  ...
        19        2.0000           -0.6533023             -17.7773
        20        2.0000           -0.6530985             -17.7717
        21        2.0000           -0.6529223             -17.7669
        22        2.0000           -0.6370065             -17.3338
        23        2.0000           -0.6343711             -17.2621
        24        2.0000           -0.6334406             -17.2368
        25        2.0000           -0.6092631             -16.5789
        26        2.0000           -0.6031376             -16.4122
        27        2.0000           -0.5920067             -16.1093
        28        2.0000           -0.5886022             -16.0167
        29        2.0000           -0.5615006             -15.2792
        30        2.0000           -0.5387096             -14.6590
        31        2.0000           -0.5287917             -14.3892 (HOMO)
        32                         -0.4270635             -11.6210 (LUMO)
        33                         -0.3785801             -10.3017
        34                         -0.3692477             -10.0477
        35                         -0.2561723              -6.9708
        36                         -0.2533304              -6.8935
        37                         -0.1858219              -5.0565
        38                         -0.1388658              -3.7787
        39                         -0.1069284              -2.9097
        40                         -0.0992261              -2.7001
        41                         -0.0991760              -2.6987
        42                         -0.0863612              -2.3500
       ...                                ...                  ...
        63                          0.5168347              14.0638
      -------------------------------------------------------------
                  HL-Gap            0.1017282 Eh            2.7682 eV
             Fermi-level           -0.4779276 Eh          -13.0051 eV

     #   Z          covCN         q      C6AA      α(0)
     1  17 Cl       0.975    -0.087   101.879    15.442
     2   6 C        2.890     0.111    25.546     8.287
     3   6 C        2.962    -0.028    28.710     8.789
     4   6 C        2.908    -0.028    28.711     8.786
     5   6 C        3.116     0.034    27.071     8.522
     6   6 C        3.124     0.040    26.924     8.497
     7   6 C        2.950    -0.048    29.193     8.862
     8   7 N        2.824     0.052    20.327     6.696
     9   6 C        3.691    -0.082    22.263     6.752
    10   6 C        3.075     0.057    26.643     8.463
    11   7 N        2.825     0.052    20.339     6.698
    12   6 C        3.691    -0.083    22.272     6.753
    13   1 H        0.926     0.103     1.758     2.073
    14   1 H        0.926     0.086     1.922     2.168
    15   1 H        0.926     0.095     1.829     2.115
    16   1 H        0.924     0.105     1.740     2.063
    17   1 H        0.924     0.105     1.740     2.063
    18   1 H        0.925     0.098     1.804     2.100
    19   1 H        0.926     0.113     1.669     2.021
    20   1 H        0.924     0.100     1.782     2.087
    21   1 H        0.924     0.100     1.782     2.087
    22   1 H        0.925     0.105     1.740     2.063

 Mol. C6AA /au·bohr⁶  :       6165.462310
 Mol. C8AA /au·bohr⁸  :     161410.606961
 Mol. α(0) /au        :        123.386620


Wiberg/Mayer (AO) data.
largest (>0.10) Wiberg bond orders for each atom

 ---------------------------------------------------------------------------
     #   Z sym  total        # sym  WBO       # sym  WBO       # sym  WBO
 ---------------------------------------------------------------------------
     1  17 Cl   1.205 --     2 C    1.043
     2   6 C    3.936 --     7 C    1.437     3 C    1.323     1 Cl   1.043
     3   6 C    3.982 --     4 C    1.516     2 C    1.323    13 H    0.960
     4   6 C    3.985 --     3 C    1.516     5 C    1.323    14 H    0.959
                             7 C    0.111
     5   6 C    3.954 --     4 C    1.323     6 C    1.266    11 N    1.138
     6   6 C    3.957 --     7 C    1.344     5 C    1.266     8 N    1.134
     7   6 C    3.982 --     2 C    1.437     6 C    1.344    15 H    0.959
                             4 C    0.111
     8   7 N    3.694 --    10 C    1.365     6 C    1.134     9 C    0.990
                            11 N    0.103
     9   6 C    3.934 --     8 N    0.990    18 H    0.976    16 H    0.962
                            17 H    0.962
    10   6 C    3.943 --    11 N    1.368     8 N    1.365    19 H    0.952
    11   7 N    3.692 --    10 C    1.368     5 C    1.138    12 C    0.988
                             8 N    0.103
    12   6 C    3.934 --    11 N    0.988    22 H    0.973    20 H    0.965
                            21 H    0.965
    13   1 H    0.989 --     3 C    0.960
    14   1 H    0.992 --     4 C    0.959
    15   1 H    0.990 --     7 C    0.959
    16   1 H    0.988 --     9 C    0.962
    17   1 H    0.988 --     9 C    0.962
    18   1 H    0.990 --     9 C    0.976
    19   1 H    0.986 --    10 C    0.952
    20   1 H    0.989 --    12 C    0.965
    21   1 H    0.989 --    12 C    0.965
    22   1 H    0.989 --    12 C    0.973
 ---------------------------------------------------------------------------

Topologies differ in total number of bonds
Writing topology from bond orders to xtbtopo.mol

molecular dipole:
                 x           y           z       tot (Debye)
 q only:       11.752      -2.012       0.013
   full:       11.506      -2.085       0.012      29.722
molecular quadrupole (traceless):
                xx          xy          yy          xz          yz          zz
 q only:      135.049     -32.532     -51.495       0.296      -0.016     -83.554
  q+dip:      136.410     -35.136     -51.012       0.327      -0.024     -85.398
   full:      135.800     -34.777     -52.533       0.314      -0.023     -83.267

           -------------------------------------------------
          |                Geometry Summary                 |
           -------------------------------------------------

      molecular mass/u    :      181.6423746
   center of mass at/Å    :        4.4704536      -0.6081929      -0.0012949
  moments of inertia/u·Å² :        0.3265708E+03   0.9209703E+03   0.1241208E+04
rotational constants/cm⁻¹ :        0.5162015E-01   0.1830421E-01   0.1358164E-01

 * 23 selected distances

     #   Z          #   Z                                           value/Å
     1  17 Cl       2   6 C                                       1.7138364 (max)
     2   6 C        3   6 C                                       1.4059821
     3   6 C        4   6 C                                       1.3757575
     4   6 C        5   6 C                                       1.3927677
     5   6 C        6   6 C                                       1.4098013
     2   6 C        7   6 C                                       1.3854445
     6   6 C        7   6 C                                       1.3881883
     6   6 C        8   7 N                                       1.3780984
     8   7 N        9   6 C                                       1.4373560
     8   7 N       10   6 C                                       1.3293475
     5   6 C       11   7 N                                       1.3782802
    10   6 C       11   7 N                                       1.3301981
    11   7 N       12   6 C                                       1.4401406
     3   6 C       13   1 H                                       1.0779997
     4   6 C       14   1 H                                       1.0774893
     7   6 C       15   1 H                                       1.0767694
     9   6 C       16   1 H                                       1.0907936
     9   6 C       17   1 H                                       1.0907976
     9   6 C       18   1 H                                       1.0874766
    10   6 C       19   1 H                                       1.0745602 (min)
    12   6 C       20   1 H                                       1.0905108
    12   6 C       21   1 H                                       1.0905117
    12   6 C       22   1 H                                       1.0864136

 * 4 distinct bonds (by element types)

   Z      Z             #   av. dist./Å        max./Å        min./Å
   1 H    6 C          10     1.0843322     1.0907976     1.0745602
   6 C    6 C           6     1.3929902     1.4098013     1.3757575
   6 C    7 N           6     1.3822368     1.4401406     1.3293475
   6 C   17 Cl          1     1.7138364     1.7138364     1.7138364


optimized geometry written to: xtbopt.xyz


           -------------------------------------------------
          | TOTAL ENERGY              -34.409584278976 Eh   |
          | GRADIENT NORM               0.000291822523 Eh/α |
          | HOMO-LUMO GAP               2.768165076950 eV   |
           -------------------------------------------------

------------------------------------------------------------------------
 * finished run on 2024/12/20 at 06:48:09.351     
------------------------------------------------------------------------
 total:
 * wall-time:     0 d,  0 h,  0 min,  0.085 sec
 *  cpu-time:     0 d,  0 h,  0 min,  0.659 sec
 * ratio c/w:     7.803 speedup
 SCF:
 * wall-time:     0 d,  0 h,  0 min,  0.016 sec
 *  cpu-time:     0 d,  0 h,  0 min,  0.126 sec
 * ratio c/w:     7.758 speedup
 ANC optimizer:
 * wall-time:     0 d,  0 h,  0 min,  0.053 sec
 *  cpu-time:     0 d,  0 h,  0 min,  0.421 sec
 * ratio c/w:     7.995 speedup

