18
 energy: -24.177778459131 gnorm: 0.000337257120 xtb: 6.7.1 (edcfbbe)
C            0.72582642783357        0.03040806172086       -0.10180215059616
C            0.69079393401341       -0.66205434533347        1.25672375075156
N            0.26651606825404        1.39852932920012        0.01387865835397
C            1.01460621993208        2.48842806768551        0.32967060351098
N            0.26947007801332        3.54725034384361        0.40957375223461
N           -0.96985306704907        3.15079396646790        0.15060594452741
C           -0.98923034184389        1.84772998107971       -0.08969946623506
C           -2.05900605266699        4.08351988032575        0.17244205806984
H            0.08313687441648       -0.49140591107104       -0.81325228923685
H            1.74551451973309        0.04927136209104       -0.49099607531961
H            1.32335253565981       -0.14505869068807        1.97395227093689
H           -0.32283572223364       -0.70538112102215        1.64747322669136
H            1.05818773184153       -1.67786970287791        1.14839092003788
H            2.07477045347423        2.48217767686652        0.48417766716282
H           -1.85261743032914        1.25957880075447       -0.33275671876360
H           -2.75509777201948        3.87794858636184       -0.63862055658337
H           -2.59007983389029        4.02464166470223        1.12414419060200
H           -1.64574462313908        5.08504204989310        0.06579421385532
