      -----------------------------------------------------------      
     |                   =====================                   |     
     |                           x T B                           |     
     |                   =====================                   |     
     |                         S. Grimme                         |     
     |          Mulliken Center for Theoretical Chemistry        |     
     |                    University of Bonn                     |     
      -----------------------------------------------------------      

   * xtb version 6.7.1 (edcfbbe) compiled by 'conda@3ef47c1a292c' on 2024-11-25

   xtb is free software: you can redistribute it and/or modify it under
   the terms of the GNU Lesser General Public License as published by
   the Free Software Foundation, either version 3 of the License, or
   (at your option) any later version.
   
   xtb is distributed in the hope that it will be useful,
   but WITHOUT ANY WARRANTY; without even the implied warranty of
   MERCHANTABILITY or FITNESS FOR A PARTICULAR PURPOSE.  See the
   GNU Lesser General Public License for more details.
   
   Cite this work as:
   * C. Bannwarth, E. Caldeweyher, S. Ehlert, A. Hansen, P. Pracht,
     J. Seibert, S. Spicher, S. Grimme, WIREs Comput. Mol. Sci., 2020, 11,
     e01493. DOI: 10.1002/wcms.1493
   
   for GFN2-xTB:
   * C. Bannwarth, S. Ehlert and S. Grimme., J. Chem. Theory Comput., 2019,
     15, 1652-1671. DOI: 10.1021/acs.jctc.8b01176
   for GFN1-xTB:
   * S. Grimme, C. Bannwarth, P. Shushkov, J. Chem. Theory Comput., 2017,
     13, 1989-2009. DOI: 10.1021/acs.jctc.7b00118
   for GFN0-xTB:
   * P. Pracht, E. Caldeweyher, S. Ehlert, S. Grimme, ChemRxiv, 2019, preprint.
     DOI: 10.26434/chemrxiv.8326202.v1
   for GFN-FF:
   * S. Spicher and S. Grimme, Angew. Chem. Int. Ed., 2020, 59, 15665-15673.
     DOI: 10.1002/anie.202004239
   
   for ALPB and GBSA implicit solvation:
   * S. Ehlert, M. Stahn, S. Spicher, S. Grimme, J. Chem. Theory Comput.,
     2021, 17, 4250-4261. DOI: 10.1021/acs.jctc.1c00471
   
   for ddCOSMO and CPCM-X implicit solvation:
   * M. Stahn, S. Ehlert, S. Grimme, J. Phys. Chem. A,
     2023, XX, XXXX-XXXX. DOI: 10.1021/acs.jpca.3c04382
   
   for DFT-D4:
   * E. Caldeweyher, C. Bannwarth and S. Grimme, J. Chem. Phys., 2017,
     147, 034112. DOI: 10.1063/1.4993215
   * E. Caldeweyher, S. Ehlert, A. Hansen, H. Neugebauer, S. Spicher,
     C. Bannwarth and S. Grimme, J. Chem. Phys., 2019, 150, 154122.
     DOI: 10.1063/1.5090222
   * E. Caldeweyher, J.-M. Mewes, S. Ehlert and S. Grimme, Phys. Chem. Chem. Phys.
     2020, 22, 8499-8512. DOI: 10.1039/D0CP00502A
   
   for sTDA-xTB:
   * S. Grimme and C. Bannwarth, J. Chem. Phys., 2016, 145, 054103.
     DOI: 10.1063/1.4959605
   
   in the mass-spec context:
   * V. Asgeirsson, C. Bauer and S. Grimme, Chem. Sci., 2017, 8, 4879.
     DOI: 10.1039/c7sc00601b
   * J. Koopman and S. Grimme, ACS Omega 2019, 4, 12, 15120-15133.
     DOI: 10.1021/acsomega.9b02011
   
   for metadynamics refer to:
   * S. Grimme, J. Chem. Theory Comput., 2019, 155, 2847-2862
     DOI: 10.1021/acs.jctc.9b00143
   
   for SPH calculations refer to:
   * S. Spicher and S. Grimme, J. Chem. Theory Comput., 2021, 17, 1701-1714
     DOI: 10.1021/acs.jctc.0c01306
   
   for ONIOM refer to:
   * C. Plett, A. Katbashev, S. Ehlert, S. Grimme, M. Bursch,
     Phys. Chem. Chem. Phys., 2023, 25, 17860-17868. DOI: 10.1039/D3CP02178E
   
   for DIPRO refer to:
   * J. Kohn, N. Gildemeister, S. Grimme, D. Fazzi, A. Hansen,
     J. Chem. Phys., 2023, just accepted.
   
   for PTB refer to:
   * S. Grimme, M. Mueller, A. Hansen, J. Chem. Phys., 2023, 158, 124111.
     DOI: 10.1063/5.0137838
   
   with help from (in alphabetical order)
   P. Atkinson, C. Bannwarth, F. Bohle, G. Brandenburg, E. Caldeweyher
   M. Checinski, S. Dohm, S. Ehlert, S. Ehrlich, I. Gerasimov, C. Hölzer
   A. Katbashev, J. Kohn, J. Koopman, C. Lavigne, S. Lehtola, F. März, M. Müller,
   F. Musil, H. Neugebauer, J. Pisarek, C. Plett, P. Pracht, F. Pultar,
   J. Seibert, P. Shushkov, S. Spicher, M. Stahn, M. Steiner, T. Strunk,
   J. Stückrath, T. Rose, and J. Unsleber
   
 * started run on 2024/12/20 at 06:48:28.149     
   ID    Z sym.   atoms
    1    6 C      1, 2, 4, 5, 7-10
    2    7 N      3, 6
    3    1 H      11-27

           -------------------------------------------------
          |                Calculation Setup                |
           -------------------------------------------------

          program call               : xtb C0558.xyz --opt --namespace C0558 --charge +1
          calculation namespace      : C0558
          coordinate file            : C0558.xyz
          omp threads                :                     8


           -------------------------------------------------
          |                 G F N 2 - x T B                 |
           -------------------------------------------------

        Reference                      10.1021/acs.jctc.8b01176
      * Hamiltonian:
        H0-scaling (s, p, d)           1.850000    2.230000    2.230000
        zeta-weighting                 0.500000
      * Dispersion:
        s8                             2.700000
        a1                             0.520000
        a2                             5.000000
        s9                             5.000000
      * Repulsion:
        kExp                           1.500000    1.000000
        rExp                           1.000000
      * Coulomb:
        alpha                          2.000000
        third order                    shell-resolved
        anisotropic                    true
        a3                             3.000000
        a5                             4.000000
        cn-shift                       1.200000
        cn-exp                         4.000000
        max-rad                        5.000000


          ...................................................
          :                      SETUP                      :
          :.................................................:
          :  # basis functions                  57          :
          :  # atomic orbitals                  57          :
          :  # shells                           37          :
          :  # electrons                        58          :
          :  max. iterations                   250          :
          :  Hamiltonian                  GFN2-xTB          :
          :  restarted?                      false          :
          :  GBSA solvation                  false          :
          :  PC potential                    false          :
          :  electronic temp.          300.0000000     K    :
          :  accuracy                    1.0000000          :
          :  -> integral cutoff          0.2500000E+02      :
          :  -> integral neglect         0.1000000E-07      :
          :  -> SCF convergence          0.1000000E-05 Eh   :
          :  -> wf. convergence          0.1000000E-03 e    :
          :  Broyden damping             0.4000000          :
          :  net charge                          1          :
          :  unpaired electrons                  0          :
          ...................................................

 iter      E             dE          RMSdq      gap      omega  full diag
   1    -31.5161964 -0.315162E+02  0.274E+00    7.24       0.0  T
   2    -31.6179853 -0.101789E+00  0.209E+00    6.01       1.0  T
   3    -31.6208930 -0.290768E-02  0.124E+00    6.18       1.0  T
   4    -31.6212111 -0.318129E-03  0.124E-01    6.08       1.0  T
   5    -31.6212490 -0.378711E-04  0.567E-02    6.08       1.0  T
   6    -31.6212501 -0.110937E-05  0.211E-02    6.08       1.0  T
   7    -31.6212512 -0.111988E-05  0.216E-03    6.09       8.9  T
   8    -31.6212512 -0.865815E-08  0.847E-04    6.09      22.7  T
   9    -31.6212512 -0.193559E-08  0.157E-04    6.09     122.5  T

   *** convergence criteria satisfied after 9 iterations ***

         #    Occupation            Energy/Eh            Energy/eV
      -------------------------------------------------------------
         1        2.0000           -0.8529865             -23.2109
       ...           ...                  ...                  ...
        23        2.0000           -0.6325749             -17.2132
        24        2.0000           -0.6152423             -16.7416
        25        2.0000           -0.6049297             -16.4610
        26        2.0000           -0.5930649             -16.1381
        27        2.0000           -0.5912448             -16.0886
        28        2.0000           -0.5888226             -16.0227
        29        2.0000           -0.5229862             -14.2312 (HOMO)
        30                         -0.2992799              -8.1438 (LUMO)
        31                         -0.2326295              -6.3302
        32                         -0.2228772              -6.0648
        33                         -0.1840133              -5.0073
        34                         -0.1327145              -3.6113
       ...                                ...                  ...
        57                          0.1478556               4.0234
      -------------------------------------------------------------
                  HL-Gap            0.2237063 Eh            6.0874 eV
             Fermi-level           -0.4111330 Eh          -11.1875 eV

 SCC (total)                   0 d,  0 h,  0 min,  0.011 sec
 SCC setup                      ...        0 min,  0.000 sec (  1.322%)
 Dispersion                     ...        0 min,  0.000 sec (  1.716%)
 classical contributions        ...        0 min,  0.000 sec (  0.360%)
 integral evaluation            ...        0 min,  0.001 sec (  7.876%)
 iterations                     ...        0 min,  0.008 sec ( 67.520%)
 molecular gradient             ...        0 min,  0.002 sec ( 20.095%)
 printout                       ...        0 min,  0.000 sec (  0.974%)

         :::::::::::::::::::::::::::::::::::::::::::::::::::::
         ::                     SUMMARY                     ::
         :::::::::::::::::::::::::::::::::::::::::::::::::::::
         :: total energy             -31.249951941464 Eh    ::
         :: gradient norm              0.079281754144 Eh/a0 ::
         :: HOMO-LUMO gap              6.087358672873 eV    ::
         ::.................................................::
         :: SCC energy               -31.621037823985 Eh    ::
         :: -> isotropic ES            0.082436595174 Eh    ::
         :: -> anisotropic ES         -0.002795643226 Eh    ::
         :: -> anisotropic XC          0.023344427448 Eh    ::
         :: -> dispersion             -0.021106927784 Eh    ::
         :: repulsion energy           0.371085882520 Eh    ::
         :: add. restraining           0.000000000000 Eh    ::
         :: total charge               1.000000000000 e     ::
         :::::::::::::::::::::::::::::::::::::::::::::::::::::

      ----------------------------------------------------------- 
     |                   =====================                   |
     |                        A N C O P T                        |
     |                   =====================                   |
     |               Approximate Normal Coordinate               |
     |                Rational Function Optimizer                |
      ----------------------------------------------------------- 
      ----------------------------------------------------------- 
     |                   =====================                   |
     |                        A N C O P T                        |
     |                   =====================                   |
     |               Approximate Normal Coordinate               |
     |                Rational Function Optimizer                |
      ----------------------------------------------------------- 

          ...................................................
          :                      SETUP                      :
          :.................................................:
          :   optimization level            normal          :
          :   max. optcycles                   200          :
          :   ANC micro-cycles                  20          :
          :   degrees of freedom                75          :
          :.................................................:
          :   RF solver                   davidson          :
          :   write xtbopt.log                true          :
          :   linear?                        false          :
          :   energy convergence         0.5000000E-05 Eh   :
          :   grad. convergence          0.1000000E-02 Eh/α :
          :   maxmium RF displ.          1.0000000          :
          :   Hlow (freq-cutoff)         0.1000000E-01      :
          :   Hmax (freq-cutoff)         5.0000000          :
          :   S6 in model hess.         20.0000000          :
          ...................................................

generating ANC from exact Hessian ...
Using Lindh-Hessian (1995)
 Shifting diagonal of input Hessian by    7.6290775996164500E-003
 Lowest  eigenvalues of input Hessian
    0.000000    0.000000    0.000000    0.000000    0.000000    0.000000
    0.010000    0.011740    0.013337    0.014742    0.018677    0.018836
    0.021954    0.022134    0.023935    0.024484    0.038503    0.042150
 Highest eigenvalues
    1.170497    1.183145    1.228355    1.289445    1.318782    1.320552


........................................................................
.............................. CYCLE    1 ..............................
........................................................................

 iter      E             dE          RMSdq      gap      omega  full diag
   1    -31.6212512 -0.316213E+02  0.785E-05    6.09       0.0  T
   2    -31.6212512 -0.730793E-11  0.454E-05    6.09     423.9  T
   3    -31.6212512  0.319744E-13  0.122E-05    6.09    1583.6  T
     SCC iter.                  ...        0 min,  0.002 sec
     gradient                   ...        0 min,  0.002 sec
 * total energy  :   -31.2499519 Eh     change       -0.7291945E-10 Eh
   gradient norm :     0.0792823 Eh/α   predicted     0.0000000E+00 (-100.00%)
   displ. norm   :     0.3195173 α      lambda       -0.1709116E-01
   maximum displ.:     0.1574644 α      in ANC's #27, #48, #18, ...

........................................................................
.............................. CYCLE    2 ..............................
........................................................................

 iter      E             dE          RMSdq      gap      omega  full diag
   1    -31.6547769 -0.316548E+02  0.255E-01    6.69       0.0  T
   2    -31.6549994 -0.222508E-03  0.151E-01    6.66       1.0  T
   3    -31.6550036 -0.420862E-05  0.620E-02    6.66       1.0  T
   4    -31.6550057 -0.203106E-05  0.410E-03    6.66       4.7  T
   5    -31.6550057 -0.404072E-07  0.227E-03    6.66       8.5  T
   6    -31.6550057 -0.529860E-08  0.282E-04    6.66      68.3  T
   7    -31.6550057 -0.133753E-09  0.105E-04    6.66     183.1  T
     SCC iter.                  ...        0 min,  0.004 sec
     gradient                   ...        0 min,  0.002 sec
 * total energy  :   -31.2617237 Eh     change       -0.1177176E-01 Eh
   gradient norm :     0.0358790 Eh/α   predicted    -0.9418306E-02 ( -19.99%)
   displ. norm   :     0.2515014 α      lambda       -0.5222022E-02
   maximum displ.:     0.1427898 α      in ANC's #27, #18, #11, ...

........................................................................
.............................. CYCLE    3 ..............................
........................................................................

 iter      E             dE          RMSdq      gap      omega  full diag
   1    -31.6722637 -0.316723E+02  0.160E-01    7.36       0.0  T
   2    -31.6724449 -0.181256E-03  0.103E-01    7.36       1.0  T
   3    -31.6724473 -0.238653E-05  0.529E-02    7.36       1.0  T
   4    -31.6724477 -0.441413E-06  0.349E-03    7.36       5.5  T
   5    -31.6724478 -0.155441E-07  0.172E-03    7.36      11.2  T
   6    -31.6724478 -0.335537E-08  0.330E-04    7.36      58.4  T
   7    -31.6724478 -0.242906E-09  0.904E-05    7.36     212.9  T
     SCC iter.                  ...        0 min,  0.004 sec
     gradient                   ...        0 min,  0.002 sec
 * total energy  :   -31.2641702 Eh     change       -0.2446511E-02 Eh
   gradient norm :     0.0065866 Eh/α   predicted    -0.2776166E-02 (  13.47%)
   displ. norm   :     0.0328844 α      lambda       -0.1376798E-03
   maximum displ.:     0.0201645 α      in ANC's #27, #24, #45, ...

........................................................................
.............................. CYCLE    4 ..............................
........................................................................

 iter      E             dE          RMSdq      gap      omega  full diag
   1    -31.6705448 -0.316705E+02  0.337E-02    7.33       0.0  T
   2    -31.6705464 -0.163422E-05  0.197E-02    7.33       1.0  T
   3    -31.6705464 -0.313683E-07  0.444E-03    7.33       4.3  T
   4    -31.6705465 -0.649456E-07  0.715E-04    7.33      26.9  T
   5    -31.6705465 -0.120007E-08  0.364E-04    7.33      52.9  T
     SCC iter.                  ...        0 min,  0.003 sec
     gradient                   ...        0 min,  0.002 sec
 * total energy  :   -31.2642400 Eh     change       -0.6979806E-04 Eh
   gradient norm :     0.0025010 Eh/α   predicted    -0.6893100E-04 (  -1.24%)
   displ. norm   :     0.0086515 α      lambda       -0.1264160E-04
   maximum displ.:     0.0038008 α      in ANC's #48, #18, #11, ...

........................................................................
.............................. CYCLE    5 ..............................
........................................................................

 iter      E             dE          RMSdq      gap      omega  full diag
   1    -31.6700069 -0.316700E+02  0.899E-03    7.34       0.0  T
   2    -31.6700070 -0.839421E-07  0.514E-03    7.34       3.7  T
   3    -31.6700070 -0.164052E-08  0.965E-04    7.34      19.9  T
   4    -31.6700070 -0.460517E-08  0.191E-04    7.34     101.0  T
     SCC iter.                  ...        0 min,  0.002 sec
     gradient                   ...        0 min,  0.002 sec
 * total energy  :   -31.2642471 Eh     change       -0.7105070E-05 Eh
   gradient norm :     0.0009052 Eh/α   predicted    -0.6354435E-05 ( -10.56%)
   displ. norm   :     0.0064767 α      lambda       -0.1927607E-05
   maximum displ.:     0.0028154 α      in ANC's #11, #2, #1, ...

........................................................................
.............................. CYCLE    6 ..............................
........................................................................

 iter      E             dE          RMSdq      gap      omega  full diag
   1    -31.6700667 -0.316701E+02  0.404E-03    7.35       0.0  T
   2    -31.6700669 -0.177873E-06  0.248E-03    7.35       7.8  T
   3    -31.6700669 -0.505579E-08  0.142E-03    7.35      13.6  T
   4    -31.6700669 -0.380670E-09  0.138E-04    7.35     139.0  T
   5    -31.6700669 -0.150557E-09  0.615E-05    7.35     313.0  T
     SCC iter.                  ...        0 min,  0.003 sec
     gradient                   ...        0 min,  0.002 sec
 * total energy  :   -31.2642478 Eh     change       -0.7212583E-06 Eh
   gradient norm :     0.0004268 Eh/α   predicted    -0.9696471E-06 (  34.44%)
   displ. norm   :     0.0026969 α      lambda       -0.4707545E-06
   maximum displ.:     0.0009941 α      in ANC's #11, #1, #16, ...

   *** GEOMETRY OPTIMIZATION CONVERGED AFTER 6 ITERATIONS ***

------------------------------------------------------------------------
 total energy gain   :        -0.0142959 Eh       -8.9708 kcal/mol
 total RMSD          :         0.1025919 a0        0.0543 Å
 total power (kW/mol):        -6.2556431 (step) -512.0992 (real)
------------------------------------------------------------------------

 ANCopt (total)                0 d,  0 h,  0 min,  0.073 sec
 optimizer setup                ...        0 min,  0.000 sec (  0.104%)
 model hessian                  ...        0 min,  0.034 sec ( 45.910%)
 ANC generation                 ...        0 min,  0.001 sec (  0.719%)
 coordinate transformation      ...        0 min,  0.000 sec (  0.062%)
 single point calculation       ...        0 min,  0.038 sec ( 51.428%)
 optimization log               ...        0 min,  0.000 sec (  0.601%)
 hessian update                 ...        0 min,  0.000 sec (  0.108%)
 rational function              ...        0 min,  0.001 sec (  0.713%)

================
 final structure:
================
27
 xtb: 6.7.1 (edcfbbe)
C            0.95148420555047        0.03077405920024        0.04788547160830
C            0.50186565017487        0.53917457892555       -1.31285044219131
N            0.87123881586849       -0.30626071201249       -2.48693423759669
C            0.26870145458587       -1.66006997002217       -2.38903284434290
C            0.63568295850990       -2.47220923283905       -3.65846138718974
N            1.45203404213167       -1.67450296567113       -4.54295173228532
C            2.67082478109100       -1.28395469033954       -3.87427724068651
C            2.34440545254846       -0.44859621991092       -2.60884148237403
C            0.72210561232880       -0.49924809389698       -4.95541381058995
C            0.35472587745239        0.35527556652998       -3.71660547592044
H            0.51582675619647       -0.93201761326477        0.29831181820892
H            0.60722055424959        0.74385909720622        0.79289034569292
H            2.03245225970672       -0.02853128402553        0.13433677051696
H           -0.58651418522203        0.63532108847121       -1.31524130740235
H            0.93055099262848        1.52989337161800       -1.48175925750376
H           -0.81154124810564       -1.54849724068901       -2.28489301706971
H            0.65606115780956       -2.14778884677615       -1.49541219115095
H            1.18961628951012       -3.37362680437392       -3.39376362031776
H           -0.26212807082656       -2.77824875733439       -4.19660588151425
H            3.22548824405491       -2.18501065845061       -3.60988074972273
H            3.28081650630031       -0.70940246956223       -4.57222180653271
H            2.71961348664719       -0.94388411318650       -1.71421398546137
H            2.78230430794083        0.54906316168679       -2.66492076470890
H            1.34118836882877        0.06957814918448       -5.65004920852579
H           -0.17476775644085       -0.81543928897376       -5.48925709760551
H           -0.72644594806037        0.46392430972926       -3.61887151600602
H            0.79468943454055        1.35159557877742       -3.78032534932840

 Bond Distances (Angstroems)
 ---------------------------
C1-C2=1.5206         C1-H11=1.0860        C1-H12=1.0872        C1-H13=1.0860        C2-C1=1.5206         C2-N3=1.4932         
C2-H14=1.0926        C2-H15=1.0926        N3-C2=1.4932         N3-C4=1.4851         N3-C8=1.4850         N3-C10=1.4888        
C4-N3=1.4851         C4-C5=1.5510         C4-H16=1.0910        C4-H17=1.0893        C5-C4=1.5510         C5-N6=1.4440         
C5-H18=1.0906        C5-H19=1.0906        N6-C5=1.4440         N6-C7=1.4440         N6-C9=1.4437         C7-N6=1.4440         
C7-C8=1.5510         C7-H20=1.0906        C7-H21=1.0906        C8-N3=1.4850         C8-C7=1.5510         C8-H22=1.0892        
C8-H23=1.0910        C9-N6=1.4437         C9-C10=1.5491        C9-H24=1.0906        C9-H25=1.0906        C10-N3=1.4888        
C10-C9=1.5491        C10-H26=1.0910       C10-H27=1.0910       H11-C1=1.0860        H12-C1=1.0872        H13-C1=1.0860        
H14-C2=1.0926        H15-C2=1.0926        H16-C4=1.0910        H17-C4=1.0893        H18-C5=1.0906        H19-C5=1.0906        
H20-C7=1.0906        H21-C7=1.0906        H22-C8=1.0892        H23-C8=1.0910        H24-C9=1.0906        H25-C9=1.0906        
H26-C10=1.0910       H27-C10=1.0910       
 C  H  Rav=1.0900 sigma=0.0019  Rmin=1.0860  Rmax=1.0926    17
 C  C  Rav=1.5430 sigma=0.0129  Rmin=1.5206  Rmax=1.5510     4
 N  C  Rav=1.4691 sigma=0.0220  Rmin=1.4437  Rmax=1.4932     7

 selected bond angles (degree)
 --------------------
H11-C1-C2=112.59               H12-C1-C2=107.47               H12-C1-H11=107.24              H13-C1-C2=112.57               
H13-C1-H11=109.42              H13-C1-H12=107.24              N3-C2-C1=116.18                H14-C2-C1=109.02               
H14-C2-N3=107.13               H15-C2-C1=109.00               H15-C2-N3=107.14               H15-C2-H14=108.10              
C4-N3-C2=111.34                C8-N3-C2=111.36                C8-N3-C4=108.69                C10-N3-C2=108.18               
C10-N3-C4=108.59               C10-N3-C8=108.60               C5-C4-N3=109.11                H16-C4-N3=108.35               
H16-C4-C5=111.47               H17-C4-N3=108.54               H17-C4-C5=110.66               H17-C4-H16=108.64              
N6-C5-C4=110.23                H18-C5-C4=110.75               H18-C5-N6=108.55               H19-C5-C4=110.86               
H19-C5-N6=108.55               H19-C5-H18=107.82              C7-N6-C5=110.06                C9-N6-C5=109.81                
C9-N6-C7=109.81                C8-C7-N6=110.23                H20-C7-N6=108.55               H20-C7-C8=110.75               
H21-C7-N6=108.56               H21-C7-C8=110.86               H21-C7-H20=107.82              C7-C8-N3=109.11                
H22-C8-N3=108.53               H22-C8-C7=110.65               H23-C8-N3=108.35               H23-C8-C7=111.48               
H23-C8-H22=108.65              C10-C9-N6=109.91               H24-C9-N6=108.64               H24-C9-C10=110.87              
H25-C9-N6=108.64               H25-C9-C10=110.88              H25-C9-H24=107.84              C9-C10-N3=109.46               
H26-C10-N3=108.30              H26-C10-C9=111.20              H27-C10-N3=108.31              H27-C10-C9=111.19              
H27-C10-H26=108.30             

 selected dihedral angles (degree)
 ---------------------------------
N3-C2-C1-H11=298.15           N3-C2-C1-H12=180.27           N3-C2-C1-H13= 62.41           H14-C2-C1-H11= 59.25          
H14-C2-C1-H12=301.38          H14-C2-C1-H13=183.51          H15-C2-C1-H11=177.04          H15-C2-C1-H12= 59.17          
H15-C2-C1-H13=301.30          C4-N3-C2-C1= 61.07            C4-N3-C2-H14=298.96           C4-N3-C2-H15=183.15           
C8-N3-C2-C1=299.58            C8-N3-C2-H14=177.47           C8-N3-C2-H15= 61.67           C10-N3-C2-C1=180.31           
C10-N3-C2-H14= 58.20          C10-N3-C2-H15=302.40          C5-C4-N3-C2=177.68            C5-C4-N3-C8=300.70            
C5-C4-N3-C10= 58.68           H16-C4-N3-C2= 56.15           H16-C4-N3-C8=179.17           H16-C4-N3-C10=297.15          
H17-C4-N3-C2=298.35           H17-C4-N3-C8= 61.37           H17-C4-N3-C10=179.35          N6-C5-C4-N3=  0.27            
N6-C5-C4-H16=119.89           N6-C5-C4-H17=240.91           H18-C5-C4-N3=120.42           H18-C5-C4-H16=240.04          
H18-C5-C4-H17=  1.06          H19-C5-C4-N3=240.05           H19-C5-C4-H16=359.67          H19-C5-C4-H17=120.69          
C7-N6-C5-C4= 60.09            C7-N6-C5-H18=298.62           C7-N6-C5-H19=181.69           C9-N6-C5-C4=299.09            
C9-N6-C5-H18=177.63           C9-N6-C5-H19= 60.69           C8-C7-N6-C5=299.93            C8-C7-N6-C9= 60.93            
H20-C7-N6-C5= 61.39           H20-C7-N6-C9=182.38           H21-C7-N6-C5=178.33           H21-C7-N6-C9=299.32           
C7-C8-N3-C2=182.33            C7-C8-N3-C4= 59.32            C7-C8-N3-C10=301.35           H22-C8-N3-C2= 61.68           
H22-C8-N3-C4=298.66           H22-C8-N3-C10=180.70          H23-C8-N3-C2=303.87           H23-C8-N3-C4=180.86           
H23-C8-N3-C10= 62.89          N3-C8-C7-N6=359.69            N3-C8-C7-H20=239.55           N3-C8-C7-H21=119.91           
H22-C8-C7-N6=119.03           H22-C8-C7-H20=358.90          H22-C8-C7-H21=239.26          H23-C8-C7-N6=240.07           
H23-C8-C7-H20=119.93          H23-C8-C7-H21=  0.29          C10-C9-N6-C5= 60.58           C10-C9-N6-C7=299.43           
H24-C9-N6-C5=182.04           H24-C9-N6-C7= 60.90           H25-C9-N6-C5=299.10           H25-C9-N6-C7=177.96           
C9-C10-N3-C2=180.02           C9-C10-N3-C4=300.99           C9-C10-N3-C8= 59.02           H26-C10-N3-C2=301.40          
H26-C10-N3-C4= 62.37          H26-C10-N3-C8=180.40          H27-C10-N3-C2= 58.64          H27-C10-N3-C4=179.61          
H27-C10-N3-C8=297.64          N3-C10-C9-N6=  0.00           N3-C10-C9-H24=239.87          N3-C10-C9-H25=120.12          
H26-C10-C9-N6=240.37          H26-C10-C9-H24=120.25         H26-C10-C9-H25=  0.50         H27-C10-C9-N6=119.61          
H27-C10-C9-H24=359.49         H27-C10-C9-H25=239.74         
           -------------------------------------------------
          |                Final Singlepoint                |
           -------------------------------------------------

          ...................................................
          :                      SETUP                      :
          :.................................................:
          :  # basis functions                  57          :
          :  # atomic orbitals                  57          :
          :  # shells                           37          :
          :  # electrons                        58          :
          :  max. iterations                   250          :
          :  Hamiltonian                  GFN2-xTB          :
          :  restarted?                      false          :
          :  GBSA solvation                  false          :
          :  PC potential                    false          :
          :  electronic temp.          300.0000000     K    :
          :  accuracy                    1.0000000          :
          :  -> integral cutoff          0.2500000E+02      :
          :  -> integral neglect         0.1000000E-07      :
          :  -> SCF convergence          0.1000000E-05 Eh   :
          :  -> wf. convergence          0.1000000E-03 e    :
          :  Broyden damping             0.4000000          :
          :  net charge                          1          :
          :  unpaired electrons                  0          :
          ...................................................

 iter      E             dE          RMSdq      gap      omega  full diag
   1    -31.6700669 -0.316701E+02  0.182E-05    7.35       0.0  T
   2    -31.6700669 -0.390799E-12  0.103E-05    7.35    1868.8  T
   3    -31.6700669 -0.319744E-13  0.192E-06    7.35   10041.3  T

   *** convergence criteria satisfied after 3 iterations ***

         #    Occupation            Energy/Eh            Energy/eV
      -------------------------------------------------------------
         1        2.0000           -0.8687176             -23.6390
       ...           ...                  ...                  ...
        23        2.0000           -0.6343897             -17.2626
        24        2.0000           -0.6176106             -16.8060
        25        2.0000           -0.6075643             -16.5327
        26        2.0000           -0.5970471             -16.2465
        27        2.0000           -0.5952352             -16.1972
        28        2.0000           -0.5906565             -16.0726
        29        2.0000           -0.5159497             -14.0397 (HOMO)
        30                         -0.2457937              -6.6884 (LUMO)
        31                         -0.1738334              -4.7302
        32                         -0.1703582              -4.6357
        33                         -0.1604994              -4.3674
        34                         -0.1000341              -2.7221
       ...                                ...                  ...
        57                          0.1645975               4.4789
      -------------------------------------------------------------
                  HL-Gap            0.2701560 Eh            7.3513 eV
             Fermi-level           -0.3808717 Eh          -10.3640 eV

 SCC (total)                   0 d,  0 h,  0 min,  0.005 sec
 SCC setup                      ...        0 min,  0.000 sec (  1.079%)
 Dispersion                     ...        0 min,  0.000 sec (  1.771%)
 classical contributions        ...        0 min,  0.000 sec (  0.349%)
 integral evaluation            ...        0 min,  0.001 sec ( 14.045%)
 iterations                     ...        0 min,  0.002 sec ( 35.812%)
 molecular gradient             ...        0 min,  0.002 sec ( 44.981%)
 printout                       ...        0 min,  0.000 sec (  1.681%)

         :::::::::::::::::::::::::::::::::::::::::::::::::::::
         ::                     SUMMARY                     ::
         :::::::::::::::::::::::::::::::::::::::::::::::::::::
         :: total energy             -31.264247833153 Eh    ::
         :: gradient norm              0.000426666802 Eh/a0 ::
         :: HOMO-LUMO gap              7.351318285854 eV    ::
         ::.................................................::
         :: SCC energy               -31.669869330778 Eh    ::
         :: -> isotropic ES            0.083370978188 Eh    ::
         :: -> anisotropic ES         -0.002790213126 Eh    ::
         :: -> anisotropic XC          0.022258175692 Eh    ::
         :: -> dispersion             -0.021514000487 Eh    ::
         :: repulsion energy           0.405621497626 Eh    ::
         :: add. restraining           0.000000000000 Eh    ::
         :: total charge               1.000000000000 e     ::
         :::::::::::::::::::::::::::::::::::::::::::::::::::::

           -------------------------------------------------
          |                Property Printout                |
           -------------------------------------------------

    * Orbital Energies and Occupations

         #    Occupation            Energy/Eh            Energy/eV
      -------------------------------------------------------------
         1        2.0000           -0.8687176             -23.6390
       ...           ...                  ...                  ...
        17        2.0000           -0.6651424             -18.0994
        18        2.0000           -0.6616124             -18.0034
        19        2.0000           -0.6615683             -18.0022
        20        2.0000           -0.6602628             -17.9667
        21        2.0000           -0.6475378             -17.6204
        22        2.0000           -0.6409034             -17.4399
        23        2.0000           -0.6343897             -17.2626
        24        2.0000           -0.6176106             -16.8060
        25        2.0000           -0.6075643             -16.5327
        26        2.0000           -0.5970471             -16.2465
        27        2.0000           -0.5952352             -16.1972
        28        2.0000           -0.5906565             -16.0726
        29        2.0000           -0.5159497             -14.0397 (HOMO)
        30                         -0.2457937              -6.6884 (LUMO)
        31                         -0.1738334              -4.7302
        32                         -0.1703582              -4.6357
        33                         -0.1604994              -4.3674
        34                         -0.1000341              -2.7221
        35                         -0.0960739              -2.6143
        36                         -0.0945078              -2.5717
        37                         -0.0711718              -1.9367
        38                         -0.0484851              -1.3193
        39                         -0.0382199              -1.0400
        40                         -0.0311294              -0.8471
       ...                                ...                  ...
        57                          0.1645975               4.4789
      -------------------------------------------------------------
                  HL-Gap            0.2701560 Eh            7.3513 eV
             Fermi-level           -0.3808717 Eh          -10.3640 eV

     #   Z          covCN         q      C6AA      α(0)
     1   6 C        3.751    -0.129    23.032     6.844
     2   6 C        3.756    -0.032    21.192     6.564
     3   7 N        3.625     0.120    19.190     6.506
     4   6 C        3.764    -0.037    21.274     6.575
     5   6 C        3.783    -0.015    20.868     6.507
     6   7 N        2.731    -0.147    24.173     7.302
     7   6 C        3.783    -0.015    20.869     6.507
     8   6 C        3.764    -0.037    21.275     6.575
     9   6 C        3.784    -0.015    20.855     6.505
    10   6 C        3.770    -0.037    21.262     6.571
    11   1 H        0.925     0.067     2.119     2.277
    12   1 H        0.925     0.089     1.888     2.149
    13   1 H        0.925     0.067     2.118     2.276
    14   1 H        0.924     0.082     1.962     2.191
    15   1 H        0.924     0.082     1.962     2.190
    16   1 H        0.924     0.079     1.990     2.206
    17   1 H        0.925     0.084     1.934     2.175
    18   1 H        0.924     0.078     1.995     2.209
    19   1 H        0.924     0.079     1.994     2.208
    20   1 H        0.924     0.078     1.995     2.209
    21   1 H        0.924     0.079     1.994     2.208
    22   1 H        0.925     0.085     1.932     2.174
    23   1 H        0.924     0.079     1.990     2.206
    24   1 H        0.924     0.079     1.990     2.206
    25   1 H        0.924     0.079     1.990     2.206
    26   1 H        0.924     0.079     1.990     2.206
    27   1 H        0.924     0.079     1.990     2.206

 Mol. C6AA /au·bohr⁶  :       4916.202213
 Mol. C8AA /au·bohr⁸  :     105821.805904
 Mol. α(0) /au        :        103.957019


Wiberg/Mayer (AO) data.
largest (>0.10) Wiberg bond orders for each atom

 ---------------------------------------------------------------------------
     #   Z sym  total        # sym  WBO       # sym  WBO       # sym  WBO
 ---------------------------------------------------------------------------
     1   6 C    3.981 --     2 C    1.022    13 H    0.980    11 H    0.980
                            12 H    0.971
     2   6 C    3.937 --     1 C    1.022    14 H    0.967    15 H    0.967
                             3 N    0.929
     3   7 N    3.806 --     4 C    0.940     8 C    0.940    10 C    0.939
                             2 C    0.929
     4   6 C    3.933 --     5 C    0.976    16 H    0.972    17 H    0.968
                             3 N    0.940
     5   6 C    3.977 --     6 N    1.014     4 C    0.976    18 H    0.970
                            19 H    0.970
     6   7 N    3.160 --     5 C    1.014     7 C    1.014     9 C    1.014
     7   6 C    3.977 --     6 N    1.014     8 C    0.976    20 H    0.970
                            21 H    0.970
     8   6 C    3.933 --     7 C    0.976    23 H    0.972    22 H    0.968
                             3 N    0.940
     9   6 C    3.976 --     6 N    1.014    10 C    0.977    25 H    0.970
                            24 H    0.970
    10   6 C    3.934 --     9 C    0.977    26 H    0.971    27 H    0.971
                             3 N    0.939
    11   1 H    0.996 --     1 C    0.980
    12   1 H    0.992 --     1 C    0.971
    13   1 H    0.995 --     1 C    0.980
    14   1 H    0.993 --     2 C    0.967
    15   1 H    0.993 --     2 C    0.967
    16   1 H    0.994 --     4 C    0.972
    17   1 H    0.993 --     4 C    0.968
    18   1 H    0.994 --     5 C    0.970
    19   1 H    0.994 --     5 C    0.970
    20   1 H    0.994 --     7 C    0.970
    21   1 H    0.994 --     7 C    0.970
    22   1 H    0.993 --     8 C    0.968
    23   1 H    0.994 --     8 C    0.972
    24   1 H    0.994 --     9 C    0.970
    25   1 H    0.994 --     9 C    0.970
    26   1 H    0.994 --    10 C    0.971
    27   1 H    0.994 --    10 C    0.971
 ---------------------------------------------------------------------------

Topologies differ in total number of bonds
Writing topology from bond orders to xtbtopo.mol

molecular dipole:
                 x           y           z       tot (Debye)
 q only:        1.809      -0.887      -4.875
   full:        1.668      -0.580      -4.511      12.314
molecular quadrupole (traceless):
                xx          xy          yy          xz          yz          zz
 q only:      -10.736      -2.667     -13.940     -13.393       7.666      24.676
  q+dip:       -6.484      -0.599     -11.578     -10.329       1.892      18.063
   full:       -6.909      -0.801     -11.726     -10.366       2.162      18.635

           -------------------------------------------------
          |                Geometry Summary                 |
           -------------------------------------------------

      molecular mass/u    :      141.2342864
   center of mass at/Å    :        1.0739827      -0.7311835      -2.9221626
  moments of inertia/u·Å² :        0.2068868E+03   0.4559205E+03   0.4668221E+03
rotational constants/cm⁻¹ :        0.8148240E-01   0.3697494E-01   0.3611147E-01

 * 25 selected distances

     #   Z          #   Z                                           value/Å
     1   6 C        2   6 C                                       1.5206020 (max)
     2   6 C        3   7 N                                       1.4932081
     3   7 N        4   6 C                                       1.4850710
     5   6 C        6   7 N                                       1.4439834
     6   7 N        7   6 C                                       1.4439892
     3   7 N        8   6 C                                       1.4850391
     6   7 N        9   6 C                                       1.4436568
     3   7 N       10   6 C                                       1.4887940
     1   6 C       11   1 H                                       1.0860381 (min)
     1   6 C       12   1 H                                       1.0872167
     1   6 C       13   1 H                                       1.0860401
     2   6 C       14   1 H                                       1.0926210
     2   6 C       15   1 H                                       1.0926231
     4   6 C       16   1 H                                       1.0909712
     4   6 C       17   1 H                                       1.0892545
     5   6 C       18   1 H                                       1.0906241
     5   6 C       19   1 H                                       1.0905616
     7   6 C       20   1 H                                       1.0906233
     7   6 C       21   1 H                                       1.0905627
     8   6 C       22   1 H                                       1.0892427
     8   6 C       23   1 H                                       1.0909742
     9   6 C       24   1 H                                       1.0905711
     9   6 C       25   1 H                                       1.0905721
    10   6 C       26   1 H                                       1.0910038
    10   6 C       27   1 H                                       1.0910004

 * 3 distinct bonds (by element types)

   Z      Z             #   av. dist./Å        max./Å        min./Å
   1 H    6 C          17     1.0900295     1.0926231     1.0860381
   6 C    6 C           1     1.5206020     1.5206020     1.5206020
   6 C    7 N           7     1.4691059     1.4932081     1.4436568


optimized geometry written to: xtbopt.xyz


           -------------------------------------------------
          | TOTAL ENERGY              -31.264247833153 Eh   |
          | GRADIENT NORM               0.000426666802 Eh/α |
          | HOMO-LUMO GAP               7.351318285854 eV   |
           -------------------------------------------------

------------------------------------------------------------------------
 * finished run on 2024/12/20 at 06:48:28.255     
------------------------------------------------------------------------
 total:
 * wall-time:     0 d,  0 h,  0 min,  0.107 sec
 *  cpu-time:     0 d,  0 h,  0 min,  0.837 sec
 * ratio c/w:     7.855 speedup
 SCF:
 * wall-time:     0 d,  0 h,  0 min,  0.011 sec
 *  cpu-time:     0 d,  0 h,  0 min,  0.090 sec
 * ratio c/w:     7.914 speedup
 ANC optimizer:
 * wall-time:     0 d,  0 h,  0 min,  0.079 sec
 *  cpu-time:     0 d,  0 h,  0 min,  0.634 sec
 * ratio c/w:     7.983 speedup

