      -----------------------------------------------------------      
     |                   =====================                   |     
     |                           x T B                           |     
     |                   =====================                   |     
     |                         S. Grimme                         |     
     |          Mulliken Center for Theoretical Chemistry        |     
     |                    University of Bonn                     |     
      -----------------------------------------------------------      

   * xtb version 6.7.1 (edcfbbe) compiled by 'conda@3ef47c1a292c' on 2024-11-25

   xtb is free software: you can redistribute it and/or modify it under
   the terms of the GNU Lesser General Public License as published by
   the Free Software Foundation, either version 3 of the License, or
   (at your option) any later version.
   
   xtb is distributed in the hope that it will be useful,
   but WITHOUT ANY WARRANTY; without even the implied warranty of
   MERCHANTABILITY or FITNESS FOR A PARTICULAR PURPOSE.  See the
   GNU Lesser General Public License for more details.
   
   Cite this work as:
   * C. Bannwarth, E. Caldeweyher, S. Ehlert, A. Hansen, P. Pracht,
     J. Seibert, S. Spicher, S. Grimme, WIREs Comput. Mol. Sci., 2020, 11,
     e01493. DOI: 10.1002/wcms.1493
   
   for GFN2-xTB:
   * C. Bannwarth, S. Ehlert and S. Grimme., J. Chem. Theory Comput., 2019,
     15, 1652-1671. DOI: 10.1021/acs.jctc.8b01176
   for GFN1-xTB:
   * S. Grimme, C. Bannwarth, P. Shushkov, J. Chem. Theory Comput., 2017,
     13, 1989-2009. DOI: 10.1021/acs.jctc.7b00118
   for GFN0-xTB:
   * P. Pracht, E. Caldeweyher, S. Ehlert, S. Grimme, ChemRxiv, 2019, preprint.
     DOI: 10.26434/chemrxiv.8326202.v1
   for GFN-FF:
   * S. Spicher and S. Grimme, Angew. Chem. Int. Ed., 2020, 59, 15665-15673.
     DOI: 10.1002/anie.202004239
   
   for ALPB and GBSA implicit solvation:
   * S. Ehlert, M. Stahn, S. Spicher, S. Grimme, J. Chem. Theory Comput.,
     2021, 17, 4250-4261. DOI: 10.1021/acs.jctc.1c00471
   
   for ddCOSMO and CPCM-X implicit solvation:
   * M. Stahn, S. Ehlert, S. Grimme, J. Phys. Chem. A,
     2023, XX, XXXX-XXXX. DOI: 10.1021/acs.jpca.3c04382
   
   for DFT-D4:
   * E. Caldeweyher, C. Bannwarth and S. Grimme, J. Chem. Phys., 2017,
     147, 034112. DOI: 10.1063/1.4993215
   * E. Caldeweyher, S. Ehlert, A. Hansen, H. Neugebauer, S. Spicher,
     C. Bannwarth and S. Grimme, J. Chem. Phys., 2019, 150, 154122.
     DOI: 10.1063/1.5090222
   * E. Caldeweyher, J.-M. Mewes, S. Ehlert and S. Grimme, Phys. Chem. Chem. Phys.
     2020, 22, 8499-8512. DOI: 10.1039/D0CP00502A
   
   for sTDA-xTB:
   * S. Grimme and C. Bannwarth, J. Chem. Phys., 2016, 145, 054103.
     DOI: 10.1063/1.4959605
   
   in the mass-spec context:
   * V. Asgeirsson, C. Bauer and S. Grimme, Chem. Sci., 2017, 8, 4879.
     DOI: 10.1039/c7sc00601b
   * J. Koopman and S. Grimme, ACS Omega 2019, 4, 12, 15120-15133.
     DOI: 10.1021/acsomega.9b02011
   
   for metadynamics refer to:
   * S. Grimme, J. Chem. Theory Comput., 2019, 155, 2847-2862
     DOI: 10.1021/acs.jctc.9b00143
   
   for SPH calculations refer to:
   * S. Spicher and S. Grimme, J. Chem. Theory Comput., 2021, 17, 1701-1714
     DOI: 10.1021/acs.jctc.0c01306
   
   for ONIOM refer to:
   * C. Plett, A. Katbashev, S. Ehlert, S. Grimme, M. Bursch,
     Phys. Chem. Chem. Phys., 2023, 25, 17860-17868. DOI: 10.1039/D3CP02178E
   
   for DIPRO refer to:
   * J. Kohn, N. Gildemeister, S. Grimme, D. Fazzi, A. Hansen,
     J. Chem. Phys., 2023, just accepted.
   
   for PTB refer to:
   * S. Grimme, M. Mueller, A. Hansen, J. Chem. Phys., 2023, 158, 124111.
     DOI: 10.1063/5.0137838
   
   with help from (in alphabetical order)
   P. Atkinson, C. Bannwarth, F. Bohle, G. Brandenburg, E. Caldeweyher
   M. Checinski, S. Dohm, S. Ehlert, S. Ehrlich, I. Gerasimov, C. Hölzer
   A. Katbashev, J. Kohn, J. Koopman, C. Lavigne, S. Lehtola, F. März, M. Müller,
   F. Musil, H. Neugebauer, J. Pisarek, C. Plett, P. Pracht, F. Pultar,
   J. Seibert, P. Shushkov, S. Spicher, M. Stahn, M. Steiner, T. Strunk,
   J. Stückrath, T. Rose, and J. Unsleber
   
 * started run on 2024/12/20 at 06:48:27.795     
   ID    Z sym.   atoms
    1    6 C      1, 2, 4-8
    2    7 N      3
    3    1 H      9-24

           -------------------------------------------------
          |                Calculation Setup                |
           -------------------------------------------------

          program call               : xtb C0557.xyz --opt --namespace C0557 --charge +1
          calculation namespace      : C0557
          coordinate file            : C0557.xyz
          omp threads                :                     8


           -------------------------------------------------
          |                 G F N 2 - x T B                 |
           -------------------------------------------------

        Reference                      10.1021/acs.jctc.8b01176
      * Hamiltonian:
        H0-scaling (s, p, d)           1.850000    2.230000    2.230000
        zeta-weighting                 0.500000
      * Dispersion:
        s8                             2.700000
        a1                             0.520000
        a2                             5.000000
        s9                             5.000000
      * Repulsion:
        kExp                           1.500000    1.000000
        rExp                           1.000000
      * Coulomb:
        alpha                          2.000000
        third order                    shell-resolved
        anisotropic                    true
        a3                             3.000000
        a5                             4.000000
        cn-shift                       1.200000
        cn-exp                         4.000000
        max-rad                        5.000000


          ...................................................
          :                      SETUP                      :
          :.................................................:
          :  # basis functions                  48          :
          :  # atomic orbitals                  48          :
          :  # shells                           32          :
          :  # electrons                        48          :
          :  max. iterations                   250          :
          :  Hamiltonian                  GFN2-xTB          :
          :  restarted?                      false          :
          :  GBSA solvation                  false          :
          :  PC potential                    false          :
          :  electronic temp.          300.0000000     K    :
          :  accuracy                    1.0000000          :
          :  -> integral cutoff          0.2500000E+02      :
          :  -> integral neglect         0.1000000E-07      :
          :  -> SCF convergence          0.1000000E-05 Eh   :
          :  -> wf. convergence          0.1000000E-03 e    :
          :  Broyden damping             0.4000000          :
          :  net charge                          1          :
          :  unpaired electrons                  0          :
          ...................................................

 iter      E             dE          RMSdq      gap      omega  full diag
   1    -25.8877400 -0.258877E+02  0.331E+00    5.21       0.0  T
   2    -25.9944984 -0.106758E+00  0.234E+00    5.20       1.0  T
   3    -25.9967788 -0.228041E-02  0.135E+00    5.15       1.0  T
   4    -25.9881872  0.859159E-02  0.898E-01    5.23       1.0  T
   5    -26.0007359 -0.125487E-01  0.989E-02    5.14       1.0  T
   6    -26.0007422 -0.633122E-05  0.477E-02    5.14       1.0  T
   7    -26.0007463 -0.401526E-05  0.897E-03    5.14       2.3  T
   8    -26.0007465 -0.283419E-06  0.294E-03    5.14       6.9  T
   9    -26.0007466 -0.216049E-07  0.718E-04    5.14      28.4  T
  10    -26.0007466 -0.795438E-09  0.273E-04    5.14      74.9  T

   *** convergence criteria satisfied after 10 iterations ***

         #    Occupation            Energy/Eh            Energy/eV
      -------------------------------------------------------------
         1        2.0000           -0.8619921             -23.4560
       ...           ...                  ...                  ...
        18        2.0000           -0.6221333             -16.9291
        19        2.0000           -0.6173227             -16.7982
        20        2.0000           -0.6116376             -16.6435
        21        2.0000           -0.6093428             -16.5811
        22        2.0000           -0.6007770             -16.3480
        23        2.0000           -0.5814238             -15.8213
        24        2.0000           -0.5616241             -15.2826 (HOMO)
        25                         -0.3727674             -10.1435 (LUMO)
        26                         -0.2560570              -6.9677
        27                         -0.1746524              -4.7525
        28                         -0.1667135              -4.5365
        29                         -0.1260163              -3.4291
       ...                                ...                  ...
        48                          0.4095319              11.1439
      -------------------------------------------------------------
                  HL-Gap            0.1888567 Eh            5.1391 eV
             Fermi-level           -0.4671958 Eh          -12.7130 eV

 SCC (total)                   0 d,  0 h,  0 min,  0.010 sec
 SCC setup                      ...        0 min,  0.000 sec (  1.089%)
 Dispersion                     ...        0 min,  0.000 sec (  2.332%)
 classical contributions        ...        0 min,  0.000 sec (  0.534%)
 integral evaluation            ...        0 min,  0.001 sec (  6.529%)
 iterations                     ...        0 min,  0.007 sec ( 70.833%)
 molecular gradient             ...        0 min,  0.002 sec ( 17.523%)
 printout                       ...        0 min,  0.000 sec (  1.006%)

         :::::::::::::::::::::::::::::::::::::::::::::::::::::
         ::                     SUMMARY                     ::
         :::::::::::::::::::::::::::::::::::::::::::::::::::::
         :: total energy             -25.625231304355 Eh    ::
         :: gradient norm              0.039272050544 Eh/a0 ::
         :: HOMO-LUMO gap              5.139053328075 eV    ::
         ::.................................................::
         :: SCC energy               -26.000625240187 Eh    ::
         :: -> isotropic ES            0.086004683613 Eh    ::
         :: -> anisotropic ES         -0.007912492502 Eh    ::
         :: -> anisotropic XC          0.021428741543 Eh    ::
         :: -> dispersion             -0.014742320342 Eh    ::
         :: repulsion energy           0.375393935832 Eh    ::
         :: add. restraining           0.000000000000 Eh    ::
         :: total charge               1.000000000000 e     ::
         :::::::::::::::::::::::::::::::::::::::::::::::::::::

      ----------------------------------------------------------- 
     |                   =====================                   |
     |                        A N C O P T                        |
     |                   =====================                   |
     |               Approximate Normal Coordinate               |
     |                Rational Function Optimizer                |
      ----------------------------------------------------------- 
      ----------------------------------------------------------- 
     |                   =====================                   |
     |                        A N C O P T                        |
     |                   =====================                   |
     |               Approximate Normal Coordinate               |
     |                Rational Function Optimizer                |
      ----------------------------------------------------------- 

          ...................................................
          :                      SETUP                      :
          :.................................................:
          :   optimization level            normal          :
          :   max. optcycles                   200          :
          :   ANC micro-cycles                  20          :
          :   degrees of freedom                66          :
          :.................................................:
          :   RF solver                   davidson          :
          :   write xtbopt.log                true          :
          :   linear?                        false          :
          :   energy convergence         0.5000000E-05 Eh   :
          :   grad. convergence          0.1000000E-02 Eh/α :
          :   maxmium RF displ.          1.0000000          :
          :   Hlow (freq-cutoff)         0.1000000E-01      :
          :   Hmax (freq-cutoff)         5.0000000          :
          :   S6 in model hess.         20.0000000          :
          ...................................................

generating ANC from exact Hessian ...
Using Lindh-Hessian (1995)
 Shifting diagonal of input Hessian by    8.4763350301550987E-003
 Lowest  eigenvalues of input Hessian
    0.000000    0.000000    0.000000    0.000000    0.000000    0.000000
    0.010000    0.010715    0.011284    0.011510    0.013266    0.014288
    0.016861    0.017967    0.020483    0.024114    0.024975    0.030148
 Highest eigenvalues
    1.231917    1.311194    1.314012    1.336757    1.478942    1.861693


........................................................................
.............................. CYCLE    1 ..............................
........................................................................

 iter      E             dE          RMSdq      gap      omega  full diag
   1    -26.0007466 -0.260007E+02  0.764E-05    5.14       0.0  T
   2    -26.0007466 -0.185345E-10  0.446E-05    5.14     458.2  T
   3    -26.0007466  0.295231E-11  0.356E-05    5.14     573.8  T
     SCC iter.                  ...        0 min,  0.002 sec
     gradient                   ...        0 min,  0.002 sec
 * total energy  :   -25.6252313 Eh     change       -0.9213252E-10 Eh
   gradient norm :     0.0392715 Eh/α   predicted     0.0000000E+00 (-100.00%)
   displ. norm   :     0.2053678 α      lambda       -0.3544877E-02
   maximum displ.:     0.0844443 α      in ANC's #11, #13, #6, ...

........................................................................
.............................. CYCLE    2 ..............................
........................................................................

 iter      E             dE          RMSdq      gap      omega  full diag
   1    -26.0204259 -0.260204E+02  0.131E-01    5.33       0.0  T
   2    -26.0204592 -0.332589E-04  0.757E-02    5.33       1.0  T
   3    -26.0204446  0.145927E-04  0.449E-02    5.33       1.0  T
   4    -26.0204638 -0.191602E-04  0.134E-02    5.33       1.5  T
   5    -26.0204667 -0.297357E-05  0.236E-03    5.33       8.7  T
   6    -26.0204667 -0.824378E-08  0.898E-04    5.33      22.7  T
   7    -26.0204668 -0.138886E-08  0.191E-04    5.33     106.8  T
     SCC iter.                  ...        0 min,  0.003 sec
     gradient                   ...        0 min,  0.002 sec
 * total energy  :   -25.6275643 Eh     change       -0.2332988E-02 Eh
   gradient norm :     0.0143365 Eh/α   predicted    -0.1847384E-02 ( -20.81%)
   displ. norm   :     0.1811251 α      lambda       -0.9036545E-03
   maximum displ.:     0.0858458 α      in ANC's #6, #5, #2, ...

........................................................................
.............................. CYCLE    3 ..............................
........................................................................

 iter      E             dE          RMSdq      gap      omega  full diag
   1    -26.0276237 -0.260276E+02  0.979E-02    5.40       0.0  T
   2    -26.0276460 -0.223463E-04  0.564E-02    5.40       1.0  T
   3    -26.0276435  0.258135E-05  0.247E-02    5.40       1.0  T
   4    -26.0276447 -0.129151E-05  0.123E-02    5.40       1.7  T
   5    -26.0276475 -0.277589E-05  0.140E-03    5.40      14.6  T
   6    -26.0276475 -0.305734E-08  0.534E-04    5.40      38.2  T
   7    -26.0276475 -0.481503E-09  0.120E-04    5.40     169.4  T
     SCC iter.                  ...        0 min,  0.003 sec
     gradient                   ...        0 min,  0.002 sec
 * total energy  :   -25.6280675 Eh     change       -0.5032458E-03 Eh
   gradient norm :     0.0049706 Eh/α   predicted    -0.4668803E-03 (  -7.23%)
   displ. norm   :     0.1060728 α      lambda       -0.1943064E-03
   maximum displ.:     0.0504695 α      in ANC's #6, #5, #13, ...

........................................................................
.............................. CYCLE    4 ..............................
........................................................................

 iter      E             dE          RMSdq      gap      omega  full diag
   1    -26.0272567 -0.260273E+02  0.633E-02    5.40       0.0  T
   2    -26.0272594 -0.267968E-05  0.371E-02    5.40       1.0  T
   3    -26.0272589  0.504777E-06  0.859E-03    5.40       2.4  T
   4    -26.0272592 -0.336412E-06  0.424E-03    5.40       4.8  T
   5    -26.0272596 -0.352820E-06  0.711E-04    5.40      28.7  T
   6    -26.0272596 -0.418865E-09  0.219E-04    5.40      93.2  T
     SCC iter.                  ...        0 min,  0.003 sec
     gradient                   ...        0 min,  0.002 sec
 * total energy  :   -25.6281360 Eh     change       -0.6844001E-04 Eh
   gradient norm :     0.0034417 Eh/α   predicted    -0.9825656E-04 (  43.57%)
   displ. norm   :     0.0490574 α      lambda       -0.7213848E-04
   maximum displ.:     0.0239863 α      in ANC's #2, #1, #6, ...

........................................................................
.............................. CYCLE    5 ..............................
........................................................................

 iter      E             dE          RMSdq      gap      omega  full diag
   1    -26.0260516 -0.260261E+02  0.359E-02    5.39       0.0  T
   2    -26.0260517 -0.923295E-07  0.213E-02    5.39       1.0  T
   3    -26.0260513  0.463774E-06  0.534E-03    5.39       3.8  T
   4    -26.0260518 -0.532116E-06  0.614E-04    5.39      33.2  T
   5    -26.0260518 -0.423995E-09  0.330E-04    5.39      61.8  T
     SCC iter.                  ...        0 min,  0.002 sec
     gradient                   ...        0 min,  0.002 sec
 * total energy  :   -25.6281772 Eh     change       -0.4124705E-04 Eh
   gradient norm :     0.0015271 Eh/α   predicted    -0.3617837E-04 ( -12.29%)
   displ. norm   :     0.0485226 α      lambda       -0.1317582E-04
   maximum displ.:     0.0309996 α      in ANC's #1, #2, #4, ...

........................................................................
.............................. CYCLE    6 ..............................
........................................................................

 iter      E             dE          RMSdq      gap      omega  full diag
   1    -26.0256641 -0.260257E+02  0.230E-02    5.39       0.0  T
   2    -26.0256642 -0.168469E-06  0.136E-02    5.39       1.5  T
   3    -26.0256642  0.129538E-07  0.150E-03    5.39      13.6  T
   4    -26.0256642 -0.115527E-07  0.794E-04    5.39      25.7  T
   5    -26.0256642 -0.124005E-07  0.199E-04    5.39     102.6  T
     SCC iter.                  ...        0 min,  0.002 sec
     gradient                   ...        0 min,  0.002 sec
 * total energy  :   -25.6281906 Eh     change       -0.1338003E-04 Eh
   gradient norm :     0.0009024 Eh/α   predicted    -0.6600369E-05 ( -50.67%)
   displ. norm   :     0.0642817 α      lambda       -0.1071950E-04
   maximum displ.:     0.0416155 α      in ANC's #1, #4, #8, ...

........................................................................
.............................. CYCLE    7 ..............................
........................................................................

 iter      E             dE          RMSdq      gap      omega  full diag
   1    -26.0259532 -0.260260E+02  0.228E-02    5.39       0.0  T
   2    -26.0259533 -0.321998E-07  0.135E-02    5.39       1.5  T
   3    -26.0259532  0.444660E-07  0.169E-03    5.39      12.1  T
   4    -26.0259533 -0.527692E-07  0.421E-04    5.39      48.5  T
   5    -26.0259533 -0.248483E-08  0.151E-04    5.39     135.3  T
     SCC iter.                  ...        0 min,  0.002 sec
     gradient                   ...        0 min,  0.002 sec
 * total energy  :   -25.6282023 Eh     change       -0.1169840E-04 Eh
   gradient norm :     0.0007457 Eh/α   predicted    -0.5377239E-05 ( -54.03%)
   displ. norm   :     0.0676012 α      lambda       -0.7758629E-05
   maximum displ.:     0.0473136 α      in ANC's #1, #4, #8, ...

........................................................................
.............................. CYCLE    8 ..............................
........................................................................

 iter      E             dE          RMSdq      gap      omega  full diag
   1    -26.0262323 -0.260262E+02  0.238E-02    5.39       0.0  T
   2    -26.0262323 -0.213591E-07  0.141E-02    5.39       1.5  T
   3    -26.0262323 -0.126377E-09  0.701E-04    5.39      29.1  T
   4    -26.0262323 -0.635456E-08  0.352E-04    5.39      58.0  T
     SCC iter.                  ...        0 min,  0.002 sec
     gradient                   ...        0 min,  0.002 sec
 * total energy  :   -25.6282105 Eh     change       -0.8168346E-05 Eh
   gradient norm :     0.0007108 Eh/α   predicted    -0.3889991E-05 ( -52.38%)
   displ. norm   :     0.0676012 α      lambda        0.0000000E+00
   maximum displ.:     0.0473136 α      in ANC's #1, #4, #8, ...

........................................................................
.............................. CYCLE    9 ..............................
........................................................................

 iter      E             dE          RMSdq      gap      omega  full diag
   1    -26.0264262 -0.260264E+02  0.238E-02    5.39       0.0  T
   2    -26.0264262 -0.198640E-07  0.141E-02    5.39       1.5  T
   3    -26.0264262  0.177401E-09  0.700E-04    5.39      29.1  T
   4    -26.0264262 -0.664452E-08  0.339E-04    5.39      60.3  T
     SCC iter.                  ...        0 min,  0.002 sec
     gradient                   ...        0 min,  0.002 sec
 * total energy  :   -25.6282118 Eh     change       -0.1356006E-05 Eh
   gradient norm :     0.0010541 Eh/α   predicted    -0.3977410E-08 ( -99.71%)
   displ. norm   :     0.0175509 α      lambda       -0.3985567E-05
   maximum displ.:     0.0091274 α      in ANC's #1, #2, #11, ...

........................................................................
.............................. CYCLE   10 ..............................
........................................................................

 iter      E             dE          RMSdq      gap      omega  full diag
   1    -26.0263239 -0.260263E+02  0.990E-03    5.39       0.0  T
   2    -26.0263239 -0.120564E-07  0.581E-03    5.39       3.5  T
   3    -26.0263239 -0.125611E-08  0.308E-04    5.39      66.2  T
   4    -26.0263239 -0.524548E-09  0.136E-04    5.39     150.6  T
     SCC iter.                  ...        0 min,  0.002 sec
     gradient                   ...        0 min,  0.002 sec
 * total energy  :   -25.6282154 Eh     change       -0.3532940E-05 Eh
   gradient norm :     0.0004950 Eh/α   predicted    -0.1995906E-05 ( -43.51%)
   displ. norm   :     0.0230843 α      lambda       -0.2538970E-05
   maximum displ.:     0.0149581 α      in ANC's #2, #1, #11, ...

   *** GEOMETRY OPTIMIZATION CONVERGED AFTER 10 ITERATIONS ***

------------------------------------------------------------------------
 total energy gain   :        -0.0029841 Eh       -1.8725 kcal/mol
 total RMSD          :         0.1271994 a0        0.0673 Å
 total power (kW/mol):        -0.7834640 (step) -120.3642 (real)
------------------------------------------------------------------------

 ANCopt (total)                0 d,  0 h,  0 min,  0.065 sec
 optimizer setup                ...        0 min,  0.000 sec (  0.122%)
 model hessian                  ...        0 min,  0.015 sec ( 23.699%)
 ANC generation                 ...        0 min,  0.000 sec (  0.613%)
 coordinate transformation      ...        0 min,  0.000 sec (  0.099%)
 single point calculation       ...        0 min,  0.047 sec ( 72.577%)
 optimization log               ...        0 min,  0.001 sec (  1.037%)
 hessian update                 ...        0 min,  0.000 sec (  0.212%)
 rational function              ...        0 min,  0.001 sec (  1.050%)

================
 final structure:
================
24
 xtb: 6.7.1 (edcfbbe)
C            1.13126335963779       -0.13817331346433       -0.10116756836909
C            0.48101169022688       -0.49261204373120        1.22511602720719
N            0.93652042939892        0.38004901520196        2.34347604531092
C            0.55416050268179        1.81752662415807        2.16065744838552
C           -0.93161924114909        2.02487074574521        2.13498037970610
C           -1.59759947456456        2.62033623888511        3.10727279960482
C            0.47969758549669       -0.13204929742226        3.66755717510052
C            1.26458129822218       -1.35024121786718        4.12136464634829
H            0.78703351162375        0.81512879821522       -0.49142776476300
H            0.87085875166711       -0.89930787297849       -0.83157333481898
H            2.21589916733542       -0.11899010399723       -0.01780414930919
H           -0.60456640062554       -0.41739593582238        1.15777281043531
H            0.73835703467053       -1.52007573570455        1.48493034945775
H            1.96289296698160        0.34330841263290        2.34455319423771
H            0.99267865625087        2.38536266584316        2.98424593053135
H            0.99617361370862        2.16993777871905        1.22683277315354
H           -1.44571186647584        1.69935657975563        1.24230404680680
H           -2.65822965275885        2.78432593599238        3.04344669402440
H           -1.11429624882524        2.98580507100328        3.99831928789769
H            0.61034107326845        0.66854638556268        4.39780553925471
H           -0.58576776901496       -0.35490980422896        3.59513116327036
H            2.33074271872580       -1.13774091209679        4.16451588597207
H            0.94197593481545       -1.62080684722815        5.12279322457733
H            1.10184235870204       -2.21507116717319        3.48479739597809

 Bond Distances (Angstroems)
 ---------------------------
C1-C2=1.5190         C1-H9=1.0861         C1-H10=1.0866        C1-H11=1.0880        C2-C1=1.5190         C2-N3=1.4899         
C2-H12=1.0903        C2-H13=1.0906        N3-C2=1.4899         N3-C4=1.4987         N3-C7=1.4913         N3-H14=1.0270        
C4-N3=1.4987         C4-C5=1.5004         C4-H15=1.0923        C4-H16=1.0916        C5-C4=1.5004         C5-C6=1.3204         
C5-H17=1.0803        C6-C5=1.3204         C6-H18=1.0751        C6-H19=1.0775        C7-N3=1.4913         C7-C8=1.5185         
C7-H20=1.0915        C7-H21=1.0909        C8-C7=1.5185         C8-H22=1.0880        C8-H23=1.0863        C8-H24=1.0861        
H9-C1=1.0861         H10-C1=1.0866        H11-C1=1.0880        H12-C2=1.0903        H13-C2=1.0906        H14-N3=1.0270        
H15-C4=1.0923        H16-C4=1.0916        H17-C5=1.0803        H18-C6=1.0751        H19-C6=1.0775        H20-C7=1.0915        
H21-C7=1.0909        H22-C8=1.0880        H23-C8=1.0863        H24-C8=1.0861        
 C  H  Rav=1.0867 sigma=0.0051  Rmin=1.0751  Rmax=1.0923    15
 C  C  Rav=1.4646 sigma=0.0836  Rmin=1.3204  Rmax=1.5190     4
 N  H  Rav=1.0270 sigma=0.0000  Rmin=1.0270  Rmax=1.0270     1
 N  C  Rav=1.4933 sigma=0.0038  Rmin=1.4899  Rmax=1.4987     3

 selected bond angles (degree)
 --------------------
H9-C1-C2=112.51                H10-C1-C2=108.72               H10-C1-H9=107.30               H11-C1-C2=111.34               
H11-C1-H9=109.15               H11-C1-H10=107.62              N3-C2-C1=112.82                H12-C2-C1=110.87               
H12-C2-N3=108.08               H13-C2-C1=109.08               H13-C2-N3=107.51               H13-C2-H12=108.34              
C4-N3-C2=113.09                C7-N3-C2=111.82                C7-N3-C4=111.07                H14-N3-C2=106.58               
H14-N3-C4=106.82               H14-N3-C7=107.03               C5-C4-N3=112.79                H15-C4-N3=107.71               
H15-C4-C5=109.79               H16-C4-N3=108.10               H16-C4-C5=109.98               H16-C4-H15=108.34              
C6-C5-C4=123.31                H17-C5-C4=116.34               H17-C5-C6=120.29               H18-C6-C5=121.51               
H19-C6-C5=122.39               H19-C6-H18=116.09              C8-C7-N3=112.49                H20-C7-N3=107.79               
H20-C7-C8=109.06               H21-C7-N3=108.08               H21-C7-C8=111.15               H21-C7-H20=108.13              
H22-C8-C7=111.20               H23-C8-C7=108.77               H23-C8-H22=107.64              H24-C8-C7=112.72               
H24-C8-H22=109.00              H24-C8-H23=107.31              

 selected dihedral angles (degree)
 ---------------------------------
N3-C2-C1-H9=290.34            N3-C2-C1-H10=171.64           N3-C2-C1-H11= 53.24           H12-C2-C1-H9= 51.72           
H12-C2-C1-H10=293.02          H12-C2-C1-H11=174.62          H13-C2-C1-H9=170.94           H13-C2-C1-H10= 52.24          
H13-C2-C1-H11=293.84          C4-N3-C2-C1= 63.88            C4-N3-C2-H12=300.93           C4-N3-C2-H13=184.18           
C7-N3-C2-C1=190.16            C7-N3-C2-H12= 67.21           C7-N3-C2-H13=310.46           H14-N3-C2-C1=306.80           
H14-N3-C2-H12=183.85          H14-N3-C2-H13= 67.10          C5-C4-N3-C2= 62.88            C5-C4-N3-C7=296.21            
C5-C4-N3-H14=179.82           H15-C4-N3-C2=184.20           H15-C4-N3-C7= 57.52           H15-C4-N3-H14=301.13          
H16-C4-N3-C2=301.06           H16-C4-N3-C7=174.39           H16-C4-N3-H14= 58.00          C6-C5-C4-N3=109.62            
C6-C5-C4-H15=349.50           C6-C5-C4-H16=230.37           H17-C5-C4-N3=286.79           H17-C5-C4-H15=166.66          
H17-C5-C4-H16= 47.54          H18-C6-C5-C4=177.84           H18-C6-C5-H17=  0.77          H19-C6-C5-C4=359.00           
H19-C6-C5-H17=181.94          C8-C7-N3-C2= 74.47            C8-C7-N3-C4=201.84            C8-C7-N3-H14=318.10           
H20-C7-N3-C2=194.74           H20-C7-N3-C4=322.11           H20-C7-N3-H14= 78.37          H21-C7-N3-C2=311.38           
H21-C7-N3-C4= 78.76           H21-C7-N3-H14=195.02          H22-C8-C7-N3= 56.91           H22-C8-C7-H20=297.38          
H22-C8-C7-H21=178.26          H23-C8-C7-N3=175.28           H23-C8-C7-H20= 55.75          H23-C8-C7-H21=296.63          
H24-C8-C7-N3=294.15           H24-C8-C7-H20=174.63          H24-C8-C7-H21= 55.50          
           -------------------------------------------------
          |                Final Singlepoint                |
           -------------------------------------------------

          ...................................................
          :                      SETUP                      :
          :.................................................:
          :  # basis functions                  48          :
          :  # atomic orbitals                  48          :
          :  # shells                           32          :
          :  # electrons                        48          :
          :  max. iterations                   250          :
          :  Hamiltonian                  GFN2-xTB          :
          :  restarted?                      false          :
          :  GBSA solvation                  false          :
          :  PC potential                    false          :
          :  electronic temp.          300.0000000     K    :
          :  accuracy                    1.0000000          :
          :  -> integral cutoff          0.2500000E+02      :
          :  -> integral neglect         0.1000000E-07      :
          :  -> SCF convergence          0.1000000E-05 Eh   :
          :  -> wf. convergence          0.1000000E-03 e    :
          :  Broyden damping             0.4000000          :
          :  net charge                          1          :
          :  unpaired electrons                  0          :
          ...................................................

 iter      E             dE          RMSdq      gap      omega  full diag
   1    -26.0263239 -0.260263E+02  0.983E-05    5.39       0.0  T
   2    -26.0263239 -0.934364E-11  0.625E-05    5.39     326.4  T
   3    -26.0263239 -0.680558E-10  0.342E-05    5.39     597.3  T

   *** convergence criteria satisfied after 3 iterations ***

         #    Occupation            Energy/Eh            Energy/eV
      -------------------------------------------------------------
         1        2.0000           -0.8683227             -23.6283
       ...           ...                  ...                  ...
        18        2.0000           -0.6227526             -16.9460
        19        2.0000           -0.6182698             -16.8240
        20        2.0000           -0.6139000             -16.7051
        21        2.0000           -0.6111020             -16.6289
        22        2.0000           -0.6017670             -16.3749
        23        2.0000           -0.5827293             -15.8569
        24        2.0000           -0.5660421             -15.4028 (HOMO)
        25                         -0.3679054             -10.0112 (LUMO)
        26                         -0.2322747              -6.3205
        27                         -0.1528274              -4.1586
        28                         -0.1484782              -4.0403
        29                         -0.1261148              -3.4318
       ...                                ...                  ...
        48                          0.4621169              12.5748
      -------------------------------------------------------------
                  HL-Gap            0.1981367 Eh            5.3916 eV
             Fermi-level           -0.4669738 Eh          -12.7070 eV

 SCC (total)                   0 d,  0 h,  0 min,  0.004 sec
 SCC setup                      ...        0 min,  0.000 sec (  1.373%)
 Dispersion                     ...        0 min,  0.000 sec (  2.083%)
 classical contributions        ...        0 min,  0.000 sec (  0.392%)
 integral evaluation            ...        0 min,  0.000 sec ( 12.368%)
 iterations                     ...        0 min,  0.001 sec ( 38.513%)
 molecular gradient             ...        0 min,  0.002 sec ( 43.238%)
 printout                       ...        0 min,  0.000 sec (  1.673%)

         :::::::::::::::::::::::::::::::::::::::::::::::::::::
         ::                     SUMMARY                     ::
         :::::::::::::::::::::::::::::::::::::::::::::::::::::
         :: total energy             -25.628215361555 Eh    ::
         :: gradient norm              0.000494940433 Eh/a0 ::
         :: HOMO-LUMO gap              5.391575099911 eV    ::
         ::.................................................::
         :: SCC energy               -26.026204407046 Eh    ::
         :: -> isotropic ES            0.086602546271 Eh    ::
         :: -> anisotropic ES         -0.007961408390 Eh    ::
         :: -> anisotropic XC          0.020644326276 Eh    ::
         :: -> dispersion             -0.014914236807 Eh    ::
         :: repulsion energy           0.397989045491 Eh    ::
         :: add. restraining           0.000000000000 Eh    ::
         :: total charge               1.000000000000 e     ::
         :::::::::::::::::::::::::::::::::::::::::::::::::::::

           -------------------------------------------------
          |                Property Printout                |
           -------------------------------------------------

    * Orbital Energies and Occupations

         #    Occupation            Energy/Eh            Energy/eV
      -------------------------------------------------------------
         1        2.0000           -0.8683227             -23.6283
       ...           ...                  ...                  ...
        12        2.0000           -0.6797814             -18.4978
        13        2.0000           -0.6765406             -18.4096
        14        2.0000           -0.6595718             -17.9479
        15        2.0000           -0.6465024             -17.5922
        16        2.0000           -0.6398037             -17.4099
        17        2.0000           -0.6373090             -17.3421
        18        2.0000           -0.6227526             -16.9460
        19        2.0000           -0.6182698             -16.8240
        20        2.0000           -0.6139000             -16.7051
        21        2.0000           -0.6111020             -16.6289
        22        2.0000           -0.6017670             -16.3749
        23        2.0000           -0.5827293             -15.8569
        24        2.0000           -0.5660421             -15.4028 (HOMO)
        25                         -0.3679054             -10.0112 (LUMO)
        26                         -0.2322747              -6.3205
        27                         -0.1528274              -4.1586
        28                         -0.1484782              -4.0403
        29                         -0.1261148              -3.4318
        30                         -0.0549757              -1.4960
        31                         -0.0522010              -1.4205
        32                         -0.0496142              -1.3501
        33                         -0.0306964              -0.8353
        34                         -0.0184250              -0.5014
        35                         -0.0022865              -0.0622
       ...                                ...                  ...
        48                          0.4621169              12.5748
      -------------------------------------------------------------
                  HL-Gap            0.1981367 Eh            5.3916 eV
             Fermi-level           -0.4669738 Eh          -12.7070 eV

     #   Z          covCN         q      C6AA      α(0)
     1   6 C        3.751    -0.131    23.086     6.852
     2   6 C        3.740    -0.030    21.185     6.567
     3   7 N        3.576     0.035    20.628     6.746
     4   6 C        3.745    -0.034    21.257     6.577
     5   6 C        2.884    -0.045    29.121     8.847
     6   6 C        2.838    -0.076    29.898     8.961
     7   6 C        3.742    -0.031    21.200     6.569
     8   6 C        3.751    -0.133    23.121     6.857
     9   1 H        0.925     0.070     2.083     2.257
    10   1 H        0.925     0.090     1.884     2.146
    11   1 H        0.925     0.063     2.166     2.301
    12   1 H        0.924     0.095     1.834     2.118
    13   1 H        0.924     0.091     1.868     2.138
    14   1 H        0.859     0.226     0.983     1.553
    15   1 H        0.924     0.088     1.897     2.154
    16   1 H        0.924     0.096     1.821     2.111
    17   1 H        0.926     0.065     2.146     2.291
    18   1 H        0.926     0.084     1.934     2.175
    19   1 H        0.926     0.068     2.110     2.272
    20   1 H        0.924     0.092     1.859     2.132
    21   1 H        0.924     0.093     1.850     2.127
    22   1 H        0.925     0.065     2.136     2.285
    23   1 H        0.925     0.092     1.860     2.133
    24   1 H        0.925     0.068     2.104     2.268

 Mol. C6AA /au·bohr⁶  :       3693.676995
 Mol. C8AA /au·bohr⁸  :      79491.910471
 Mol. α(0) /au        :         92.436070


Wiberg/Mayer (AO) data.
largest (>0.10) Wiberg bond orders for each atom

 ---------------------------------------------------------------------------
     #   Z sym  total        # sym  WBO       # sym  WBO       # sym  WBO
 ---------------------------------------------------------------------------
     1   6 C    3.981 --     2 C    1.023    11 H    0.981     9 H    0.980
                            10 H    0.973
     2   6 C    3.926 --     1 C    1.023    12 H    0.965    13 H    0.963
                             3 N    0.932
     3   7 N    3.766 --     2 C    0.932     7 C    0.932     4 C    0.920
                            14 H    0.912
     4   6 C    3.926 --     5 C    1.018    15 H    0.965    16 H    0.956
                             3 N    0.920
     5   6 C    3.981 --     6 C    1.982     4 C    1.018    17 H    0.961
     6   6 C    3.981 --     5 C    1.982    19 H    0.971    18 H    0.971
     7   6 C    3.927 --     8 C    1.024    21 H    0.968    20 H    0.966
                             3 N    0.932
     8   6 C    3.981 --     7 C    1.024    22 H    0.981    24 H    0.979
                            23 H    0.972
     9   1 H    0.995 --     1 C    0.980
    10   1 H    0.992 --     1 C    0.973
    11   1 H    0.996 --     1 C    0.981
    12   1 H    0.991 --     2 C    0.965
    13   1 H    0.992 --     2 C    0.963
    14   1 H    0.949 --     3 N    0.912
    15   1 H    0.992 --     4 C    0.965
    16   1 H    0.991 --     4 C    0.956
    17   1 H    0.996 --     5 C    0.961
    18   1 H    0.993 --     6 C    0.971
    19   1 H    0.995 --     6 C    0.971
    20   1 H    0.991 --     7 C    0.966
    21   1 H    0.991 --     7 C    0.968
    22   1 H    0.996 --     8 C    0.981
    23   1 H    0.991 --     8 C    0.972
    24   1 H    0.995 --     8 C    0.979
 ---------------------------------------------------------------------------

Topologies differ in total number of bonds
Writing topology from bond orders to xtbtopo.mol

molecular dipole:
                 x           y           z       tot (Debye)
 q only:        1.255       0.688       4.467
   full:        1.450       0.723       4.480      12.109
molecular quadrupole (traceless):
                xx          xy          yy          xz          yz          zz
 q only:      -10.691      -1.845     -10.337       7.520       4.900      21.028
  q+dip:       -8.169      -1.138     -12.119       9.381       6.788      20.288
   full:       -9.067      -1.073     -11.180       9.190       5.872      20.247

           -------------------------------------------------
          |                Geometry Summary                 |
           -------------------------------------------------

      molecular mass/u    :      114.2089065
   center of mass at/Å    :        0.3231558       0.5531750       2.3289659
  moments of inertia/u·Å² :        0.2397877E+03   0.3226794E+03   0.4952774E+03
rotational constants/cm⁻¹ :        0.7030232E-01   0.5224266E-01   0.3403675E-01

 * 22 selected distances

     #   Z          #   Z                                           value/Å
     1   6 C        2   6 C                                       1.5190400 (max)
     2   6 C        3   7 N                                       1.4898842
     3   7 N        4   6 C                                       1.4986541
     5   6 C        6   6 C                                       1.3204021
     3   7 N        7   6 C                                       1.4913494
     7   6 C        8   6 C                                       1.5185439
     1   6 C        9   1 H                                       1.0860858
     1   6 C       10   1 H                                       1.0865676
     1   6 C       11   1 H                                       1.0880039
     2   6 C       12   1 H                                       1.0902626
     2   6 C       13   1 H                                       1.0906017
     3   7 N       14   1 H                                       1.0270306 (min)
     4   6 C       15   1 H                                       1.0922610
     4   6 C       16   1 H                                       1.0916034
     5   6 C       17   1 H                                       1.0803342
     6   6 C       18   1 H                                       1.0751293
     6   6 C       19   1 H                                       1.0775498
     7   6 C       20   1 H                                       1.0914596
     7   6 C       21   1 H                                       1.0909303
     8   6 C       22   1 H                                       1.0879884
     8   6 C       23   1 H                                       1.0863422
     8   6 C       24   1 H                                       1.0861091

 * 4 distinct bonds (by element types)

   Z      Z             #   av. dist./Å        max./Å        min./Å
   1 H    6 C          15     1.0867486     1.0922610     1.0751293
   6 C    6 C           3     1.4526620     1.5190400     1.3204021
   1 H    7 N           1     1.0270306     1.0270306     1.0270306
   6 C    7 N           3     1.4932959     1.4986541     1.4898842


optimized geometry written to: xtbopt.xyz


           -------------------------------------------------
          | TOTAL ENERGY              -25.628215361555 Eh   |
          | GRADIENT NORM               0.000494940433 Eh/α |
          | HOMO-LUMO GAP               5.391575099911 eV   |
           -------------------------------------------------

------------------------------------------------------------------------
 * finished run on 2024/12/20 at 06:48:27.890     
------------------------------------------------------------------------
 total:
 * wall-time:     0 d,  0 h,  0 min,  0.095 sec
 *  cpu-time:     0 d,  0 h,  0 min,  0.744 sec
 * ratio c/w:     7.841 speedup
 SCF:
 * wall-time:     0 d,  0 h,  0 min,  0.010 sec
 *  cpu-time:     0 d,  0 h,  0 min,  0.078 sec
 * ratio c/w:     7.880 speedup
 ANC optimizer:
 * wall-time:     0 d,  0 h,  0 min,  0.070 sec
 *  cpu-time:     0 d,  0 h,  0 min,  0.558 sec
 * ratio c/w:     7.989 speedup

