      -----------------------------------------------------------      
     |                   =====================                   |     
     |                           x T B                           |     
     |                   =====================                   |     
     |                         S. Grimme                         |     
     |          Mulliken Center for Theoretical Chemistry        |     
     |                    University of Bonn                     |     
      -----------------------------------------------------------      

   * xtb version 6.7.1 (edcfbbe) compiled by 'conda@3ef47c1a292c' on 2024-11-25

   xtb is free software: you can redistribute it and/or modify it under
   the terms of the GNU Lesser General Public License as published by
   the Free Software Foundation, either version 3 of the License, or
   (at your option) any later version.
   
   xtb is distributed in the hope that it will be useful,
   but WITHOUT ANY WARRANTY; without even the implied warranty of
   MERCHANTABILITY or FITNESS FOR A PARTICULAR PURPOSE.  See the
   GNU Lesser General Public License for more details.
   
   Cite this work as:
   * C. Bannwarth, E. Caldeweyher, S. Ehlert, A. Hansen, P. Pracht,
     J. Seibert, S. Spicher, S. Grimme, WIREs Comput. Mol. Sci., 2020, 11,
     e01493. DOI: 10.1002/wcms.1493
   
   for GFN2-xTB:
   * C. Bannwarth, S. Ehlert and S. Grimme., J. Chem. Theory Comput., 2019,
     15, 1652-1671. DOI: 10.1021/acs.jctc.8b01176
   for GFN1-xTB:
   * S. Grimme, C. Bannwarth, P. Shushkov, J. Chem. Theory Comput., 2017,
     13, 1989-2009. DOI: 10.1021/acs.jctc.7b00118
   for GFN0-xTB:
   * P. Pracht, E. Caldeweyher, S. Ehlert, S. Grimme, ChemRxiv, 2019, preprint.
     DOI: 10.26434/chemrxiv.8326202.v1
   for GFN-FF:
   * S. Spicher and S. Grimme, Angew. Chem. Int. Ed., 2020, 59, 15665-15673.
     DOI: 10.1002/anie.202004239
   
   for ALPB and GBSA implicit solvation:
   * S. Ehlert, M. Stahn, S. Spicher, S. Grimme, J. Chem. Theory Comput.,
     2021, 17, 4250-4261. DOI: 10.1021/acs.jctc.1c00471
   
   for ddCOSMO and CPCM-X implicit solvation:
   * M. Stahn, S. Ehlert, S. Grimme, J. Phys. Chem. A,
     2023, XX, XXXX-XXXX. DOI: 10.1021/acs.jpca.3c04382
   
   for DFT-D4:
   * E. Caldeweyher, C. Bannwarth and S. Grimme, J. Chem. Phys., 2017,
     147, 034112. DOI: 10.1063/1.4993215
   * E. Caldeweyher, S. Ehlert, A. Hansen, H. Neugebauer, S. Spicher,
     C. Bannwarth and S. Grimme, J. Chem. Phys., 2019, 150, 154122.
     DOI: 10.1063/1.5090222
   * E. Caldeweyher, J.-M. Mewes, S. Ehlert and S. Grimme, Phys. Chem. Chem. Phys.
     2020, 22, 8499-8512. DOI: 10.1039/D0CP00502A
   
   for sTDA-xTB:
   * S. Grimme and C. Bannwarth, J. Chem. Phys., 2016, 145, 054103.
     DOI: 10.1063/1.4959605
   
   in the mass-spec context:
   * V. Asgeirsson, C. Bauer and S. Grimme, Chem. Sci., 2017, 8, 4879.
     DOI: 10.1039/c7sc00601b
   * J. Koopman and S. Grimme, ACS Omega 2019, 4, 12, 15120-15133.
     DOI: 10.1021/acsomega.9b02011
   
   for metadynamics refer to:
   * S. Grimme, J. Chem. Theory Comput., 2019, 155, 2847-2862
     DOI: 10.1021/acs.jctc.9b00143
   
   for SPH calculations refer to:
   * S. Spicher and S. Grimme, J. Chem. Theory Comput., 2021, 17, 1701-1714
     DOI: 10.1021/acs.jctc.0c01306
   
   for ONIOM refer to:
   * C. Plett, A. Katbashev, S. Ehlert, S. Grimme, M. Bursch,
     Phys. Chem. Chem. Phys., 2023, 25, 17860-17868. DOI: 10.1039/D3CP02178E
   
   for DIPRO refer to:
   * J. Kohn, N. Gildemeister, S. Grimme, D. Fazzi, A. Hansen,
     J. Chem. Phys., 2023, just accepted.
   
   for PTB refer to:
   * S. Grimme, M. Mueller, A. Hansen, J. Chem. Phys., 2023, 158, 124111.
     DOI: 10.1063/5.0137838
   
   with help from (in alphabetical order)
   P. Atkinson, C. Bannwarth, F. Bohle, G. Brandenburg, E. Caldeweyher
   M. Checinski, S. Dohm, S. Ehlert, S. Ehrlich, I. Gerasimov, C. Hölzer
   A. Katbashev, J. Kohn, J. Koopman, C. Lavigne, S. Lehtola, F. März, M. Müller,
   F. Musil, H. Neugebauer, J. Pisarek, C. Plett, P. Pracht, F. Pultar,
   J. Seibert, P. Shushkov, S. Spicher, M. Stahn, M. Steiner, T. Strunk,
   J. Stückrath, T. Rose, and J. Unsleber
   
 * started run on 2024/12/20 at 06:48:56.913     
   ID    Z sym.   atoms
    1   17 Cl     1
    2    6 C      2-8, 10, 11, 13-30
    3    7 N      9, 12, 32
    4    8 O      31
    5    1 H      33-59

           -------------------------------------------------
          |                Calculation Setup                |
           -------------------------------------------------

          program call               : xtb C0572.xyz --opt --namespace C0572 --charge +1
          calculation namespace      : C0572
          coordinate file            : C0572.xyz
          omp threads                :                     8


           -------------------------------------------------
          |                 G F N 2 - x T B                 |
           -------------------------------------------------

        Reference                      10.1021/acs.jctc.8b01176
      * Hamiltonian:
        H0-scaling (s, p, d)           1.850000    2.230000    2.230000
        zeta-weighting                 0.500000
      * Dispersion:
        s8                             2.700000
        a1                             0.520000
        a2                             5.000000
        s9                             5.000000
      * Repulsion:
        kExp                           1.500000    1.000000
        rExp                           1.000000
      * Coulomb:
        alpha                          2.000000
        third order                    shell-resolved
        anisotropic                    true
        a3                             3.000000
        a5                             4.000000
        cn-shift                       1.200000
        cn-exp                         4.000000
        max-rad                        5.000000


          ...................................................
          :                      SETUP                      :
          :.................................................:
          :  # basis functions                 161          :
          :  # atomic orbitals                 160          :
          :  # shells                           92          :
          :  # electrons                       162          :
          :  max. iterations                   250          :
          :  Hamiltonian                  GFN2-xTB          :
          :  restarted?                      false          :
          :  GBSA solvation                  false          :
          :  PC potential                    false          :
          :  electronic temp.          300.0000000     K    :
          :  accuracy                    1.0000000          :
          :  -> integral cutoff          0.2500000E+02      :
          :  -> integral neglect         0.1000000E-07      :
          :  -> SCF convergence          0.1000000E-05 Eh   :
          :  -> wf. convergence          0.1000000E-03 e    :
          :  Broyden damping             0.4000000          :
          :  net charge                          1          :
          :  unpaired electrons                  0          :
          ...................................................

 iter      E             dE          RMSdq      gap      omega  full diag
   1    -89.7676291 -0.897676E+02  0.427E+00    3.76       0.0  T
   2    -89.9155507 -0.147922E+00  0.259E+00    3.53       1.0  T
   3    -89.9167695 -0.121876E-02  0.113E+00    2.89       1.0  T
   4    -89.9229915 -0.622208E-02  0.383E-01    2.66       1.0  T
   5    -89.9284733 -0.548172E-02  0.102E-01    2.73       1.0  T
   6    -89.9287095 -0.236221E-03  0.529E-02    2.76       1.0  T
   7    -89.9287265 -0.169890E-04  0.341E-02    2.78       1.0  T
   8    -89.9287471 -0.206202E-04  0.221E-02    2.78       1.0  T
   9    -89.9287538 -0.666092E-05  0.173E-02    2.78       1.0  T
  10    -89.9287613 -0.750251E-05  0.913E-03    2.78       1.4  T
  11    -89.9287638 -0.251860E-05  0.393E-03    2.78       3.3  T
  12    -89.9287641 -0.298082E-06  0.193E-03    2.78       6.7  T
  13    -89.9287641 -0.796822E-07  0.104E-03    2.78      12.6  T
  14    -89.9287642 -0.165523E-07  0.668E-04    2.78      19.5  T
  15    -89.9287642 -0.591700E-08  0.414E-04    2.78      31.5  T

   *** convergence criteria satisfied after 15 iterations ***

         #    Occupation            Energy/Eh            Energy/eV
      -------------------------------------------------------------
         1        2.0000           -1.1375864             -30.9553
       ...           ...                  ...                  ...
        75        2.0000           -0.5046781             -13.7330
        76        2.0000           -0.5025601             -13.6754
        77        2.0000           -0.4959125             -13.4945
        78        2.0000           -0.4927152             -13.4075
        79        2.0000           -0.4886512             -13.2969
        80        2.0000           -0.4882945             -13.2872
        81        2.0000           -0.4818012             -13.1105 (HOMO)
        82                         -0.3795103             -10.3270 (LUMO)
        83                         -0.3452918              -9.3959
        84                         -0.3425762              -9.3220
        85                         -0.3380286              -9.1982
        86                         -0.3326991              -9.0532
       ...                                ...                  ...
       160                          0.5379604              14.6386
      -------------------------------------------------------------
                  HL-Gap            0.1022908 Eh            2.7835 eV
             Fermi-level           -0.4306558 Eh          -11.7187 eV

 SCC (total)                   0 d,  0 h,  0 min,  0.076 sec
 SCC setup                      ...        0 min,  0.000 sec (  0.310%)
 Dispersion                     ...        0 min,  0.001 sec (  1.484%)
 classical contributions        ...        0 min,  0.000 sec (  0.125%)
 integral evaluation            ...        0 min,  0.005 sec (  7.083%)
 iterations                     ...        0 min,  0.052 sec ( 68.397%)
 molecular gradient             ...        0 min,  0.017 sec ( 22.143%)
 printout                       ...        0 min,  0.000 sec (  0.433%)

         :::::::::::::::::::::::::::::::::::::::::::::::::::::
         ::                     SUMMARY                     ::
         :::::::::::::::::::::::::::::::::::::::::::::::::::::
         :: total energy             -88.606276573323 Eh    ::
         :: gradient norm              0.072880942008 Eh/a0 ::
         :: HOMO-LUMO gap              2.783475164670 eV    ::
         ::.................................................::
         :: SCC energy               -89.927231991422 Eh    ::
         :: -> isotropic ES            0.113892061484 Eh    ::
         :: -> anisotropic ES         -0.010934136461 Eh    ::
         :: -> anisotropic XC          0.050841313806 Eh    ::
         :: -> dispersion             -0.072772255151 Eh    ::
         :: repulsion energy           1.320955418099 Eh    ::
         :: add. restraining           0.000000000000 Eh    ::
         :: total charge               1.000000000000 e     ::
         :::::::::::::::::::::::::::::::::::::::::::::::::::::

      ----------------------------------------------------------- 
     |                   =====================                   |
     |                        A N C O P T                        |
     |                   =====================                   |
     |               Approximate Normal Coordinate               |
     |                Rational Function Optimizer                |
      ----------------------------------------------------------- 
      ----------------------------------------------------------- 
     |                   =====================                   |
     |                        A N C O P T                        |
     |                   =====================                   |
     |               Approximate Normal Coordinate               |
     |                Rational Function Optimizer                |
      ----------------------------------------------------------- 

          ...................................................
          :                      SETUP                      :
          :.................................................:
          :   optimization level            normal          :
          :   max. optcycles                   200          :
          :   ANC micro-cycles                  20          :
          :   degrees of freedom               171          :
          :.................................................:
          :   RF solver                   davidson          :
          :   write xtbopt.log                true          :
          :   linear?                        false          :
          :   energy convergence         0.5000000E-05 Eh   :
          :   grad. convergence          0.1000000E-02 Eh/α :
          :   maxmium RF displ.          1.0000000          :
          :   Hlow (freq-cutoff)         0.1000000E-01      :
          :   Hmax (freq-cutoff)         5.0000000          :
          :   S6 in model hess.         20.0000000          :
          ...................................................

generating ANC from exact Hessian ...
Using Lindh-Hessian (1995)
 Shifting diagonal of input Hessian by    9.8767505574579133E-003
 Lowest  eigenvalues of input Hessian
    0.000000    0.000000    0.000000    0.000000    0.000000    0.000000
    0.010000    0.010083    0.010254    0.010494    0.010588    0.010783
    0.010924    0.011069    0.011238    0.011342    0.011820    0.012704
 Highest eigenvalues
    1.929571    1.960584    1.965518    2.035822    2.047174    2.190160


........................................................................
.............................. CYCLE    1 ..............................
........................................................................

 iter      E             dE          RMSdq      gap      omega  full diag
   1    -89.9287642 -0.899288E+02  0.247E-04    2.78       0.0  T
   2    -89.9287642 -0.484718E-09  0.197E-04    2.78      66.1  T
   3    -89.9287642 -0.218321E-09  0.157E-04    2.78      82.8  T
     SCC iter.                  ...        0 min,  0.013 sec
     gradient                   ...        0 min,  0.014 sec
 * total energy  :   -88.6062766 Eh     change       -0.3752248E-08 Eh
   gradient norm :     0.0728805 Eh/α   predicted     0.0000000E+00 (-100.00%)
   displ. norm   :     0.4371290 α      lambda       -0.1965143E-01
   maximum displ.:     0.1561916 α      in ANC's #14, #23, #41, ...

........................................................................
.............................. CYCLE    2 ..............................
........................................................................

 iter      E             dE          RMSdq      gap      omega  full diag
   1    -90.0090486 -0.900090E+02  0.188E-01    2.97       0.0  T
   2    -90.0091822 -0.133617E-03  0.114E-01    2.93       1.0  T
   3    -90.0091015  0.806951E-04  0.518E-02    2.95       1.0  T
   4    -90.0092204 -0.118881E-03  0.116E-02    2.94       1.1  T
   5    -90.0092269 -0.651602E-05  0.359E-03    2.94       3.6  T
   6    -90.0092272 -0.337148E-06  0.195E-03    2.95       6.7  T
   7    -90.0092273 -0.597977E-07  0.721E-04    2.94      18.1  T
   8    -90.0092273 -0.137399E-07  0.345E-04    2.94      37.8  T
     SCC iter.                  ...        0 min,  0.030 sec
     gradient                   ...        0 min,  0.014 sec
 * total energy  :   -88.6200748 Eh     change       -0.1379824E-01 Eh
   gradient norm :     0.0288726 Eh/α   predicted    -0.1170456E-01 ( -15.17%)
   displ. norm   :     0.4659106 α      lambda       -0.7333712E-02
   maximum displ.:     0.2471160 α      in ANC's #14, #23, #18, ...

........................................................................
.............................. CYCLE    3 ..............................
........................................................................

 iter      E             dE          RMSdq      gap      omega  full diag
   1    -90.0510948 -0.900511E+02  0.135E-01    3.07       0.0  T
   2    -90.0511589 -0.640583E-04  0.822E-02    3.04       1.0  T
   3    -90.0511155  0.433742E-04  0.351E-02    3.06       1.0  T
   4    -90.0511763 -0.607490E-04  0.840E-03    3.05       1.5  T
   5    -90.0511794 -0.310578E-05  0.245E-03    3.05       5.3  T
   6    -90.0511795 -0.145126E-06  0.146E-03    3.05       8.9  T
   7    -90.0511796 -0.397540E-07  0.650E-04    3.05      20.0  T
   8    -90.0511796 -0.734092E-08  0.443E-04    3.05      29.4  T
     SCC iter.                  ...        0 min,  0.028 sec
     gradient                   ...        0 min,  0.014 sec
 * total energy  :   -88.6247019 Eh     change       -0.4627048E-02 Eh
   gradient norm :     0.0109633 Eh/α   predicted    -0.4462830E-02 (  -3.55%)
   displ. norm   :     0.3622591 α      lambda       -0.2006427E-02
   maximum displ.:     0.2451159 α      in ANC's #14, #7, #18, ...

........................................................................
.............................. CYCLE    4 ..............................
........................................................................

 iter      E             dE          RMSdq      gap      omega  full diag
   1    -90.0570612 -0.900571E+02  0.805E-02    3.11       0.0  T
   2    -90.0570737 -0.125164E-04  0.476E-02    3.09       1.0  T
   3    -90.0570630  0.107327E-04  0.170E-02    3.10       1.0  T
   4    -90.0570768 -0.137841E-04  0.337E-03    3.10       3.9  T
   5    -90.0570773 -0.477001E-06  0.122E-03    3.10      10.7  T
   6    -90.0570773 -0.149440E-07  0.771E-04    3.10      16.9  T
   7    -90.0570773 -0.163919E-07  0.374E-04    3.10      34.8  T
     SCC iter.                  ...        0 min,  0.025 sec
     gradient                   ...        0 min,  0.014 sec
 * total energy  :   -88.6260648 Eh     change       -0.1362956E-02 Eh
   gradient norm :     0.0090307 Eh/α   predicted    -0.1134869E-02 ( -16.73%)
   displ. norm   :     0.3759589 α      lambda       -0.1179799E-02
   maximum displ.:     0.2504687 α      in ANC's #14, #7, #10, ...

........................................................................
.............................. CYCLE    5 ..............................
........................................................................

 iter      E             dE          RMSdq      gap      omega  full diag
   1    -90.0563892 -0.900564E+02  0.763E-02    3.12       0.0  T
   2    -90.0563941 -0.494217E-05  0.444E-02    3.12       1.0  T
   3    -90.0563863  0.781514E-05  0.124E-02    3.12       1.0  T
   4    -90.0563958 -0.942135E-05  0.226E-03    3.12       5.8  T
   5    -90.0563960 -0.215524E-06  0.106E-03    3.12      12.3  T
   6    -90.0563960 -0.453272E-08  0.609E-04    3.12      21.4  T
   7    -90.0563960 -0.101836E-07  0.338E-04    3.12      38.5  T
     SCC iter.                  ...        0 min,  0.025 sec
     gradient                   ...        0 min,  0.014 sec
 * total energy  :   -88.6268434 Eh     change       -0.7785689E-03 Eh
   gradient norm :     0.0063741 Eh/α   predicted    -0.6732956E-03 ( -13.52%)
   displ. norm   :     0.3115431 α      lambda       -0.5909130E-03
   maximum displ.:     0.1631871 α      in ANC's #14, #7, #10, ...

........................................................................
.............................. CYCLE    6 ..............................
........................................................................

 iter      E             dE          RMSdq      gap      omega  full diag
   1    -90.0542109 -0.900542E+02  0.686E-02    3.13       0.0  T
   2    -90.0542140 -0.315114E-05  0.404E-02    3.13       1.0  T
   3    -90.0542054  0.862280E-05  0.127E-02    3.12       1.0  T
   4    -90.0542156 -0.102127E-04  0.156E-03    3.13       8.4  T
   5    -90.0542157 -0.969008E-07  0.734E-04    3.13      17.7  T
   6    -90.0542157 -0.248264E-08  0.399E-04    3.13      32.6  T
     SCC iter.                  ...        0 min,  0.022 sec
     gradient                   ...        0 min,  0.014 sec
 * total energy  :   -88.6272574 Eh     change       -0.4140271E-03 Eh
   gradient norm :     0.0045617 Eh/α   predicted    -0.3241347E-03 ( -21.71%)
   displ. norm   :     0.2863886 α      lambda       -0.3784952E-03
   maximum displ.:     0.1601123 α      in ANC's #7, #10, #14, ...

........................................................................
.............................. CYCLE    7 ..............................
........................................................................

 iter      E             dE          RMSdq      gap      omega  full diag
   1    -90.0537694 -0.900538E+02  0.677E-02    3.13       0.0  T
   2    -90.0537717 -0.237713E-05  0.397E-02    3.14       1.0  T
   3    -90.0537636  0.810926E-05  0.123E-02    3.13       1.1  T
   4    -90.0537732 -0.960718E-05  0.116E-03    3.13      11.2  T
   5    -90.0537733 -0.508351E-07  0.587E-04    3.13      22.2  T
   6    -90.0537733 -0.391098E-08  0.320E-04    3.13      40.6  T
     SCC iter.                  ...        0 min,  0.022 sec
     gradient                   ...        0 min,  0.014 sec
 * total energy  :   -88.6275452 Eh     change       -0.2878288E-03 Eh
   gradient norm :     0.0041243 Eh/α   predicted    -0.2047707E-03 ( -28.86%)
   displ. norm   :     0.3292455 α      lambda       -0.3512895E-03
   maximum displ.:     0.1784119 α      in ANC's #7, #10, #6, ...

........................................................................
.............................. CYCLE    8 ..............................
........................................................................

 iter      E             dE          RMSdq      gap      omega  full diag
   1    -90.0544057 -0.900544E+02  0.822E-02    3.14       0.0  T
   2    -90.0544075 -0.175868E-05  0.482E-02    3.14       1.0  T
   3    -90.0544025  0.491225E-05  0.961E-03    3.13       1.4  T
   4    -90.0544084 -0.588226E-05  0.107E-03    3.14      12.2  T
   5    -90.0544085 -0.208039E-07  0.643E-04    3.14      20.2  T
   6    -90.0544085 -0.255679E-08  0.358E-04    3.14      36.4  T
     SCC iter.                  ...        0 min,  0.027 sec
     gradient                   ...        0 min,  0.014 sec
 * total energy  :   -88.6278218 Eh     change       -0.2765685E-03 Eh
   gradient norm :     0.0042091 Eh/α   predicted    -0.1946879E-03 ( -29.61%)
   displ. norm   :     0.4091244 α      lambda       -0.3716662E-03
   maximum displ.:     0.2102937 α      in ANC's #7, #6, #4, ...

........................................................................
.............................. CYCLE    9 ..............................
........................................................................

 iter      E             dE          RMSdq      gap      omega  full diag
   1    -90.0549300 -0.900549E+02  0.104E-01    3.14       0.0  T
   2    -90.0549318 -0.181609E-05  0.612E-02    3.14       1.0  T
   3    -90.0549293  0.252028E-05  0.730E-03    3.14       1.8  T
   4    -90.0549326 -0.330569E-05  0.128E-03    3.14      10.1  T
   5    -90.0549326 -0.255694E-07  0.767E-04    3.14      17.0  T
   6    -90.0549326 -0.235502E-08  0.368E-04    3.14      35.4  T
     SCC iter.                  ...        0 min,  0.022 sec
     gradient                   ...        0 min,  0.014 sec
 * total energy  :   -88.6281244 Eh     change       -0.3025798E-03 Eh
   gradient norm :     0.0047760 Eh/α   predicted    -0.2169412E-03 ( -28.30%)
   displ. norm   :     0.4935546 α      lambda       -0.4207932E-03
   maximum displ.:     0.2404383 α      in ANC's #7, #4, #6, ...

........................................................................
.............................. CYCLE   10 ..............................
........................................................................

 iter      E             dE          RMSdq      gap      omega  full diag
   1    -90.0551377 -0.900551E+02  0.128E-01    3.15       0.0  T
   2    -90.0551400 -0.232440E-05  0.753E-02    3.14       1.0  T
   3    -90.0551371  0.289785E-05  0.784E-03    3.15       1.7  T
   4    -90.0551410 -0.391287E-05  0.160E-03    3.15       8.1  T
   5    -90.0551411 -0.410522E-07  0.944E-04    3.15      13.8  T
   6    -90.0551411 -0.437224E-08  0.441E-04    3.15      29.5  T
     SCC iter.                  ...        0 min,  0.022 sec
     gradient                   ...        0 min,  0.014 sec
 * total energy  :   -88.6284710 Eh     change       -0.3466142E-03 Eh
   gradient norm :     0.0055034 Eh/α   predicted    -0.2616489E-03 ( -24.51%)
   displ. norm   :     0.5351805 α      lambda       -0.4419173E-03
   maximum displ.:     0.2390415 α      in ANC's #7, #4, #1, ...

........................................................................
.............................. CYCLE   11 ..............................
........................................................................

 iter      E             dE          RMSdq      gap      omega  full diag
   1    -90.0552627 -0.900553E+02  0.142E-01    3.16       0.0  T
   2    -90.0552656 -0.288708E-05  0.830E-02    3.15       1.0  T
   3    -90.0552606  0.500015E-05  0.980E-03    3.16       1.3  T
   4    -90.0552670 -0.636514E-05  0.169E-03    3.15       7.7  T
   5    -90.0552670 -0.425201E-07  0.999E-04    3.15      13.0  T
   6    -90.0552670 -0.323254E-08  0.486E-04    3.15      26.8  T
     SCC iter.                  ...        0 min,  0.022 sec
     gradient                   ...        0 min,  0.014 sec
 * total energy  :   -88.6288288 Eh     change       -0.3578306E-03 Eh
   gradient norm :     0.0054702 Eh/α   predicted    -0.2842506E-03 ( -20.56%)
   displ. norm   :     0.5432859 α      lambda       -0.3821141E-03
   maximum displ.:     0.2401244 α      in ANC's #4, #1, #7, ...

........................................................................
.............................. CYCLE   12 ..............................
........................................................................

 iter      E             dE          RMSdq      gap      omega  full diag
   1    -90.0549012 -0.900549E+02  0.143E-01    3.16       0.0  T
   2    -90.0549038 -0.255328E-05  0.841E-02    3.16       1.0  T
   3    -90.0548996  0.420865E-05  0.888E-03    3.17       1.5  T
   4    -90.0549050 -0.545074E-05  0.153E-03    3.16       8.5  T
   5    -90.0549050 -0.264588E-07  0.909E-04    3.16      14.3  T
   6    -90.0549050 -0.335201E-08  0.407E-04    3.16      32.0  T
     SCC iter.                  ...        0 min,  0.025 sec
     gradient                   ...        0 min,  0.014 sec
 * total energy  :   -88.6291315 Eh     change       -0.3026737E-03 Eh
   gradient norm :     0.0048915 Eh/α   predicted    -0.2474554E-03 ( -18.24%)
   displ. norm   :     0.5061385 α      lambda       -0.3018433E-03
   maximum displ.:     0.2339396 α      in ANC's #1, #4, #6, ...

........................................................................
.............................. CYCLE   13 ..............................
........................................................................

 iter      E             dE          RMSdq      gap      omega  full diag
   1    -90.0559687 -0.900560E+02  0.132E-01    3.18       0.0  T
   2    -90.0559707 -0.205781E-05  0.772E-02    3.17       1.0  T
   3    -90.0559667  0.399677E-05  0.819E-03    3.18       1.6  T
   4    -90.0559718 -0.505196E-05  0.132E-03    3.17       9.9  T
   5    -90.0559718 -0.191232E-07  0.791E-04    3.17      16.5  T
   6    -90.0559718 -0.200177E-08  0.378E-04    3.17      34.4  T
     SCC iter.                  ...        0 min,  0.022 sec
     gradient                   ...        0 min,  0.014 sec
 * total energy  :   -88.6293654 Eh     change       -0.2338811E-03 Eh
   gradient norm :     0.0038112 Eh/α   predicted    -0.1895865E-03 ( -18.94%)
   displ. norm   :     0.5431470 α      lambda       -0.2420205E-03
   maximum displ.:     0.2537731 α      in ANC's #1, #4, #6, ...

........................................................................
.............................. CYCLE   14 ..............................
........................................................................

 iter      E             dE          RMSdq      gap      omega  full diag
   1    -90.0530968 -0.900531E+02  0.139E-01    3.18       0.0  T
   2    -90.0530990 -0.221409E-05  0.817E-02    3.18       1.0  T
   3    -90.0530945  0.447602E-05  0.864E-03    3.18       1.5  T
   4    -90.0531002 -0.563624E-05  0.146E-03    3.18       8.9  T
   5    -90.0531002 -0.241909E-07  0.884E-04    3.18      14.7  T
   6    -90.0531002 -0.673157E-08  0.427E-04    3.18      30.5  T
     SCC iter.                  ...        0 min,  0.032 sec
     gradient                   ...        0 min,  0.017 sec
 * total energy  :   -88.6295365 Eh     change       -0.1711057E-03 Eh
   gradient norm :     0.0057488 Eh/α   predicted    -0.1567125E-03 (  -8.41%)
   displ. norm   :     0.4661244 α      lambda       -0.3507820E-03
   maximum displ.:     0.2574194 α      in ANC's #1, #4, #2, ...

........................................................................
.............................. CYCLE   15 ..............................
........................................................................

 iter      E             dE          RMSdq      gap      omega  full diag
   1    -90.0616018 -0.900616E+02  0.114E-01    3.20       0.0  T
   2    -90.0616059 -0.407936E-05  0.668E-02    3.20       1.0  T
   3    -90.0615974  0.845357E-05  0.120E-02    3.21       1.1  T
   4    -90.0616074 -0.100137E-04  0.184E-03    3.20       7.1  T
   5    -90.0616076 -0.117310E-06  0.901E-04    3.20      14.5  T
   6    -90.0616076 -0.192377E-08  0.455E-04    3.20      28.6  T
     SCC iter.                  ...        0 min,  0.024 sec
     gradient                   ...        0 min,  0.014 sec
 * total energy  :   -88.6296928 Eh     change       -0.1563012E-03 Eh
   gradient norm :     0.0077337 Eh/α   predicted    -0.2135043E-03 (  36.60%)
   displ. norm   :     0.4381410 α      lambda       -0.2361282E-03
   maximum displ.:     0.2195605 α      in ANC's #1, #6, #4, ...

........................................................................
.............................. CYCLE   16 ..............................
........................................................................

 iter      E             dE          RMSdq      gap      omega  full diag
   1    -90.0563115 -0.900563E+02  0.112E-01    3.20       0.0  T
   2    -90.0563135 -0.197623E-05  0.656E-02    3.20       1.0  T
   3    -90.0563091  0.443231E-05  0.864E-03    3.20       1.5  T
   4    -90.0563145 -0.540787E-05  0.127E-03    3.20      10.3  T
   5    -90.0563145 -0.237076E-07  0.779E-04    3.20      16.7  T
   6    -90.0563145 -0.744038E-08  0.395E-04    3.20      33.0  T
     SCC iter.                  ...        0 min,  0.022 sec
     gradient                   ...        0 min,  0.014 sec
 * total energy  :   -88.6298474 Eh     change       -0.1545918E-03 Eh
   gradient norm :     0.0062341 Eh/α   predicted    -0.1407340E-03 (  -8.96%)
   displ. norm   :     0.3209115 α      lambda       -0.1787452E-03
   maximum displ.:     0.1811723 α      in ANC's #1, #6, #2, ...

........................................................................
.............................. CYCLE   17 ..............................
........................................................................

 iter      E             dE          RMSdq      gap      omega  full diag
   1    -90.0546783 -0.900547E+02  0.793E-02    3.20       0.0  T
   2    -90.0546800 -0.172016E-05  0.466E-02    3.20       1.0  T
   3    -90.0546772  0.282726E-05  0.715E-03    3.20       1.8  T
   4    -90.0546807 -0.346200E-05  0.128E-03    3.20      10.2  T
   5    -90.0546807 -0.423903E-07  0.722E-04    3.20      18.0  T
   6    -90.0546807 -0.454834E-08  0.396E-04    3.20      32.9  T
     SCC iter.                  ...        0 min,  0.022 sec
     gradient                   ...        0 min,  0.014 sec
 * total energy  :   -88.6299604 Eh     change       -0.1129783E-03 Eh
   gradient norm :     0.0053740 Eh/α   predicted    -0.9858078E-04 ( -12.74%)
   displ. norm   :     0.2602781 α      lambda       -0.2049418E-03
   maximum displ.:     0.1679410 α      in ANC's #1, #2, #6, ...

........................................................................
.............................. CYCLE   18 ..............................
........................................................................

 iter      E             dE          RMSdq      gap      omega  full diag
   1    -90.0584202 -0.900584E+02  0.596E-02    3.20       0.0  T
   2    -90.0584226 -0.245314E-05  0.350E-02    3.20       1.0  T
   3    -90.0584186  0.399728E-05  0.871E-03    3.20       1.5  T
   4    -90.0584234 -0.478013E-05  0.152E-03    3.20       8.5  T
   5    -90.0584235 -0.962233E-07  0.770E-04    3.20      16.9  T
   6    -90.0584235 -0.534421E-08  0.490E-04    3.20      26.6  T
     SCC iter.                  ...        0 min,  0.022 sec
     gradient                   ...        0 min,  0.014 sec
 * total energy  :   -88.6300847 Eh     change       -0.1243478E-03 Eh
   gradient norm :     0.0049534 Eh/α   predicted    -0.1094142E-03 ( -12.01%)
   displ. norm   :     0.3285281 α      lambda       -0.1609240E-03
   maximum displ.:     0.2106123 α      in ANC's #1, #2, #6, ...

........................................................................
.............................. CYCLE   19 ..............................
........................................................................

 iter      E             dE          RMSdq      gap      omega  full diag
   1    -90.0598925 -0.900599E+02  0.747E-02    3.22       0.0  T
   2    -90.0598942 -0.164505E-05  0.440E-02    3.21       1.0  T
   3    -90.0598893  0.484442E-05  0.894E-03    3.22       1.5  T
   4    -90.0598951 -0.577393E-05  0.126E-03    3.22      10.4  T
   5    -90.0598951 -0.250110E-07  0.737E-04    3.22      17.7  T
   6    -90.0598951 -0.335845E-08  0.394E-04    3.22      33.1  T
     SCC iter.                  ...        0 min,  0.022 sec
     gradient                   ...        0 min,  0.014 sec
 * total energy  :   -88.6301833 Eh     change       -0.9853339E-04 Eh
   gradient norm :     0.0054065 Eh/α   predicted    -0.8914735E-04 (  -9.53%)
   displ. norm   :     0.3626983 α      lambda       -0.1574938E-03
   maximum displ.:     0.2256639 α      in ANC's #1, #2, #6, ...

........................................................................
.............................. CYCLE   20 ..............................
........................................................................

 iter      E             dE          RMSdq      gap      omega  full diag
   1    -90.0584253 -0.900584E+02  0.836E-02    3.22       0.0  T
   2    -90.0584270 -0.168068E-05  0.491E-02    3.22       1.0  T
   3    -90.0584220  0.495535E-05  0.894E-03    3.22       1.5  T
   4    -90.0584279 -0.589047E-05  0.109E-03    3.22      12.0  T
   5    -90.0584279 -0.162786E-07  0.645E-04    3.22      20.2  T
   6    -90.0584279 -0.317394E-08  0.333E-04    3.22      39.2  T
     SCC iter.                  ...        0 min,  0.023 sec
     gradient                   ...        0 min,  0.014 sec
 * total energy  :   -88.6303059 Eh     change       -0.1226892E-03 Eh
   gradient norm :     0.0051258 Eh/α   predicted    -0.8911040E-04 ( -27.37%)
   displ. norm   :     0.4328671 α      lambda       -0.2222578E-03
   maximum displ.:     0.2859220 α      in ANC's #1, #2, #6, ...
 * RMSD in coord.:     0.8410363 α      energy gain  -0.2402937E-01 Eh

generating ANC from exact Hessian ...
Using Lindh-Hessian (1995)
 Shifting diagonal of input Hessian by    9.8389130862589907E-003
 Lowest  eigenvalues of input Hessian
    0.000000    0.000000    0.000000    0.000000    0.000000    0.000000
    0.010000    0.010086    0.010255    0.010538    0.010725    0.010910
    0.011006    0.011121    0.011549    0.011650    0.012050    0.013167
 Highest eigenvalues
    2.024795    2.037056    2.064892    2.168420    2.200590    2.342550


........................................................................
.............................. CYCLE   21 ..............................
........................................................................

 iter      E             dE          RMSdq      gap      omega  full diag
   1    -90.0606310 -0.900606E+02  0.888E-02    3.22       0.0  T
   2    -90.0606343 -0.320487E-05  0.521E-02    3.22       1.0  T
   3    -90.0606274  0.683381E-05  0.108E-02    3.22       1.2  T
   4    -90.0606355 -0.812869E-05  0.148E-03    3.22       8.8  T
   5    -90.0606356 -0.684901E-07  0.773E-04    3.22      16.8  T
   6    -90.0606356 -0.360897E-08  0.439E-04    3.22      29.7  T
     SCC iter.                  ...        0 min,  0.022 sec
     gradient                   ...        0 min,  0.014 sec
 * total energy  :   -88.6304733 Eh     change       -0.1673376E-03 Eh
   gradient norm :     0.0041541 Eh/α   predicted     0.0000000E+00 (-100.00%)
   displ. norm   :     0.0570810 α      lambda       -0.7179363E-04
   maximum displ.:     0.0258738 α      in ANC's #1, #4, #10, ...

........................................................................
.............................. CYCLE   22 ..............................
........................................................................

 iter      E             dE          RMSdq      gap      omega  full diag
   1    -90.0601769 -0.900602E+02  0.165E-02    3.23       0.0  T
   2    -90.0601772 -0.280006E-06  0.967E-03    3.22       1.3  T
   3    -90.0601770  0.226597E-06  0.224E-03    3.23       5.8  T
   4    -90.0601772 -0.285703E-06  0.499E-04    3.22      26.1  T
   5    -90.0601773 -0.961410E-08  0.264E-04    3.22      49.3  T
     SCC iter.                  ...        0 min,  0.023 sec
     gradient                   ...        0 min,  0.014 sec
 * total energy  :   -88.6305304 Eh     change       -0.5710651E-04 Eh
   gradient norm :     0.0018378 Eh/α   predicted    -0.3645890E-04 ( -36.16%)
   displ. norm   :     0.2148376 α      lambda       -0.1017144E-03
   maximum displ.:     0.1049096 α      in ANC's #1, #4, #6, ...

........................................................................
.............................. CYCLE   23 ..............................
........................................................................

 iter      E             dE          RMSdq      gap      omega  full diag
   1    -90.0588910 -0.900589E+02  0.494E-02    3.23       0.0  T
   2    -90.0588926 -0.159775E-05  0.288E-02    3.23       1.0  T
   3    -90.0588911  0.151334E-05  0.564E-03    3.23       2.3  T
   4    -90.0588930 -0.190391E-05  0.127E-03    3.23      10.2  T
   5    -90.0588931 -0.596176E-07  0.664E-04    3.23      19.6  T
   6    -90.0588931 -0.350471E-08  0.371E-04    3.23      35.1  T
     SCC iter.                  ...        0 min,  0.022 sec
     gradient                   ...        0 min,  0.014 sec
 * total energy  :   -88.6306136 Eh     change       -0.8319581E-04 Eh
   gradient norm :     0.0041321 Eh/α   predicted    -0.5190120E-04 ( -37.62%)
   displ. norm   :     0.0871102 α      lambda       -0.4633714E-04
   maximum displ.:     0.0487481 α      in ANC's #1, #4, #6, ...

........................................................................
.............................. CYCLE   24 ..............................
........................................................................

 iter      E             dE          RMSdq      gap      omega  full diag
   1    -90.0590932 -0.900591E+02  0.161E-02    3.23       0.0  T
   2    -90.0590932 -0.764672E-07  0.944E-03    3.23       1.4  T
   3    -90.0590931  0.158800E-06  0.170E-03    3.23       7.6  T
   4    -90.0590933 -0.197989E-06  0.311E-04    3.23      41.9  T
   5    -90.0590933 -0.871324E-09  0.195E-04    3.23      66.9  T
     SCC iter.                  ...        0 min,  0.018 sec
     gradient                   ...        0 min,  0.014 sec
 * total energy  :   -88.6306556 Eh     change       -0.4198136E-04 Eh
   gradient norm :     0.0034193 Eh/α   predicted    -0.2334493E-04 ( -44.39%)
   displ. norm   :     0.2385547 α      lambda       -0.1194448E-03
   maximum displ.:     0.1339660 α      in ANC's #1, #4, #6, ...

........................................................................
.............................. CYCLE   25 ..............................
........................................................................

 iter      E             dE          RMSdq      gap      omega  full diag
   1    -90.0595641 -0.900596E+02  0.415E-02    3.23       0.0  T
   2    -90.0595648 -0.676304E-06  0.244E-02    3.23       1.0  T
   3    -90.0595634  0.144289E-05  0.500E-03    3.23       2.6  T
   4    -90.0595651 -0.174362E-05  0.745E-04    3.23      17.5  T
   5    -90.0595651 -0.116514E-07  0.386E-04    3.23      33.7  T
   6    -90.0595651 -0.656598E-09  0.157E-04    3.23      83.0  T
     SCC iter.                  ...        0 min,  0.022 sec
     gradient                   ...        0 min,  0.014 sec
 * total energy  :   -88.6307446 Eh     change       -0.8899532E-04 Eh
   gradient norm :     0.0016724 Eh/α   predicted    -0.6312132E-04 ( -29.07%)
   displ. norm   :     0.3549544 α      lambda       -0.7002676E-04
   maximum displ.:     0.2086710 α      in ANC's #1, #4, #6, ...

........................................................................
.............................. CYCLE   26 ..............................
........................................................................

 iter      E             dE          RMSdq      gap      omega  full diag
   1    -90.0593497 -0.900593E+02  0.587E-02    3.24       0.0  T
   2    -90.0593511 -0.134607E-05  0.344E-02    3.24       1.0  T
   3    -90.0593482  0.294260E-05  0.708E-03    3.24       1.8  T
   4    -90.0593517 -0.352996E-05  0.105E-03    3.24      12.4  T
   5    -90.0593517 -0.270810E-07  0.536E-04    3.24      24.3  T
   6    -90.0593517 -0.430546E-09  0.237E-04    3.24      55.0  T
     SCC iter.                  ...        0 min,  0.022 sec
     gradient                   ...        0 min,  0.014 sec
 * total energy  :   -88.6308127 Eh     change       -0.6818693E-04 Eh
   gradient norm :     0.0030886 Eh/α   predicted    -0.3697467E-04 ( -45.77%)
   displ. norm   :     0.1251185 α      lambda       -0.4088248E-04
   maximum displ.:     0.0807898 α      in ANC's #1, #4, #6, ...

........................................................................
.............................. CYCLE   27 ..............................
........................................................................

 iter      E             dE          RMSdq      gap      omega  full diag
   1    -90.0598602 -0.900599E+02  0.194E-02    3.24       0.0  T
   2    -90.0598603 -0.159255E-06  0.114E-02    3.24       1.1  T
   3    -90.0598600  0.353892E-06  0.247E-03    3.24       5.3  T
   4    -90.0598604 -0.427045E-06  0.383E-04    3.24      34.0  T
   5    -90.0598604 -0.318093E-08  0.218E-04    3.24      59.6  T
     SCC iter.                  ...        0 min,  0.019 sec
     gradient                   ...        0 min,  0.014 sec
 * total energy  :   -88.6308501 Eh     change       -0.3732265E-04 Eh
   gradient norm :     0.0024014 Eh/α   predicted    -0.2076380E-04 ( -44.37%)
   displ. norm   :     0.2386406 α      lambda       -0.8947931E-04
   maximum displ.:     0.1551386 α      in ANC's #1, #2, #6, ...

........................................................................
.............................. CYCLE   28 ..............................
........................................................................

 iter      E             dE          RMSdq      gap      omega  full diag
   1    -90.0603896 -0.900604E+02  0.378E-02    3.24       0.0  T
   2    -90.0603902 -0.642334E-06  0.223E-02    3.24       1.0  T
   3    -90.0603889  0.129375E-05  0.482E-03    3.24       2.7  T
   4    -90.0603905 -0.158271E-05  0.804E-04    3.24      16.2  T
   5    -90.0603905 -0.113166E-07  0.470E-04    3.24      27.7  T
   6    -90.0603905 -0.195800E-08  0.245E-04    3.24      53.0  T
     SCC iter.                  ...        0 min,  0.022 sec
     gradient                   ...        0 min,  0.014 sec
 * total energy  :   -88.6309241 Eh     change       -0.7399205E-04 Eh
   gradient norm :     0.0011227 Eh/α   predicted    -0.4729371E-04 ( -36.08%)
   displ. norm   :     0.4654307 α      lambda       -0.8520605E-04
   maximum displ.:     0.3069987 α      in ANC's #1, #2, #6, ...

........................................................................
.............................. CYCLE   29 ..............................
........................................................................

 iter      E             dE          RMSdq      gap      omega  full diag
   1    -90.0591828 -0.900592E+02  0.734E-02    3.24       0.0  T
   2    -90.0591854 -0.260804E-05  0.433E-02    3.24       1.0  T
   3    -90.0591804  0.499469E-05  0.936E-03    3.24       1.4  T
   4    -90.0591865 -0.608498E-05  0.159E-03    3.24       8.2  T
   5    -90.0591865 -0.529018E-07  0.904E-04    3.24      14.4  T
   6    -90.0591866 -0.473935E-08  0.462E-04    3.24      28.2  T
     SCC iter.                  ...        0 min,  0.022 sec
     gradient                   ...        0 min,  0.015 sec
 * total energy  :   -88.6310076 Eh     change       -0.8351292E-04 Eh
   gradient norm :     0.0029417 Eh/α   predicted    -0.4670554E-04 ( -44.07%)
   displ. norm   :     0.1346520 α      lambda       -0.3545973E-04
   maximum displ.:     0.0957311 α      in ANC's #1, #2, #3, ...

........................................................................
.............................. CYCLE   30 ..............................
........................................................................

 iter      E             dE          RMSdq      gap      omega  full diag
   1    -90.0599106 -0.900599E+02  0.210E-02    3.24       0.0  T
   2    -90.0599108 -0.170748E-06  0.124E-02    3.24       1.1  T
   3    -90.0599104  0.370922E-06  0.255E-03    3.24       5.1  T
   4    -90.0599109 -0.458228E-06  0.494E-04    3.24      26.4  T
   5    -90.0599109 -0.235991E-08  0.309E-04    3.24      42.2  T
     SCC iter.                  ...        0 min,  0.026 sec
     gradient                   ...        0 min,  0.021 sec
 * total energy  :   -88.6310385 Eh     change       -0.3093681E-04 Eh
   gradient norm :     0.0023177 Eh/α   predicted    -0.1805394E-04 ( -41.64%)
   displ. norm   :     0.1454779 α      lambda       -0.4743798E-04
   maximum displ.:     0.1038658 α      in ANC's #1, #2, #8, ...

........................................................................
.............................. CYCLE   31 ..............................
........................................................................

 iter      E             dE          RMSdq      gap      omega  full diag
   1    -90.0607537 -0.900608E+02  0.255E-02    3.24       0.0  T
   2    -90.0607539 -0.238304E-06  0.150E-02    3.24       1.0  T
   3    -90.0607532  0.658322E-06  0.333E-03    3.25       3.9  T
   4    -90.0607540 -0.790396E-06  0.497E-04    3.24      26.2  T
   5    -90.0607540 -0.284535E-08  0.325E-04    3.24      40.0  T
     SCC iter.                  ...        0 min,  0.018 sec
     gradient                   ...        0 min,  0.014 sec
 * total energy  :   -88.6310801 Eh     change       -0.4158382E-04 Eh
   gradient norm :     0.0013234 Eh/α   predicted    -0.2422483E-04 ( -41.74%)
   displ. norm   :     0.3084401 α      lambda       -0.6014373E-04
   maximum displ.:     0.2173844 α      in ANC's #1, #2, #8, ...

........................................................................
.............................. CYCLE   32 ..............................
........................................................................

 iter      E             dE          RMSdq      gap      omega  full diag
   1    -90.0608244 -0.900608E+02  0.569E-02    3.25       0.0  T
   2    -90.0608255 -0.102353E-05  0.335E-02    3.25       1.0  T
   3    -90.0608223  0.314875E-05  0.714E-03    3.25       1.8  T
   4    -90.0608261 -0.375116E-05  0.938E-04    3.25      13.9  T
   5    -90.0608261 -0.945084E-08  0.598E-04    3.25      21.8  T
   6    -90.0608261 -0.240541E-08  0.323E-04    3.25      40.3  T
     SCC iter.                  ...        0 min,  0.029 sec
     gradient                   ...        0 min,  0.017 sec
 * total energy  :   -88.6311493 Eh     change       -0.6917289E-04 Eh
   gradient norm :     0.0023295 Eh/α   predicted    -0.3134796E-04 ( -54.68%)
   displ. norm   :     0.1678025 α      lambda       -0.3877560E-04
   maximum displ.:     0.1195802 α      in ANC's #1, #2, #8, ...

........................................................................
.............................. CYCLE   33 ..............................
........................................................................

 iter      E             dE          RMSdq      gap      omega  full diag
   1    -90.0606005 -0.900606E+02  0.303E-02    3.25       0.0  T
   2    -90.0606008 -0.268611E-06  0.178E-02    3.25       1.0  T
   3    -90.0605999  0.959430E-06  0.390E-03    3.26       3.3  T
   4    -90.0606010 -0.113694E-05  0.492E-04    3.25      26.5  T
   5    -90.0606010 -0.180137E-08  0.332E-04    3.25      39.2  T
   6    -90.0606010 -0.982951E-09  0.201E-04    3.25      64.9  T
     SCC iter.                  ...        0 min,  0.032 sec
     gradient                   ...        0 min,  0.016 sec
 * total energy  :   -88.6311848 Eh     change       -0.3556461E-04 Eh
   gradient norm :     0.0024106 Eh/α   predicted    -0.1993386E-04 ( -43.95%)
   displ. norm   :     0.1815258 α      lambda       -0.4675665E-04
   maximum displ.:     0.1283056 α      in ANC's #1, #2, #8, ...

........................................................................
.............................. CYCLE   34 ..............................
........................................................................

 iter      E             dE          RMSdq      gap      omega  full diag
   1    -90.0604405 -0.900604E+02  0.323E-02    3.26       0.0  T
   2    -90.0604408 -0.296169E-06  0.189E-02    3.26       1.0  T
   3    -90.0604398  0.104029E-05  0.408E-03    3.26       3.2  T
   4    -90.0604410 -0.123553E-05  0.516E-04    3.26      25.2  T
   5    -90.0604410 -0.197615E-08  0.348E-04    3.26      37.4  T
   6    -90.0604410 -0.107920E-08  0.205E-04    3.26      63.6  T
     SCC iter.                  ...        0 min,  0.022 sec
     gradient                   ...        0 min,  0.014 sec
 * total energy  :   -88.6312276 Eh     change       -0.4277290E-04 Eh
   gradient norm :     0.0019456 Eh/α   predicted    -0.2415174E-04 ( -43.53%)
   displ. norm   :     0.3332615 α      lambda       -0.5613155E-04
   maximum displ.:     0.2350262 α      in ANC's #1, #2, #8, ...

........................................................................
.............................. CYCLE   35 ..............................
........................................................................

 iter      E             dE          RMSdq      gap      omega  full diag
   1    -90.0598447 -0.900598E+02  0.579E-02    3.27       0.0  T
   2    -90.0598457 -0.981240E-06  0.339E-02    3.26       1.0  T
   3    -90.0598422  0.346747E-05  0.750E-03    3.27       1.7  T
   4    -90.0598463 -0.411769E-05  0.955E-04    3.27      13.6  T
   5    -90.0598463 -0.792737E-08  0.655E-04    3.27      19.9  T
   6    -90.0598463 -0.393793E-08  0.391E-04    3.27      33.3  T
     SCC iter.                  ...        0 min,  0.022 sec
     gradient                   ...        0 min,  0.014 sec
 * total energy  :   -88.6312976 Eh     change       -0.6996216E-04 Eh
   gradient norm :     0.0011523 Eh/α   predicted    -0.2945305E-04 ( -57.90%)
   displ. norm   :     0.2851007 α      lambda       -0.4039910E-04
   maximum displ.:     0.2069699 α      in ANC's #1, #2, #3, ...

........................................................................
.............................. CYCLE   36 ..............................
........................................................................

 iter      E             dE          RMSdq      gap      omega  full diag
   1    -90.0599294 -0.900599E+02  0.455E-02    3.27       0.0  T
   2    -90.0599300 -0.609451E-06  0.266E-02    3.27       1.0  T
   3    -90.0599287  0.130256E-05  0.476E-03    3.27       2.7  T
   4    -90.0599303 -0.159095E-05  0.872E-04    3.27      14.9  T
   5    -90.0599303 -0.124575E-07  0.590E-04    3.27      22.1  T
   6    -90.0599303 -0.294911E-08  0.344E-04    3.27      37.8  T
     SCC iter.                  ...        0 min,  0.022 sec
     gradient                   ...        0 min,  0.014 sec
 * total energy  :   -88.6313482 Eh     change       -0.5065696E-04 Eh
   gradient norm :     0.0015672 Eh/α   predicted    -0.2092973E-04 ( -58.68%)
   displ. norm   :     0.2104824 α      lambda       -0.2960284E-04
   maximum displ.:     0.1565936 α      in ANC's #1, #3, #2, ...

........................................................................
.............................. CYCLE   37 ..............................
........................................................................

 iter      E             dE          RMSdq      gap      omega  full diag
   1    -90.0602403 -0.900602E+02  0.315E-02    3.28       0.0  T
   2    -90.0602409 -0.575712E-06  0.185E-02    3.28       1.0  T
   3    -90.0602401  0.852068E-06  0.393E-03    3.28       3.3  T
   4    -90.0602411 -0.101986E-05  0.864E-04    3.28      15.1  T
   5    -90.0602411 -0.305377E-07  0.481E-04    3.28      27.1  T
   6    -90.0602411 -0.142268E-08  0.318E-04    3.28      40.9  T
     SCC iter.                  ...        0 min,  0.022 sec
     gradient                   ...        0 min,  0.014 sec
 * total energy  :   -88.6313864 Eh     change       -0.3814147E-04 Eh
   gradient norm :     0.0012881 Eh/α   predicted    -0.1509399E-04 ( -60.43%)
   displ. norm   :     0.1754591 α      lambda       -0.2638928E-04
   maximum displ.:     0.1342975 α      in ANC's #1, #3, #2, ...

........................................................................
.............................. CYCLE   38 ..............................
........................................................................

 iter      E             dE          RMSdq      gap      omega  full diag
   1    -90.0608263 -0.900608E+02  0.239E-02    3.28       0.0  T
   2    -90.0608265 -0.159226E-06  0.140E-02    3.28       1.0  T
   3    -90.0608263  0.184063E-06  0.204E-03    3.28       6.4  T
   4    -90.0608266 -0.247545E-06  0.537E-04    3.28      24.2  T
   5    -90.0608266 -0.392501E-08  0.375E-04    3.28      34.8  T
     SCC iter.                  ...        0 min,  0.022 sec
     gradient                   ...        0 min,  0.014 sec
 * total energy  :   -88.6314226 Eh     change       -0.3622005E-04 Eh
   gradient norm :     0.0012415 Eh/α   predicted    -0.1337670E-04 ( -63.07%)
   displ. norm   :     0.1644083 α      lambda       -0.2633746E-04
   maximum displ.:     0.1259038 α      in ANC's #1, #3, #2, ...

........................................................................
.............................. CYCLE   39 ..............................
........................................................................

 iter      E             dE          RMSdq      gap      omega  full diag
   1    -90.0608223 -0.900608E+02  0.221E-02    3.28       0.0  T
   2    -90.0608224 -0.156392E-06  0.130E-02    3.28       1.0  T
   3    -90.0608222  0.226800E-06  0.221E-03    3.28       5.9  T
   4    -90.0608225 -0.294180E-06  0.504E-04    3.28      25.8  T
   5    -90.0608225 -0.325691E-08  0.351E-04    3.28      37.1  T
     SCC iter.                  ...        0 min,  0.018 sec
     gradient                   ...        0 min,  0.014 sec
 * total energy  :   -88.6314592 Eh     change       -0.3657842E-04 Eh
   gradient norm :     0.0008506 Eh/α   predicted    -0.1332982E-04 ( -63.56%)
   displ. norm   :     0.1853920 α      lambda       -0.3047488E-04
   maximum displ.:     0.1413222 α      in ANC's #1, #3, #2, ...

........................................................................
.............................. CYCLE   40 ..............................
........................................................................

 iter      E             dE          RMSdq      gap      omega  full diag
   1    -90.0612578 -0.900613E+02  0.255E-02    3.28       0.0  T
   2    -90.0612582 -0.332102E-06  0.149E-02    3.28       1.0  T
   3    -90.0612573  0.873519E-06  0.415E-03    3.28       3.1  T
   4    -90.0612584 -0.107032E-05  0.553E-04    3.28      23.6  T
   5    -90.0612584 -0.253439E-08  0.383E-04    3.28      34.0  T
   6    -90.0612584 -0.137133E-08  0.245E-04    3.28      53.1  T
     SCC iter.                  ...        0 min,  0.022 sec
     gradient                   ...        0 min,  0.014 sec
 * total energy  :   -88.6315005 Eh     change       -0.4130053E-04 Eh
   gradient norm :     0.0010626 Eh/α   predicted    -0.1547342E-04 ( -62.53%)
   displ. norm   :     0.2113184 α      lambda       -0.3269425E-04
   maximum displ.:     0.1607164 α      in ANC's #1, #3, #2, ...

........................................................................
.............................. CYCLE   41 ..............................
........................................................................

 iter      E             dE          RMSdq      gap      omega  full diag
   1    -90.0610464 -0.900610E+02  0.294E-02    3.28       0.0  T
   2    -90.0610469 -0.497076E-06  0.172E-02    3.28       1.0  T
   3    -90.0610460  0.945502E-06  0.438E-03    3.28       3.0  T
   4    -90.0610471 -0.115962E-05  0.662E-04    3.28      19.7  T
   5    -90.0610471 -0.101851E-07  0.417E-04    3.28      31.2  T
   6    -90.0610471 -0.115061E-08  0.262E-04    3.28      49.7  T
     SCC iter.                  ...        0 min,  0.023 sec
     gradient                   ...        0 min,  0.014 sec
 * total energy  :   -88.6315438 Eh     change       -0.4336505E-04 Eh
   gradient norm :     0.0008214 Eh/α   predicted    -0.1667434E-04 ( -61.55%)
   displ. norm   :     0.2123946 α      lambda       -0.2894863E-04
   maximum displ.:     0.1624254 α      in ANC's #1, #3, #2, ...

........................................................................
.............................. CYCLE   42 ..............................
........................................................................

 iter      E             dE          RMSdq      gap      omega  full diag
   1    -90.0609115 -0.900609E+02  0.300E-02    3.28       0.0  T
   2    -90.0609120 -0.492870E-06  0.176E-02    3.28       1.0  T
   3    -90.0609106  0.138277E-05  0.517E-03    3.27       2.5  T
   4    -90.0609123 -0.167919E-05  0.613E-04    3.28      21.3  T
   5    -90.0609123 -0.419513E-08  0.423E-04    3.28      30.8  T
   6    -90.0609123 -0.178505E-08  0.272E-04    3.28      47.9  T
     SCC iter.                  ...        0 min,  0.047 sec
     gradient                   ...        0 min,  0.016 sec
 * total energy  :   -88.6315826 Eh     change       -0.3877509E-04 Eh
   gradient norm :     0.0008074 Eh/α   predicted    -0.1476670E-04 ( -61.92%)
   displ. norm   :     0.1859929 α      lambda       -0.2284976E-04
   maximum displ.:     0.1440077 α      in ANC's #1, #3, #2, ...
 * RMSD in coord.:     0.5229076 α      energy gain  -0.1276662E-02 Eh

generating ANC from exact Hessian ...
Using Lindh-Hessian (1995)
 Shifting diagonal of input Hessian by    9.8314216842864365E-003
 Lowest  eigenvalues of input Hessian
    0.000000    0.000000    0.000000    0.000000    0.000000    0.000000
    0.010000    0.010083    0.010235    0.010560    0.010719    0.010866
    0.011009    0.011094    0.011559    0.011623    0.011987    0.013129
 Highest eigenvalues
    2.023920    2.036843    2.067453    2.171539    2.204880    2.343687


........................................................................
.............................. CYCLE   43 ..............................
........................................................................

 iter      E             dE          RMSdq      gap      omega  full diag
   1    -90.0610577 -0.900611E+02  0.264E-02    3.27       0.0  T
   2    -90.0610580 -0.367418E-06  0.154E-02    3.28       1.0  T
   3    -90.0610572  0.882487E-06  0.416E-03    3.27       3.1  T
   4    -90.0610582 -0.107237E-05  0.570E-04    3.27      22.8  T
   5    -90.0610582 -0.518968E-08  0.389E-04    3.27      33.4  T
   6    -90.0610582 -0.101733E-08  0.248E-04    3.27      52.4  T
     SCC iter.                  ...        0 min,  0.022 sec
     gradient                   ...        0 min,  0.014 sec
 * total energy  :   -88.6316135 Eh     change       -0.3092256E-04 Eh
   gradient norm :     0.0007320 Eh/α   predicted     0.0000000E+00 (-100.00%)
   displ. norm   :     0.0349414 α      lambda       -0.6764424E-05
   maximum displ.:     0.0292684 α      in ANC's #1, #11, #10, ...

........................................................................
.............................. CYCLE   44 ..............................
........................................................................

 iter      E             dE          RMSdq      gap      omega  full diag
   1    -90.0610989 -0.900611E+02  0.595E-03    3.28       0.0  T
   2    -90.0610989 -0.202629E-07  0.349E-03    3.27       3.7  T
   3    -90.0610989  0.382999E-07  0.881E-04    3.28      14.8  T
   4    -90.0610989 -0.471594E-07  0.151E-04    3.27      86.1  T
     SCC iter.                  ...        0 min,  0.018 sec
     gradient                   ...        0 min,  0.014 sec
 * total energy  :   -88.6316227 Eh     change       -0.9197978E-05 Eh
   gradient norm :     0.0003466 Eh/α   predicted    -0.3393260E-05 ( -63.11%)
   displ. norm   :     0.0756948 α      lambda       -0.1227808E-04
   maximum displ.:     0.0560102 α      in ANC's #1, #11, #10, ...

........................................................................
.............................. CYCLE   45 ..............................
........................................................................

 iter      E             dE          RMSdq      gap      omega  full diag
   1    -90.0610494 -0.900610E+02  0.141E-02    3.28       0.0  T
   2    -90.0610495 -0.986573E-07  0.822E-03    3.28       1.6  T
   3    -90.0610492  0.265924E-06  0.220E-03    3.28       5.9  T
   4    -90.0610495 -0.320556E-06  0.283E-04    3.28      46.0  T
   5    -90.0610495 -0.116796E-08  0.188E-04    3.28      69.1  T
     SCC iter.                  ...        0 min,  0.018 sec
     gradient                   ...        0 min,  0.014 sec
 * total energy  :   -88.6316387 Eh     change       -0.1596516E-04 Eh
   gradient norm :     0.0005564 Eh/α   predicted    -0.6155288E-05 ( -61.45%)
   displ. norm   :     0.1099576 α      lambda       -0.1444019E-04
   maximum displ.:     0.0805356 α      in ANC's #1, #11, #10, ...

........................................................................
.............................. CYCLE   46 ..............................
........................................................................

 iter      E             dE          RMSdq      gap      omega  full diag
   1    -90.0609286 -0.900609E+02  0.203E-02    3.28       0.0  T
   2    -90.0609288 -0.176040E-06  0.119E-02    3.28       1.1  T
   3    -90.0609283  0.513868E-06  0.298E-03    3.28       4.4  T
   4    -90.0609289 -0.618350E-06  0.392E-04    3.28      33.2  T
   5    -90.0609289 -0.144881E-08  0.268E-04    3.28      48.6  T
     SCC iter.                  ...        0 min,  0.018 sec
     gradient                   ...        0 min,  0.014 sec
 * total energy  :   -88.6316569 Eh     change       -0.1817972E-04 Eh
   gradient norm :     0.0006476 Eh/α   predicted    -0.7259031E-05 ( -60.07%)
   displ. norm   :     0.1098257 α      lambda       -0.1225524E-04
   maximum displ.:     0.0817938 α      in ANC's #1, #11, #10, ...

........................................................................
.............................. CYCLE   47 ..............................
........................................................................

 iter      E             dE          RMSdq      gap      omega  full diag
   1    -90.0608965 -0.900609E+02  0.198E-02    3.28       0.0  T
   2    -90.0608966 -0.142333E-06  0.116E-02    3.28       1.1  T
   3    -90.0608962  0.415649E-06  0.266E-03    3.28       4.9  T
   4    -90.0608967 -0.503460E-06  0.409E-04    3.28      31.8  T
   5    -90.0608967 -0.138641E-08  0.288E-04    3.28      45.2  T
     SCC iter.                  ...        0 min,  0.018 sec
     gradient                   ...        0 min,  0.014 sec
 * total energy  :   -88.6316730 Eh     change       -0.1609531E-04 Eh
   gradient norm :     0.0006595 Eh/α   predicted    -0.6170812E-05 ( -61.66%)
   displ. norm   :     0.0964490 α      lambda       -0.1070991E-04
   maximum displ.:     0.0739991 α      in ANC's #1, #11, #3, ...

........................................................................
.............................. CYCLE   48 ..............................
........................................................................

 iter      E             dE          RMSdq      gap      omega  full diag
   1    -90.0609382 -0.900609E+02  0.170E-02    3.28       0.0  T
   2    -90.0609383 -0.109892E-06  0.100E-02    3.28       1.3  T
   3    -90.0609380  0.299181E-06  0.223E-03    3.28       5.8  T
   4    -90.0609384 -0.361471E-06  0.359E-04    3.28      36.3  T
   5    -90.0609384 -0.142650E-08  0.252E-04    3.28      51.7  T
     SCC iter.                  ...        0 min,  0.018 sec
     gradient                   ...        0 min,  0.014 sec
 * total energy  :   -88.6316876 Eh     change       -0.1468365E-04 Eh
   gradient norm :     0.0005047 Eh/α   predicted    -0.5388105E-05 ( -63.31%)
   displ. norm   :     0.0941538 α      lambda       -0.1109495E-04
   maximum displ.:     0.0735737 α      in ANC's #1, #3, #11, ...

........................................................................
.............................. CYCLE   49 ..............................
........................................................................

 iter      E             dE          RMSdq      gap      omega  full diag
   1    -90.0610155 -0.900610E+02  0.162E-02    3.28       0.0  T
   2    -90.0610155 -0.624443E-07  0.950E-03    3.28       1.4  T
   3    -90.0610154  0.138135E-06  0.157E-03    3.28       8.3  T
   4    -90.0610156 -0.174923E-06  0.318E-04    3.28      41.0  T
   5    -90.0610156 -0.682775E-09  0.209E-04    3.28      62.4  T
     SCC iter.                  ...        0 min,  0.018 sec
     gradient                   ...        0 min,  0.014 sec
 * total energy  :   -88.6317027 Eh     change       -0.1509071E-04 Eh
   gradient norm :     0.0003485 Eh/α   predicted    -0.5572487E-05 ( -63.07%)
   displ. norm   :     0.0984813 α      lambda       -0.1147711E-04
   maximum displ.:     0.0776741 α      in ANC's #1, #3, #8, ...

........................................................................
.............................. CYCLE   50 ..............................
........................................................................

 iter      E             dE          RMSdq      gap      omega  full diag
   1    -90.0610390 -0.900610E+02  0.172E-02    3.28       0.0  T
   2    -90.0610391 -0.707461E-07  0.101E-02    3.28       1.3  T
   3    -90.0610389  0.161407E-06  0.169E-03    3.28       7.7  T
   4    -90.0610391 -0.199886E-06  0.329E-04    3.28      39.6  T
   5    -90.0610391 -0.119954E-08  0.223E-04    3.28      58.5  T
     SCC iter.                  ...        0 min,  0.019 sec
     gradient                   ...        0 min,  0.014 sec
 * total energy  :   -88.6317183 Eh     change       -0.1555297E-04 Eh
   gradient norm :     0.0003300 Eh/α   predicted    -0.5767235E-05 ( -62.92%)
   displ. norm   :     0.0980721 α      lambda       -0.1069297E-04
   maximum displ.:     0.0772246 α      in ANC's #1, #3, #8, ...

........................................................................
.............................. CYCLE   51 ..............................
........................................................................

 iter      E             dE          RMSdq      gap      omega  full diag
   1    -90.0610915 -0.900611E+02  0.178E-02    3.28       0.0  T
   2    -90.0610916 -0.572884E-07  0.104E-02    3.28       1.2  T
   3    -90.0610914  0.152707E-06  0.167E-03    3.28       7.8  T
   4    -90.0610916 -0.189195E-06  0.302E-04    3.28      43.1  T
   5    -90.0610916 -0.551395E-09  0.199E-04    3.28      65.4  T
     SCC iter.                  ...        0 min,  0.021 sec
     gradient                   ...        0 min,  0.041 sec
 * total energy  :   -88.6317331 Eh     change       -0.1482699E-04 Eh
   gradient norm :     0.0003867 Eh/α   predicted    -0.5369481E-05 ( -63.79%)
   displ. norm   :     0.0949802 α      lambda       -0.1013726E-04
   maximum displ.:     0.0740227 α      in ANC's #1, #3, #8, ...

........................................................................
.............................. CYCLE   52 ..............................
........................................................................

 iter      E             dE          RMSdq      gap      omega  full diag
   1    -90.0611324 -0.900611E+02  0.181E-02    3.28       0.0  T
   2    -90.0611325 -0.636833E-07  0.106E-02    3.28       1.2  T
   3    -90.0611323  0.193851E-06  0.185E-03    3.28       7.0  T
   4    -90.0611325 -0.234711E-06  0.284E-04    3.28      45.8  T
   5    -90.0611325 -0.553726E-09  0.198E-04    3.28      65.7  T
     SCC iter.                  ...        0 min,  0.037 sec
     gradient                   ...        0 min,  0.014 sec
 * total energy  :   -88.6317474 Eh     change       -0.1433077E-04 Eh
   gradient norm :     0.0004337 Eh/α   predicted    -0.5089380E-05 ( -64.49%)
   displ. norm   :     0.0989182 α      lambda       -0.1068033E-04
   maximum displ.:     0.0756484 α      in ANC's #1, #3, #8, ...

........................................................................
.............................. CYCLE   53 ..............................
........................................................................

 iter      E             dE          RMSdq      gap      omega  full diag
   1    -90.0611572 -0.900612E+02  0.196E-02    3.28       0.0  T
   2    -90.0611573 -0.849681E-07  0.115E-02    3.28       1.1  T
   3    -90.0611570  0.260051E-06  0.213E-03    3.28       6.1  T
   4    -90.0611573 -0.312341E-06  0.313E-04    3.28      41.6  T
   5    -90.0611573 -0.891617E-09  0.223E-04    3.28      58.4  T
     SCC iter.                  ...        0 min,  0.020 sec
     gradient                   ...        0 min,  0.017 sec
 * total energy  :   -88.6317626 Eh     change       -0.1516462E-04 Eh
   gradient norm :     0.0004069 Eh/α   predicted    -0.5363680E-05 ( -64.63%)
   displ. norm   :     0.1128718 α      lambda       -0.1211628E-04
   maximum displ.:     0.0848752 α      in ANC's #1, #3, #8, ...

........................................................................
.............................. CYCLE   54 ..............................
........................................................................

 iter      E             dE          RMSdq      gap      omega  full diag
   1    -90.0611453 -0.900611E+02  0.228E-02    3.28       0.0  T
   2    -90.0611454 -0.120468E-06  0.133E-02    3.28       1.0  T
   3    -90.0611451  0.343555E-06  0.245E-03    3.28       5.3  T
   4    -90.0611455 -0.412716E-06  0.355E-04    3.28      36.7  T
   5    -90.0611455 -0.148877E-08  0.252E-04    3.28      51.7  T
     SCC iter.                  ...        0 min,  0.018 sec
     gradient                   ...        0 min,  0.014 sec
 * total energy  :   -88.6317797 Eh     change       -0.1713322E-04 Eh
   gradient norm :     0.0003550 Eh/α   predicted    -0.6092717E-05 ( -64.44%)
   displ. norm   :     0.1325396 α      lambda       -0.1364479E-04
   maximum displ.:     0.0986009 α      in ANC's #1, #3, #7, ...

........................................................................
.............................. CYCLE   55 ..............................
........................................................................

 iter      E             dE          RMSdq      gap      omega  full diag
   1    -90.0611381 -0.900611E+02  0.263E-02    3.28       0.0  T
   2    -90.0611383 -0.163328E-06  0.154E-02    3.28       1.0  T
   3    -90.0611378  0.442686E-06  0.277E-03    3.28       4.7  T
   4    -90.0611384 -0.533693E-06  0.440E-04    3.28      29.6  T
   5    -90.0611384 -0.249405E-08  0.313E-04    3.28      41.6  T
     SCC iter.                  ...        0 min,  0.051 sec
     gradient                   ...        0 min,  0.022 sec
 * total energy  :   -88.6317990 Eh     change       -0.1923535E-04 Eh
   gradient norm :     0.0003133 Eh/α   predicted    -0.6880749E-05 ( -64.23%)
   displ. norm   :     0.1522410 α      lambda       -0.1482303E-04
   maximum displ.:     0.1125462 α      in ANC's #1, #3, #7, ...

........................................................................
.............................. CYCLE   56 ..............................
........................................................................

 iter      E             dE          RMSdq      gap      omega  full diag
   1    -90.0610823 -0.900611E+02  0.295E-02    3.28       0.0  T
   2    -90.0610825 -0.172510E-06  0.173E-02    3.28       1.0  T
   3    -90.0610821  0.426663E-06  0.274E-03    3.28       4.8  T
   4    -90.0610826 -0.521744E-06  0.481E-04    3.28      27.0  T
   5    -90.0610826 -0.281734E-08  0.344E-04    3.28      37.9  T
     SCC iter.                  ...        0 min,  0.028 sec
     gradient                   ...        0 min,  0.019 sec
 * total energy  :   -88.6318198 Eh     change       -0.2086574E-04 Eh
   gradient norm :     0.0003449 Eh/α   predicted    -0.7491514E-05 ( -64.10%)
   displ. norm   :     0.1740901 α      lambda       -0.1617012E-04
   maximum displ.:     0.1281352 α      in ANC's #1, #3, #7, ...

........................................................................
.............................. CYCLE   57 ..............................
........................................................................

 iter      E             dE          RMSdq      gap      omega  full diag
   1    -90.0610481 -0.900610E+02  0.326E-02    3.28       0.0  T
   2    -90.0610483 -0.180609E-06  0.191E-02    3.28       1.0  T
   3    -90.0610479  0.415207E-06  0.273E-03    3.28       4.8  T
   4    -90.0610484 -0.517573E-06  0.551E-04    3.28      23.6  T
   5    -90.0610484 -0.322667E-08  0.398E-04    3.28      32.7  T
     SCC iter.                  ...        0 min,  0.033 sec
     gradient                   ...        0 min,  0.020 sec
 * total energy  :   -88.6318426 Eh     change       -0.2276946E-04 Eh
   gradient norm :     0.0004015 Eh/α   predicted    -0.8198754E-05 ( -63.99%)
   displ. norm   :     0.2033079 α      lambda       -0.1820421E-04
   maximum displ.:     0.1491455 α      in ANC's #1, #3, #7, ...

........................................................................
.............................. CYCLE   58 ..............................
........................................................................

 iter      E             dE          RMSdq      gap      omega  full diag
   1    -90.0609746 -0.900610E+02  0.372E-02    3.28       0.0  T
   2    -90.0609748 -0.191362E-06  0.218E-02    3.28       1.0  T
   3    -90.0609744  0.403384E-06  0.271E-03    3.28       4.8  T
   4    -90.0609749 -0.514888E-06  0.585E-04    3.28      22.2  T
   5    -90.0609749 -0.323696E-08  0.418E-04    3.28      31.1  T
     SCC iter.                  ...        0 min,  0.019 sec
     gradient                   ...        0 min,  0.027 sec
 * total energy  :   -88.6318682 Eh     change       -0.2559434E-04 Eh
   gradient norm :     0.0004961 Eh/α   predicted    -0.9269761E-05 ( -63.78%)
   displ. norm   :     0.2483345 α      lambda       -0.2152462E-04
   maximum displ.:     0.1822261 α      in ANC's #1, #3, #7, ...

........................................................................
.............................. CYCLE   59 ..............................
........................................................................

 iter      E             dE          RMSdq      gap      omega  full diag
   1    -90.0608643 -0.900609E+02  0.444E-02    3.29       0.0  T
   2    -90.0608646 -0.253461E-06  0.261E-02    3.29       1.0  T
   3    -90.0608641  0.516407E-06  0.312E-03    3.29       4.2  T
   4    -90.0608647 -0.671014E-06  0.735E-04    3.29      17.7  T
   5    -90.0608648 -0.449893E-08  0.525E-04    3.29      24.8  T
     SCC iter.                  ...        0 min,  0.027 sec
     gradient                   ...        0 min,  0.023 sec
 * total energy  :   -88.6318981 Eh     change       -0.2992820E-04 Eh
   gradient norm :     0.0005957 Eh/α   predicted    -0.1105830E-04 ( -63.05%)
   displ. norm   :     0.3030386 α      lambda       -0.2512922E-04
   maximum displ.:     0.2235200 α      in ANC's #1, #3, #7, ...

........................................................................
.............................. CYCLE   60 ..............................
........................................................................

 iter      E             dE          RMSdq      gap      omega  full diag
   1    -90.0606790 -0.900607E+02  0.536E-02    3.29       0.0  T
   2    -90.0606793 -0.360160E-06  0.315E-02    3.29       1.0  T
   3    -90.0606785  0.822958E-06  0.383E-03    3.29       3.4  T
   4    -90.0606796 -0.104932E-05  0.798E-04    3.29      16.3  T
   5    -90.0606796 -0.479068E-08  0.561E-04    3.29      23.2  T
   6    -90.0606796 -0.386551E-08  0.342E-04    3.29      38.1  T
     SCC iter.                  ...        0 min,  0.042 sec
     gradient                   ...        0 min,  0.014 sec
 * total energy  :   -88.6319322 Eh     change       -0.3408947E-04 Eh
   gradient norm :     0.0007641 Eh/α   predicted    -0.1307871E-04 ( -61.63%)
   displ. norm   :     0.3495747 α      lambda       -0.2748868E-04
   maximum displ.:     0.2606384 α      in ANC's #1, #3, #7, ...

........................................................................
.............................. CYCLE   61 ..............................
........................................................................

 iter      E             dE          RMSdq      gap      omega  full diag
   1    -90.0605785 -0.900606E+02  0.607E-02    3.30       0.0  T
   2    -90.0605790 -0.510453E-06  0.356E-02    3.30       1.0  T
[...]
        83                         -0.3424717              -9.3191
        84                         -0.3369064              -9.1677
        85                         -0.3331027              -9.0642
        86                         -0.3240970              -8.8191
       ...                                ...                  ...
       160                          0.5738107              15.6142
      -------------------------------------------------------------
                  HL-Gap            0.1221544 Eh            3.3240 eV
             Fermi-level           -0.4247616 Eh          -11.5584 eV

 SCC (total)                   0 d,  0 h,  0 min,  0.032 sec
 SCC setup                      ...        0 min,  0.000 sec (  0.408%)
 Dispersion                     ...        0 min,  0.000 sec (  1.484%)
 classical contributions        ...        0 min,  0.000 sec (  0.220%)
 integral evaluation            ...        0 min,  0.004 sec ( 12.063%)
 iterations                     ...        0 min,  0.014 sec ( 42.463%)
 molecular gradient             ...        0 min,  0.014 sec ( 42.348%)
 printout                       ...        0 min,  0.000 sec (  0.962%)

         :::::::::::::::::::::::::::::::::::::::::::::::::::::
         ::                     SUMMARY                     ::
         :::::::::::::::::::::::::::::::::::::::::::::::::::::
         :: total energy             -88.632122548762 Eh    ::
         :: gradient norm              0.000341991028 Eh/a0 ::
         :: HOMO-LUMO gap              3.323991234620 eV    ::
         ::.................................................::
         :: SCC energy               -90.059582308009 Eh    ::
         :: -> isotropic ES            0.113473796197 Eh    ::
         :: -> anisotropic ES         -0.012264683270 Eh    ::
         :: -> anisotropic XC          0.047552043473 Eh    ::
         :: -> dispersion             -0.075681140306 Eh    ::
         :: repulsion energy           1.427459759247 Eh    ::
         :: add. restraining           0.000000000000 Eh    ::
         :: total charge               1.000000000000 e     ::
         :::::::::::::::::::::::::::::::::::::::::::::::::::::

           -------------------------------------------------
          |                Property Printout                |
           -------------------------------------------------

    * Orbital Energies and Occupations

         #    Occupation            Energy/Eh            Energy/eV
      -------------------------------------------------------------
         1        2.0000           -1.1373789             -30.9497
       ...           ...                  ...                  ...
        69        2.0000           -0.5299465             -14.4206
        70        2.0000           -0.5240173             -14.2592
        71        2.0000           -0.5195342             -14.1372
        72        2.0000           -0.5183747             -14.1057
        73        2.0000           -0.5163452             -14.0505
        74        2.0000           -0.5085402             -13.8381
        75        2.0000           -0.5074632             -13.8088
        76        2.0000           -0.5030903             -13.6898
        77        2.0000           -0.5025082             -13.6739
        78        2.0000           -0.4959458             -13.4954
        79        2.0000           -0.4938885             -13.4394
        80        2.0000           -0.4895911             -13.3225
        81        2.0000           -0.4858388             -13.2203 (HOMO)
        82                         -0.3636844              -9.8964 (LUMO)
        83                         -0.3424717              -9.3191
        84                         -0.3369064              -9.1677
        85                         -0.3331027              -9.0642
        86                         -0.3240970              -8.8191
        87                         -0.3221688              -8.7667
        88                         -0.3208999              -8.7321
        89                         -0.3141891              -8.5495
        90                         -0.3109017              -8.4601
        91                         -0.2184913              -5.9455
        92                         -0.2149711              -5.8497
       ...                                ...                  ...
       160                          0.5738107              15.6142
      -------------------------------------------------------------
                  HL-Gap            0.1221544 Eh            3.3240 eV
             Fermi-level           -0.4247616 Eh          -11.5584 eV

     #   Z          covCN         q      C6AA      α(0)
     1  17 Cl       0.967    -0.145   103.677    15.578
     2   6 C        2.886     0.104    25.688     8.309
     3   6 C        2.953    -0.035    28.864     8.812
     4   6 C        2.921    -0.022    28.558     8.763
     5   6 C        2.922    -0.043    29.077     8.843
     6   6 C        2.972     0.004    27.928     8.669
     7   6 C        2.960    -0.052    29.281     8.876
     8   6 C        3.748    -0.028    21.137     6.557
     9   7 N        2.882     0.050    20.372     6.704
    10   6 C        3.046    -0.008    28.164     8.704
    11   6 C        3.062    -0.009    28.170     8.704
    12   7 N        2.872     0.050    20.371     6.703
    13   6 C        3.104     0.127    25.102     8.210
    14   6 C        3.755    -0.130    23.050     6.846
    15   6 C        3.741    -0.017    20.962     6.532
    16   6 C        3.806    -0.061    21.676     6.628
    17   6 C        3.910    -0.020    20.872     6.494
    18   6 C        2.974     0.002    27.969     8.675
    19   6 C        2.925    -0.037    28.922     8.819
    20   6 C        2.919    -0.027    28.686     8.783
    21   6 C        2.919    -0.028    28.692     8.784
    22   6 C        2.919    -0.031    28.771     8.796
    23   6 C        2.922    -0.047    29.169     8.857
    24   6 C        2.977    -0.003    28.099     8.695
    25   6 C        2.924    -0.040    29.002     8.832
    26   6 C        2.920    -0.026    28.648     8.777
    27   6 C        2.919    -0.026    28.645     8.777
    28   6 C        2.919    -0.027    28.682     8.782
    29   6 C        2.923    -0.042    29.050     8.839
    30   6 C        2.751     0.290    22.088     7.696
    31   8 O        0.859    -0.472    23.163     6.453
    32   7 N        2.638    -0.259    26.723     7.678
    33   1 H        0.926     0.077     2.015     2.220
    34   1 H        0.926     0.066     2.132     2.283
    35   1 H        0.926     0.046     2.373     2.409
    36   1 H        0.926     0.064     2.149     2.292
    37   1 H        0.924     0.093     1.849     2.127
    38   1 H        0.924     0.090     1.880     2.144
    39   1 H        0.927     0.095     1.831     2.116
    40   1 H        0.927     0.094     1.839     2.121
    41   1 H        0.924     0.093     1.847     2.125
    42   1 H        0.925     0.086     1.918     2.166
    43   1 H        0.925     0.102     1.768     2.079
    44   1 H        0.925     0.079     1.993     2.208
    45   1 H        0.924     0.078     1.995     2.209
    46   1 H        0.925     0.066     2.125     2.280
    47   1 H        0.925     0.064     2.154     2.295
    48   1 H        0.926     0.039     2.463     2.454
    49   1 H        0.926     0.047     2.351     2.398
    50   1 H        0.926     0.048     2.340     2.392
    51   1 H        0.926     0.042     2.417     2.431
    52   1 H        0.926     0.028     2.622     2.532
    53   1 H        0.926     0.030     2.587     2.515
    54   1 H        0.926     0.046     2.367     2.406
    55   1 H        0.926     0.049     2.327     2.386
    56   1 H        0.926     0.046     2.368     2.406
    57   1 H        0.926     0.035     2.514     2.479
    58   1 H        0.860     0.199     1.109     1.649
    59   1 H        0.860     0.203     1.090     1.635

 Mol. C6AA /au·bohr⁶  :      43040.514577
 Mol. C8AA /au·bohr⁸  :    1079730.007066
 Mol. α(0) /au        :        327.929241


Wiberg/Mayer (AO) data.
largest (>0.10) Wiberg bond orders for each atom

 ---------------------------------------------------------------------------
     #   Z sym  total        # sym  WBO       # sym  WBO       # sym  WBO
 ---------------------------------------------------------------------------
     1  17 Cl   1.147 --     2 C    0.999
     2   6 C    3.926 --     3 C    1.400     7 C    1.395     1 Cl   0.999
     3   6 C    3.986 --     4 C    1.441     2 C    1.400    33 H    0.965
                             6 C    0.105
     4   6 C    3.989 --     3 C    1.441     5 C    1.440    34 H    0.967
                             7 C    0.106
     5   6 C    3.991 --     4 C    1.440     6 C    1.408    35 H    0.968
     6   6 C    3.984 --     7 C    1.420     5 C    1.408     8 C    0.986
                             3 C    0.105
     7   6 C    3.987 --     6 C    1.420     2 C    1.395    36 H    0.964
                             4 C    0.106
     8   6 C    3.945 --     6 C    0.986     9 N    0.970    37 H    0.957
                            38 H    0.957
     9   7 N    3.693 --    13 C    1.326    10 C    1.204     8 C    0.970
    10   6 C    3.949 --    11 C    1.616     9 N    1.204    39 H    0.963
    11   6 C    3.949 --    10 C    1.616    12 N    1.200    40 H    0.963
    12   7 N    3.692 --    13 C    1.331    11 C    1.200    15 C    0.975
    13   6 C    3.954 --    12 N    1.331     9 N    1.326    14 C    1.046
    14   6 C    3.980 --    13 C    1.046    42 H    0.967    41 H    0.951
                            43 H    0.948
    15   6 C    3.947 --    16 C    0.987    12 N    0.975    45 H    0.964
                            44 H    0.958
    16   6 C    3.987 --    15 C    0.987    46 H    0.969    17 C    0.969
                            47 H    0.967
    17   6 C    3.988 --    18 C    0.971    16 C    0.969    24 C    0.961
                            30 C    0.925
    18   6 C    3.986 --    23 C    1.420    19 C    1.397    17 C    0.971
                            21 C    0.110
    19   6 C    3.991 --    20 C    1.454    18 C    1.397    48 H    0.967
                            22 C    0.112
    20   6 C    3.990 --    19 C    1.454    21 C    1.430    49 H    0.970
                            23 C    0.109
    21   6 C    3.990 --    22 C    1.447    20 C    1.430    50 H    0.970
                            18 C    0.110
    22   6 C    3.991 --    21 C    1.447    23 C    1.432    51 H    0.970
                            19 C    0.112
    23   6 C    3.991 --    22 C    1.432    18 C    1.420    52 H    0.965
                            20 C    0.109
    24   6 C    3.983 --    29 C    1.411    25 C    1.409    17 C    0.961
                            27 C    0.109
    25   6 C    3.991 --    26 C    1.447    24 C    1.409    53 H    0.967
                            28 C    0.111
    26   6 C    3.991 --    25 C    1.447    27 C    1.436    54 H    0.970
                            29 C    0.110
    27   6 C    3.989 --    28 C    1.442    26 C    1.436    55 H    0.970
                            24 C    0.109
    28   6 C    3.991 --    27 C    1.442    29 C    1.439    56 H    0.970
                            25 C    0.111
    29   6 C    3.991 --    28 C    1.439    24 C    1.411    57 H    0.965
                            26 C    0.110
    30   6 C    3.941 --    31 O    1.657    32 N    1.296    17 C    0.925
    31   8 O    1.972 --    30 C    1.657    32 N    0.197
    32   7 N    3.407 --    30 C    1.296    59 H    0.937    58 H    0.932
                            31 O    0.197
    33   1 H    0.994 --     3 C    0.965
    34   1 H    0.995 --     4 C    0.967
    35   1 H    0.997 --     5 C    0.968
    36   1 H    0.996 --     7 C    0.964
    37   1 H    0.991 --     8 C    0.957
    38   1 H    0.991 --     8 C    0.957
    39   1 H    0.990 --    10 C    0.963
    40   1 H    0.991 --    11 C    0.963
    41   1 H    0.991 --    14 C    0.951
    42   1 H    0.992 --    14 C    0.967
    43   1 H    0.989 --    14 C    0.948
    44   1 H    0.993 --    15 C    0.958
    45   1 H    0.993 --    15 C    0.964
    46   1 H    0.995 --    16 C    0.969
    47   1 H    0.995 --    16 C    0.967
    48   1 H    0.998 --    19 C    0.967
    49   1 H    0.997 --    20 C    0.970
    50   1 H    0.997 --    21 C    0.970
    51   1 H    0.998 --    22 C    0.970
    52   1 H    0.999 --    23 C    0.965
    53   1 H    0.999 --    25 C    0.967
    54   1 H    0.997 --    26 C    0.970
    55   1 H    0.997 --    27 C    0.970
    56   1 H    0.997 --    28 C    0.970
    57   1 H    0.999 --    29 C    0.965
    58   1 H    0.960 --    32 N    0.932
    59   1 H    0.958 --    32 N    0.937
 ---------------------------------------------------------------------------

Topologies differ in total number of bonds
Writing topology from bond orders to xtbtopo.mol

molecular dipole:
                 x           y           z       tot (Debye)
 q only:        6.375       7.340       3.795
   full:        6.042       7.559       3.750      26.378
molecular quadrupole (traceless):
                xx          xy          yy          xz          yz          zz
 q only:      -13.787      64.104      55.786      35.308      53.607     -42.000
  q+dip:      -12.156      67.535      60.006      32.821      54.236     -47.851
   full:      -14.514      67.090      61.013      34.015      53.891     -46.498

           -------------------------------------------------
          |                Geometry Summary                 |
           -------------------------------------------------

      molecular mass/u    :      444.9767217
   center of mass at/Å    :        2.4369499       4.2218103       2.1654529
  moments of inertia/u·Å² :        0.1898683E+04   0.7647256E+04   0.8529645E+04
rotational constants/cm⁻¹ :        0.8878593E-02   0.2204403E-02   0.1976358E-02

 * 57 selected distances

     #   Z          #   Z                                           value/Å
     1  17 Cl       2   6 C                                       1.7244169 (max)
     2   6 C        3   6 C                                       1.3871682
     3   6 C        4   6 C                                       1.3840240
     4   6 C        5   6 C                                       1.3840309
     5   6 C        6   6 C                                       1.3899467
     2   6 C        7   6 C                                       1.3879300
     6   6 C        7   6 C                                       1.3871198
     8   6 C        9   7 N                                       1.4458210
     9   7 N       10   6 C                                       1.3638440
    10   6 C       11   6 C                                       1.3545422
    11   6 C       12   7 N                                       1.3675719
     9   7 N       13   6 C                                       1.3375580
    12   7 N       13   6 C                                       1.3360589
    13   6 C       14   6 C                                       1.4749747
    12   7 N       15   6 C                                       1.4444257
    15   6 C       16   6 C                                       1.5383251
    18   6 C       19   6 C                                       1.3940047
    19   6 C       20   6 C                                       1.3822565
    20   6 C       21   6 C                                       1.3856107
    21   6 C       22   6 C                                       1.3828916
    18   6 C       23   6 C                                       1.3890128
    22   6 C       23   6 C                                       1.3865266
    24   6 C       25   6 C                                       1.3915993
    25   6 C       26   6 C                                       1.3834765
    26   6 C       27   6 C                                       1.3841198
    27   6 C       28   6 C                                       1.3832919
    24   6 C       29   6 C                                       1.3916403
    28   6 C       29   6 C                                       1.3847621
    30   6 C       31   8 O                                       1.2181086
    30   6 C       32   7 N                                       1.3412448
     3   6 C       33   1 H                                       1.0777861
     4   6 C       34   1 H                                       1.0785738
     5   6 C       35   1 H                                       1.0799860
     7   6 C       36   1 H                                       1.0789100
     8   6 C       37   1 H                                       1.0926566
     8   6 C       38   1 H                                       1.0924244
    10   6 C       39   1 H                                       1.0702890
    11   6 C       40   1 H                                       1.0702784
    14   6 C       41   1 H                                       1.0902337
    14   6 C       42   1 H                                       1.0850845
    14   6 C       43   1 H                                       1.0893640
    15   6 C       44   1 H                                       1.0898400
    15   6 C       45   1 H                                       1.0932972
    16   6 C       46   1 H                                       1.0899616
    16   6 C       47   1 H                                       1.0899116
    19   6 C       48   1 H                                       1.0793648
    20   6 C       49   1 H                                       1.0790036
    21   6 C       50   1 H                                       1.0786009
    22   6 C       51   1 H                                       1.0794058
    23   6 C       52   1 H                                       1.0795665
    25   6 C       53   1 H                                       1.0790297
    26   6 C       54   1 H                                       1.0791637
    27   6 C       55   1 H                                       1.0785712
    28   6 C       56   1 H                                       1.0791617
    29   6 C       57   1 H                                       1.0800657
    32   7 N       58   1 H                                       1.0064396 (min)
    32   7 N       59   1 H                                       1.0074034

 * 6 distinct bonds (by element types)

   Z      Z             #   av. dist./Å        max./Å        min./Å
   1 H    6 C          25     1.0824212     1.0932972     1.0702784
   6 C    6 C          21     1.3965359     1.5383251     1.3545422
   1 H    7 N           2     1.0069215     1.0074034     1.0064396
   6 C    7 N           7     1.3766463     1.4458210     1.3360589
   6 C    8 O           1     1.2181086     1.2181086     1.2181086
   6 C   17 Cl          1     1.7244169     1.7244169     1.7244169


optimized geometry written to: xtbopt.xyz


           -------------------------------------------------
          | TOTAL ENERGY              -88.632122548762 Eh   |
          | GRADIENT NORM               0.000341991028 Eh/α |
          | HOMO-LUMO GAP               3.323991234620 eV   |
           -------------------------------------------------

------------------------------------------------------------------------
 * finished run on 2024/12/20 at 06:49:00.317     
------------------------------------------------------------------------
 total:
 * wall-time:     0 d,  0 h,  0 min,  3.404 sec
 *  cpu-time:     0 d,  0 h,  0 min, 26.361 sec
 * ratio c/w:     7.744 speedup
 SCF:
 * wall-time:     0 d,  0 h,  0 min,  0.076 sec
 *  cpu-time:     0 d,  0 h,  0 min,  0.600 sec
 * ratio c/w:     7.898 speedup
 ANC optimizer:
 * wall-time:     0 d,  0 h,  0 min,  3.306 sec
 *  cpu-time:     0 d,  0 h,  0 min, 25.600 sec
 * ratio c/w:     7.744 speedup

