38
 energy: -39.339817069265 gnorm: 0.000296151265 xtb: 6.7.1 (edcfbbe)
C            1.93123516104390       -0.01439571795487        0.01672604743348
C            0.99980501928242        0.66030523683959       -0.98548320431745
C            0.87349023694321       -0.09144113173026       -2.32338897796886
C            0.23981829575794       -1.50191387216713       -2.20077844585907
N           -1.23608102340657       -1.74450162007769       -2.26568861403599
C           -1.79642363333259       -1.48833920557690       -3.63811978109199
C           -1.06040997764088       -2.11698648760646       -4.81267597781918
C           -1.53389712795314       -3.19068516115244       -1.95262478597405
C           -0.64474955159490       -3.92386755601173       -0.95645689226260
C           -2.00198201460442       -0.85241082751128       -1.33985727610633
C           -1.84260001801159       -1.11416224727336        0.14934820350229
C            0.32123513894569        0.85134089188873       -3.39359095795233
H            1.55114808400142       -0.96970477855054        0.37431976457730
H            2.06177582333964        0.62832115168950        0.88276797357139
H            2.90939412448285       -0.18398861425944       -0.42617639679117
H            0.02810494711197        0.83499951298122       -0.52541158479029
H            1.41895611011688        1.64167824062651       -1.21199493028468
H            1.90294976429183       -0.32345067087981       -2.62413398895916
H            0.67106112683385       -2.13873551096940       -2.97302467816693
H            0.57609676012962       -1.88342501251888       -1.23927581592393
H           -2.82320738340109       -1.86234992419208       -3.62975591597302
H           -1.83487828784909       -0.41118057138238       -3.78832680046302
H           -0.97554886212196       -3.19801484023482       -4.73945998352398
H           -1.63802892409024       -1.90048657673304       -5.70857888237855
H           -0.06847003970378       -1.70036790319296       -4.95835244913228
H           -2.56855900809015       -3.22412919532695       -1.60707678566727
H           -1.48108422321516       -3.74524574749546       -2.88893027786035
H           -0.56542647425099       -3.42837601671466        0.00464085483818
H           -1.09971247079297       -4.89676709059844       -0.78264683637737
H            0.35133884921894       -4.10259869149315       -1.35132557704031
H           -1.70272476881999        0.17103996495275       -1.56207576803065
H           -3.06038797316858       -0.95299544100630       -1.59330780581653
H           -0.80651512534392       -1.08974309325719        0.46981185968899
H           -2.36643978070910       -0.32187743213012        0.67955797836877
H           -2.29310422826771       -2.05458071113387        0.45131217177538
H            1.01148018614557        1.68427213711230       -3.50412204531773
H            0.24648040341529        0.37256990019990       -4.36499970504361
H           -0.64174913468647        1.27774461283609       -3.12113371282491
