      -----------------------------------------------------------      
     |                   =====================                   |     
     |                           x T B                           |     
     |                   =====================                   |     
     |                         S. Grimme                         |     
     |          Mulliken Center for Theoretical Chemistry        |     
     |                    University of Bonn                     |     
      -----------------------------------------------------------      

   * xtb version 6.7.1 (edcfbbe) compiled by 'conda@3ef47c1a292c' on 2024-11-25

   xtb is free software: you can redistribute it and/or modify it under
   the terms of the GNU Lesser General Public License as published by
   the Free Software Foundation, either version 3 of the License, or
   (at your option) any later version.
   
   xtb is distributed in the hope that it will be useful,
   but WITHOUT ANY WARRANTY; without even the implied warranty of
   MERCHANTABILITY or FITNESS FOR A PARTICULAR PURPOSE.  See the
   GNU Lesser General Public License for more details.
   
   Cite this work as:
   * C. Bannwarth, E. Caldeweyher, S. Ehlert, A. Hansen, P. Pracht,
     J. Seibert, S. Spicher, S. Grimme, WIREs Comput. Mol. Sci., 2020, 11,
     e01493. DOI: 10.1002/wcms.1493
   
   for GFN2-xTB:
   * C. Bannwarth, S. Ehlert and S. Grimme., J. Chem. Theory Comput., 2019,
     15, 1652-1671. DOI: 10.1021/acs.jctc.8b01176
   for GFN1-xTB:
   * S. Grimme, C. Bannwarth, P. Shushkov, J. Chem. Theory Comput., 2017,
     13, 1989-2009. DOI: 10.1021/acs.jctc.7b00118
   for GFN0-xTB:
   * P. Pracht, E. Caldeweyher, S. Ehlert, S. Grimme, ChemRxiv, 2019, preprint.
     DOI: 10.26434/chemrxiv.8326202.v1
   for GFN-FF:
   * S. Spicher and S. Grimme, Angew. Chem. Int. Ed., 2020, 59, 15665-15673.
     DOI: 10.1002/anie.202004239
   
   for ALPB and GBSA implicit solvation:
   * S. Ehlert, M. Stahn, S. Spicher, S. Grimme, J. Chem. Theory Comput.,
     2021, 17, 4250-4261. DOI: 10.1021/acs.jctc.1c00471
   
   for ddCOSMO and CPCM-X implicit solvation:
   * M. Stahn, S. Ehlert, S. Grimme, J. Phys. Chem. A,
     2023, XX, XXXX-XXXX. DOI: 10.1021/acs.jpca.3c04382
   
   for DFT-D4:
   * E. Caldeweyher, C. Bannwarth and S. Grimme, J. Chem. Phys., 2017,
     147, 034112. DOI: 10.1063/1.4993215
   * E. Caldeweyher, S. Ehlert, A. Hansen, H. Neugebauer, S. Spicher,
     C. Bannwarth and S. Grimme, J. Chem. Phys., 2019, 150, 154122.
     DOI: 10.1063/1.5090222
   * E. Caldeweyher, J.-M. Mewes, S. Ehlert and S. Grimme, Phys. Chem. Chem. Phys.
     2020, 22, 8499-8512. DOI: 10.1039/D0CP00502A
   
   for sTDA-xTB:
   * S. Grimme and C. Bannwarth, J. Chem. Phys., 2016, 145, 054103.
     DOI: 10.1063/1.4959605
   
   in the mass-spec context:
   * V. Asgeirsson, C. Bauer and S. Grimme, Chem. Sci., 2017, 8, 4879.
     DOI: 10.1039/c7sc00601b
   * J. Koopman and S. Grimme, ACS Omega 2019, 4, 12, 15120-15133.
     DOI: 10.1021/acsomega.9b02011
   
   for metadynamics refer to:
   * S. Grimme, J. Chem. Theory Comput., 2019, 155, 2847-2862
     DOI: 10.1021/acs.jctc.9b00143
   
   for SPH calculations refer to:
   * S. Spicher and S. Grimme, J. Chem. Theory Comput., 2021, 17, 1701-1714
     DOI: 10.1021/acs.jctc.0c01306
   
   for ONIOM refer to:
   * C. Plett, A. Katbashev, S. Ehlert, S. Grimme, M. Bursch,
     Phys. Chem. Chem. Phys., 2023, 25, 17860-17868. DOI: 10.1039/D3CP02178E
   
   for DIPRO refer to:
   * J. Kohn, N. Gildemeister, S. Grimme, D. Fazzi, A. Hansen,
     J. Chem. Phys., 2023, just accepted.
   
   for PTB refer to:
   * S. Grimme, M. Mueller, A. Hansen, J. Chem. Phys., 2023, 158, 124111.
     DOI: 10.1063/5.0137838
   
   with help from (in alphabetical order)
   P. Atkinson, C. Bannwarth, F. Bohle, G. Brandenburg, E. Caldeweyher
   M. Checinski, S. Dohm, S. Ehlert, S. Ehrlich, I. Gerasimov, C. Hölzer
   A. Katbashev, J. Kohn, J. Koopman, C. Lavigne, S. Lehtola, F. März, M. Müller,
   F. Musil, H. Neugebauer, J. Pisarek, C. Plett, P. Pracht, F. Pultar,
   J. Seibert, P. Shushkov, S. Spicher, M. Stahn, M. Steiner, T. Strunk,
   J. Stückrath, T. Rose, and J. Unsleber
   
 * started run on 2024/12/20 at 06:49:34.471     
   ID    Z sym.   atoms
    1    6 C      1, 2, 5-11, 13, 15, 16, 18, 19
    2    8 O      3, 12
    3    7 N      4, 14, 17
    4    1 H      20-35

           -------------------------------------------------
          |                Calculation Setup                |
           -------------------------------------------------

          program call               : xtb C0585.xyz --opt --namespace C0585 --charge +1
          calculation namespace      : C0585
          coordinate file            : C0585.xyz
          omp threads                :                     8


           -------------------------------------------------
          |                 G F N 2 - x T B                 |
           -------------------------------------------------

        Reference                      10.1021/acs.jctc.8b01176
      * Hamiltonian:
        H0-scaling (s, p, d)           1.850000    2.230000    2.230000
        zeta-weighting                 0.500000
      * Dispersion:
        s8                             2.700000
        a1                             0.520000
        a2                             5.000000
        s9                             5.000000
      * Repulsion:
        kExp                           1.500000    1.000000
        rExp                           1.000000
      * Coulomb:
        alpha                          2.000000
        third order                    shell-resolved
        anisotropic                    true
        a3                             3.000000
        a5                             4.000000
        cn-shift                       1.200000
        cn-exp                         4.000000
        max-rad                        5.000000


          ...................................................
          :                      SETUP                      :
          :.................................................:
          :  # basis functions                  92          :
          :  # atomic orbitals                  92          :
          :  # shells                           54          :
          :  # electrons                        98          :
          :  max. iterations                   250          :
          :  Hamiltonian                  GFN2-xTB          :
          :  restarted?                      false          :
          :  GBSA solvation                  false          :
          :  PC potential                    false          :
          :  electronic temp.          300.0000000     K    :
          :  accuracy                    1.0000000          :
          :  -> integral cutoff          0.2500000E+02      :
          :  -> integral neglect         0.1000000E-07      :
          :  -> SCF convergence          0.1000000E-05 Eh   :
          :  -> wf. convergence          0.1000000E-03 e    :
          :  Broyden damping             0.4000000          :
          :  net charge                          1          :
          :  unpaired electrons                  0          :
          ...................................................

 iter      E             dE          RMSdq      gap      omega  full diag
   1    -55.2270912 -0.552271E+02  0.406E+00    2.40       0.0  T
   2    -55.3809207 -0.153829E+00  0.246E+00    2.17       1.0  T
   3    -55.3920596 -0.111389E-01  0.141E+00    2.22       1.0  T
   4    -55.3917312  0.328383E-03  0.452E-01    1.74       1.0  T
   5    -55.3985909 -0.685963E-02  0.126E-01    1.83       1.0  T
   6    -55.3989221 -0.331269E-03  0.647E-02    1.89       1.0  T
   7    -55.3989871 -0.649881E-04  0.290E-02    1.90       1.0  T
   8    -55.3989885 -0.132001E-05  0.964E-03    1.91       1.8  T
   9    -55.3989903 -0.189284E-05  0.361E-03    1.91       4.7  T
  10    -55.3989905 -0.135251E-06  0.173E-03    1.91       9.8  T
  11    -55.3989905 -0.133150E-07  0.639E-04    1.91      26.5  T
  12    -55.3989905 -0.739785E-08  0.273E-04    1.91      62.0  T

   *** convergence criteria satisfied after 12 iterations ***

         #    Occupation            Energy/Eh            Energy/eV
      -------------------------------------------------------------
         1        2.0000           -0.9017647             -24.5383
       ...           ...                  ...                  ...
        43        2.0000           -0.5596221             -15.2281
        44        2.0000           -0.5535648             -15.0633
        45        2.0000           -0.5490750             -14.9411
        46        2.0000           -0.5318684             -14.4729
        47        2.0000           -0.5317896             -14.4707
        48        2.0000           -0.4956778             -13.4881
        49        2.0000           -0.4936743             -13.4336 (HOMO)
        50                         -0.4235602             -11.5257 (LUMO)
        51                         -0.4185968             -11.3906
        52                         -0.3854071             -10.4875
        53                         -0.3527171              -9.5979
        54                         -0.3336561              -9.0792
       ...                                ...                  ...
        92                          0.5184088              14.1066
      -------------------------------------------------------------
                  HL-Gap            0.0701141 Eh            1.9079 eV
             Fermi-level           -0.4586172 Eh          -12.4796 eV

 SCC (total)                   0 d,  0 h,  0 min,  0.024 sec
 SCC setup                      ...        0 min,  0.000 sec (  0.519%)
 Dispersion                     ...        0 min,  0.000 sec (  1.603%)
 classical contributions        ...        0 min,  0.000 sec (  0.200%)
 integral evaluation            ...        0 min,  0.002 sec (  7.245%)
 iterations                     ...        0 min,  0.017 sec ( 71.583%)
 molecular gradient             ...        0 min,  0.004 sec ( 18.389%)
 printout                       ...        0 min,  0.000 sec (  0.397%)

         :::::::::::::::::::::::::::::::::::::::::::::::::::::
         ::                     SUMMARY                     ::
         :::::::::::::::::::::::::::::::::::::::::::::::::::::
         :: total energy             -54.642818809936 Eh    ::
         :: gradient norm              0.093654063986 Eh/a0 ::
         :: HOMO-LUMO gap              1.907902410895 eV    ::
         ::.................................................::
         :: SCC energy               -55.398668630153 Eh    ::
         :: -> isotropic ES            0.143470851662 Eh    ::
         :: -> anisotropic ES         -0.008773714970 Eh    ::
         :: -> anisotropic XC          0.027486845028 Eh    ::
         :: -> dispersion             -0.032706439245 Eh    ::
         :: repulsion energy           0.755849820217 Eh    ::
         :: add. restraining           0.000000000000 Eh    ::
         :: total charge               1.000000000000 e     ::
         :::::::::::::::::::::::::::::::::::::::::::::::::::::

      ----------------------------------------------------------- 
     |                   =====================                   |
     |                        A N C O P T                        |
     |                   =====================                   |
     |               Approximate Normal Coordinate               |
     |                Rational Function Optimizer                |
      ----------------------------------------------------------- 
      ----------------------------------------------------------- 
     |                   =====================                   |
     |                        A N C O P T                        |
     |                   =====================                   |
     |               Approximate Normal Coordinate               |
     |                Rational Function Optimizer                |
      ----------------------------------------------------------- 

          ...................................................
          :                      SETUP                      :
          :.................................................:
          :   optimization level            normal          :
          :   max. optcycles                   200          :
          :   ANC micro-cycles                  20          :
          :   degrees of freedom                99          :
          :.................................................:
          :   RF solver                   davidson          :
          :   write xtbopt.log                true          :
          :   linear?                        false          :
          :   energy convergence         0.5000000E-05 Eh   :
          :   grad. convergence          0.1000000E-02 Eh/α :
          :   maxmium RF displ.          1.0000000          :
          :   Hlow (freq-cutoff)         0.1000000E-01      :
          :   Hmax (freq-cutoff)         5.0000000          :
          :   S6 in model hess.         20.0000000          :
          ...................................................

generating ANC from exact Hessian ...
Using Lindh-Hessian (1995)
 Shifting diagonal of input Hessian by    9.6949898649273964E-003
 Lowest  eigenvalues of input Hessian
    0.000000    0.000000    0.000000    0.000000    0.000000    0.000000
    0.010000    0.010118    0.010644    0.011256    0.012070    0.013289
    0.014605    0.016208    0.017545    0.020266    0.020439    0.022494
 Highest eigenvalues
    1.972603    2.013340    2.058405    2.086891    2.118588    2.293821


........................................................................
.............................. CYCLE    1 ..............................
........................................................................

 iter      E             dE          RMSdq      gap      omega  full diag
   1    -55.3989905 -0.553990E+02  0.104E-04    1.91       0.0  T
   2    -55.3989905 -0.815987E-10  0.654E-05    1.91     258.3  T
   3    -55.3989905 -0.564242E-10  0.383E-05    1.91     441.6  T
     SCC iter.                  ...        0 min,  0.004 sec
     gradient                   ...        0 min,  0.004 sec
 * total energy  :   -54.6428188 Eh     change       -0.7912604E-09 Eh
   gradient norm :     0.0936588 Eh/α   predicted     0.0000000E+00 (-100.00%)
   displ. norm   :     0.2285496 α      lambda       -0.1053053E-01
   maximum displ.:     0.0933647 α      in ANC's #58, #27, #7, ...

........................................................................
.............................. CYCLE    2 ..............................
........................................................................

 iter      E             dE          RMSdq      gap      omega  full diag
   1    -55.4413356 -0.554413E+02  0.198E-01    2.04       0.0  T
   2    -55.4415794 -0.243779E-03  0.108E-01    2.07       1.0  T
   3    -55.4415835 -0.412381E-05  0.544E-02    2.08       1.0  T
   4    -55.4415891 -0.556704E-05  0.174E-02    2.09       1.0  T
   5    -55.4415970 -0.796426E-05  0.380E-03    2.09       4.4  T
   6    -55.4415971 -0.727252E-07  0.179E-03    2.09       9.4  T
   7    -55.4415972 -0.424329E-07  0.754E-04    2.09      22.4  T
   8    -55.4415972 -0.513601E-08  0.325E-04    2.09      52.0  T
     SCC iter.                  ...        0 min,  0.010 sec
     gradient                   ...        0 min,  0.004 sec
 * total energy  :   -54.6499075 Eh     change       -0.7088697E-02 Eh
   gradient norm :     0.0408380 Eh/α   predicted    -0.5543573E-02 ( -21.80%)
   displ. norm   :     0.2113574 α      lambda       -0.3363433E-02
   maximum displ.:     0.0925855 α      in ANC's #7, #4, #12, ...

........................................................................
.............................. CYCLE    3 ..............................
........................................................................

 iter      E             dE          RMSdq      gap      omega  full diag
   1    -55.4631086 -0.554631E+02  0.153E-01    2.16       0.0  T
   2    -55.4632643 -0.155682E-03  0.803E-02    2.16       1.0  T
   3    -55.4632678 -0.347154E-05  0.417E-02    2.17       1.0  T
   4    -55.4632711 -0.331790E-05  0.135E-02    2.17       1.2  T
   5    -55.4632756 -0.449341E-05  0.279E-03    2.17       6.1  T
   6    -55.4632756 -0.381915E-07  0.127E-03    2.17      13.3  T
   7    -55.4632756 -0.210443E-07  0.531E-04    2.17      31.9  T
   8    -55.4632757 -0.242205E-08  0.225E-04    2.17      75.3  T
     SCC iter.                  ...        0 min,  0.014 sec
     gradient                   ...        0 min,  0.004 sec
 * total energy  :   -54.6517082 Eh     change       -0.1800660E-02 Eh
   gradient norm :     0.0122178 Eh/α   predicted    -0.1758522E-02 (  -2.34%)
   displ. norm   :     0.1353238 α      lambda       -0.5263127E-03
   maximum displ.:     0.0692580 α      in ANC's #7, #4, #8, ...

........................................................................
.............................. CYCLE    4 ..............................
........................................................................

 iter      E             dE          RMSdq      gap      omega  full diag
   1    -55.4616056 -0.554616E+02  0.621E-02    2.17       0.0  T
   2    -55.4616101 -0.444488E-05  0.360E-02    2.18       1.0  T
   3    -55.4616060  0.403092E-05  0.126E-02    2.18       1.3  T
   4    -55.4616107 -0.467216E-05  0.340E-03    2.18       5.0  T
   5    -55.4616111 -0.440117E-06  0.104E-03    2.18      16.2  T
   6    -55.4616112 -0.782893E-08  0.542E-04    2.18      31.2  T
   7    -55.4616112 -0.210270E-08  0.181E-04    2.18      93.4  T
     SCC iter.                  ...        0 min,  0.009 sec
     gradient                   ...        0 min,  0.004 sec
 * total energy  :   -54.6520539 Eh     change       -0.3457069E-03 Eh
   gradient norm :     0.0058237 Eh/α   predicted    -0.2680227E-03 ( -22.47%)
   displ. norm   :     0.1665431 α      lambda       -0.2805126E-03
   maximum displ.:     0.0871476 α      in ANC's #4, #7, #3, ...

........................................................................
.............................. CYCLE    5 ..............................
........................................................................

 iter      E             dE          RMSdq      gap      omega  full diag
   1    -55.4585207 -0.554585E+02  0.641E-02    2.17       0.0  T
   2    -55.4585220 -0.132156E-05  0.375E-02    2.17       1.0  T
   3    -55.4585197  0.227302E-05  0.815E-03    2.18       2.1  T
   4    -55.4585224 -0.263407E-05  0.179E-03    2.18       9.5  T
   5    -55.4585225 -0.957890E-07  0.720E-04    2.18      23.5  T
   6    -55.4585225 -0.253058E-08  0.337E-04    2.18      50.1  T
     SCC iter.                  ...        0 min,  0.007 sec
     gradient                   ...        0 min,  0.004 sec
 * total energy  :   -54.6522404 Eh     change       -0.1864982E-03 Eh
   gradient norm :     0.0044330 Eh/α   predicted    -0.1442218E-03 ( -22.67%)
   displ. norm   :     0.1468457 α      lambda       -0.1224242E-03
   maximum displ.:     0.0841563 α      in ANC's #4, #3, #7, ...

........................................................................
.............................. CYCLE    6 ..............................
........................................................................

 iter      E             dE          RMSdq      gap      omega  full diag
   1    -55.4575585 -0.554576E+02  0.515E-02    2.18       0.0  T
   2    -55.4575590 -0.527050E-06  0.302E-02    2.17       1.0  T
   3    -55.4575583  0.728820E-06  0.487E-03    2.18       3.5  T
   4    -55.4575592 -0.885757E-06  0.100E-03    2.17      16.9  T
   5    -55.4575592 -0.186207E-07  0.503E-04    2.17      33.6  T
   6    -55.4575592 -0.272092E-08  0.240E-04    2.17      70.4  T
     SCC iter.                  ...        0 min,  0.008 sec
     gradient                   ...        0 min,  0.004 sec
 * total energy  :   -54.6523313 Eh     change       -0.9096796E-04 Eh
   gradient norm :     0.0044080 Eh/α   predicted    -0.6253473E-04 ( -31.26%)
   displ. norm   :     0.1635528 α      lambda       -0.1073644E-03
   maximum displ.:     0.0922185 α      in ANC's #3, #4, #7, ...

........................................................................
.............................. CYCLE    7 ..............................
........................................................................

 iter      E             dE          RMSdq      gap      omega  full diag
   1    -55.4579035 -0.554579E+02  0.539E-02    2.18       0.0  T
   2    -55.4579042 -0.746675E-06  0.315E-02    2.17       1.0  T
   3    -55.4579037  0.518420E-06  0.464E-03    2.17       3.6  T
   4    -55.4579044 -0.684765E-06  0.106E-03    2.17      15.9  T
   5    -55.4579044 -0.167014E-07  0.506E-04    2.17      33.4  T
   6    -55.4579044 -0.157239E-08  0.245E-04    2.17      69.1  T
     SCC iter.                  ...        0 min,  0.007 sec
     gradient                   ...        0 min,  0.004 sec
 * total energy  :   -54.6524153 Eh     change       -0.8396126E-04 Eh
   gradient norm :     0.0033444 Eh/α   predicted    -0.5511956E-04 ( -34.35%)
   displ. norm   :     0.1937209 α      lambda       -0.1064565E-03
   maximum displ.:     0.1203710 α      in ANC's #3, #4, #5, ...

........................................................................
.............................. CYCLE    8 ..............................
........................................................................

 iter      E             dE          RMSdq      gap      omega  full diag
   1    -55.4589810 -0.554590E+02  0.590E-02    2.18       0.0  T
   2    -55.4589819 -0.872174E-06  0.345E-02    2.17       1.0  T
   3    -55.4589813  0.546363E-06  0.491E-03    2.17       3.4  T
   4    -55.4589821 -0.765675E-06  0.121E-03    2.17      14.0  T
   5    -55.4589821 -0.147553E-07  0.590E-04    2.17      28.6  T
   6    -55.4589821 -0.176242E-08  0.242E-04    2.17      69.7  T
     SCC iter.                  ...        0 min,  0.007 sec
     gradient                   ...        0 min,  0.004 sec
 * total energy  :   -54.6525001 Eh     change       -0.8475429E-04 Eh
   gradient norm :     0.0025524 Eh/α   predicted    -0.5522740E-04 ( -34.84%)
   displ. norm   :     0.2270698 α      lambda       -0.1064130E-03
   maximum displ.:     0.1475746 α      in ANC's #3, #4, #2, ...

........................................................................
.............................. CYCLE    9 ..............................
........................................................................

 iter      E             dE          RMSdq      gap      omega  full diag
   1    -55.4599595 -0.554600E+02  0.649E-02    2.17       0.0  T
   2    -55.4599602 -0.766972E-06  0.379E-02    2.17       1.0  T
   3    -55.4599596  0.652420E-06  0.535E-03    2.17       3.2  T
   4    -55.4599605 -0.930487E-06  0.134E-03    2.17      12.6  T
   5    -55.4599605 -0.767583E-08  0.678E-04    2.17      24.9  T
   6    -55.4599605 -0.450984E-08  0.234E-04    2.17      72.1  T
     SCC iter.                  ...        0 min,  0.007 sec
     gradient                   ...        0 min,  0.004 sec
 * total energy  :   -54.6525903 Eh     change       -0.9023938E-04 Eh
   gradient norm :     0.0032052 Eh/α   predicted    -0.5595092E-04 ( -38.00%)
   displ. norm   :     0.2908349 α      lambda       -0.1338911E-03
   maximum displ.:     0.1907371 α      in ANC's #3, #4, #2, ...

........................................................................
.............................. CYCLE   10 ..............................
........................................................................

 iter      E             dE          RMSdq      gap      omega  full diag
   1    -55.4604427 -0.554604E+02  0.805E-02    2.17       0.0  T
   2    -55.4604437 -0.990104E-06  0.471E-02    2.17       1.0  T
   3    -55.4604426  0.105000E-05  0.702E-03    2.17       2.4  T
   4    -55.4604441 -0.150095E-05  0.169E-03    2.17      10.0  T
   5    -55.4604441 -0.200512E-08  0.831E-04    2.17      20.3  T
   6    -55.4604441 -0.961212E-08  0.233E-04    2.17      72.7  T
     SCC iter.                  ...        0 min,  0.007 sec
     gradient                   ...        0 min,  0.004 sec
 * total energy  :   -54.6527111 Eh     change       -0.1208456E-03 Eh
   gradient norm :     0.0042856 Eh/α   predicted    -0.7260897E-04 ( -39.92%)
   displ. norm   :     0.3996229 α      lambda       -0.1967996E-03
   maximum displ.:     0.2608573 α      in ANC's #3, #4, #2, ...

........................................................................
.............................. CYCLE   11 ..............................
........................................................................

 iter      E             dE          RMSdq      gap      omega  full diag
   1    -55.4599832 -0.554600E+02  0.109E-01    2.17       0.0  T
   2    -55.4599853 -0.210658E-05  0.639E-02    2.16       1.0  T
   3    -55.4599830  0.234884E-05  0.108E-02    2.17       1.6  T
   4    -55.4599863 -0.327469E-05  0.237E-03    2.16       7.1  T
   5    -55.4599863 -0.125666E-07  0.118E-03    2.16      14.3  T
   6    -55.4599863 -0.761162E-08  0.371E-04    2.16      45.5  T
   7    -55.4599863 -0.439575E-08  0.110E-04    2.16     153.8  T
     SCC iter.                  ...        0 min,  0.009 sec
     gradient                   ...        0 min,  0.007 sec
 * total energy  :   -54.6528909 Eh     change       -0.1797093E-03 Eh
   gradient norm :     0.0053388 Eh/α   predicted    -0.1141161E-03 ( -36.50%)
   displ. norm   :     0.5299181 α      lambda       -0.2772310E-03
   maximum displ.:     0.3443578 α      in ANC's #3, #4, #2, ...

........................................................................
.............................. CYCLE   12 ..............................
........................................................................

 iter      E             dE          RMSdq      gap      omega  full diag
   1    -55.4581406 -0.554581E+02  0.144E-01    2.16       0.0  T
   2    -55.4581453 -0.471980E-05  0.842E-02    2.16       1.0  T
   3    -55.4581400  0.524741E-05  0.164E-02    2.16       1.0  T
   4    -55.4581471 -0.710381E-05  0.325E-03    2.16       5.2  T
   5    -55.4581472 -0.428972E-07  0.165E-03    2.16      10.2  T
   6    -55.4581472 -0.474360E-08  0.492E-04    2.16      34.4  T
   7    -55.4581472 -0.616584E-08  0.151E-04    2.16     111.9  T
     SCC iter.                  ...        0 min,  0.009 sec
     gradient                   ...        0 min,  0.004 sec
 * total energy  :   -54.6531272 Eh     change       -0.2363237E-03 Eh
   gradient norm :     0.0069003 Eh/α   predicted    -0.1775459E-03 ( -24.87%)
   displ. norm   :     0.6055606 α      lambda       -0.3251559E-03
   maximum displ.:     0.3956000 α      in ANC's #3, #2, #4, ...

........................................................................
.............................. CYCLE   13 ..............................
........................................................................

 iter      E             dE          RMSdq      gap      omega  full diag
   1    -55.4557934 -0.554558E+02  0.163E-01    2.15       0.0  T
   2    -55.4558007 -0.723132E-05  0.951E-02    2.15       1.0  T
   3    -55.4557925  0.814814E-05  0.203E-02    2.15       1.0  T
   4    -55.4558033 -0.108092E-04  0.377E-03    2.15       4.5  T
   5    -55.4558034 -0.735933E-07  0.191E-03    2.15       8.8  T
   6    -55.4558034 -0.482616E-08  0.497E-04    2.15      34.0  T
   7    -55.4558034 -0.517318E-08  0.160E-04    2.15     105.8  T
     SCC iter.                  ...        0 min,  0.009 sec
     gradient                   ...        0 min,  0.004 sec
 * total energy  :   -54.6533661 Eh     change       -0.2389261E-03 Eh
   gradient norm :     0.0091232 Eh/α   predicted    -0.2221975E-03 (  -7.00%)
   displ. norm   :     0.3536779 α      lambda       -0.3023356E-03
   maximum displ.:     0.2196824 α      in ANC's #3, #1, #2, ...

........................................................................
.............................. CYCLE   14 ..............................
........................................................................

 iter      E             dE          RMSdq      gap      omega  full diag
   1    -55.4592897 -0.554593E+02  0.935E-02    2.15       0.0  T
   2    -55.4592949 -0.520244E-05  0.544E-02    2.15       1.0  T
   3    -55.4592911  0.379510E-05  0.143E-02    2.15       1.2  T
   4    -55.4592960 -0.485850E-05  0.309E-03    2.15       5.5  T
   5    -55.4592962 -0.206952E-06  0.127E-03    2.15      13.3  T
   6    -55.4592962  0.320232E-08  0.615E-04    2.15      27.5  T
   7    -55.4592962 -0.111884E-07  0.144E-04    2.15     117.8  T
     SCC iter.                  ...        0 min,  0.009 sec
     gradient                   ...        0 min,  0.004 sec
 * total energy  :   -54.6535669 Eh     change       -0.2007677E-03 Eh
   gradient norm :     0.0074252 Eh/α   predicted    -0.1700774E-03 ( -15.29%)
   displ. norm   :     0.5506839 α      lambda       -0.2681670E-03
   maximum displ.:     0.3497927 α      in ANC's #3, #1, #4, ...

........................................................................
.............................. CYCLE   15 ..............................
........................................................................

 iter      E             dE          RMSdq      gap      omega  full diag
   1    -55.4544925 -0.554545E+02  0.142E-01    2.14       0.0  T
   2    -55.4544997 -0.717458E-05  0.831E-02    2.13       1.0  T
   3    -55.4544906  0.911232E-05  0.206E-02    2.13       1.0  T
   4    -55.4545023 -0.117163E-04  0.350E-03    2.13       4.8  T
   5    -55.4545024 -0.797975E-07  0.176E-03    2.13       9.6  T
   6    -55.4545024 -0.191089E-08  0.672E-04    2.13      25.2  T
   7    -55.4545024 -0.102439E-07  0.206E-04    2.13      81.9  T
     SCC iter.                  ...        0 min,  0.009 sec
     gradient                   ...        0 min,  0.004 sec
 * total energy  :   -54.6537395 Eh     change       -0.1726701E-03 Eh
   gradient norm :     0.0095027 Eh/α   predicted    -0.1747505E-03 (   1.20%)
   displ. norm   :     0.2512794 α      lambda       -0.2901519E-03
   maximum displ.:     0.1366193 α      in ANC's #3, #1, #4, ...

........................................................................
.............................. CYCLE   16 ..............................
........................................................................

 iter      E             dE          RMSdq      gap      omega  full diag
   1    -55.4587209 -0.554587E+02  0.667E-02    2.14       0.0  T
   2    -55.4587254 -0.451806E-05  0.383E-02    2.13       1.0  T
   3    -55.4587235  0.182787E-05  0.110E-02    2.13       1.5  T
   4    -55.4587259 -0.238708E-05  0.293E-03    2.13       5.8  T
   5    -55.4587262 -0.264880E-06  0.100E-03    2.13      16.8  T
   6    -55.4587262 -0.488860E-08  0.508E-04    2.13      33.3  T
   7    -55.4587262 -0.396520E-08  0.195E-04    2.13      86.7  T
     SCC iter.                  ...        0 min,  0.009 sec
     gradient                   ...        0 min,  0.004 sec
 * total energy  :   -54.6539193 Eh     change       -0.1797227E-03 Eh
   gradient norm :     0.0081807 Eh/α   predicted    -0.1542406E-03 ( -14.18%)
   displ. norm   :     0.4171586 α      lambda       -0.2106723E-03
   maximum displ.:     0.2665226 α      in ANC's #3, #1, #4, ...

........................................................................
.............................. CYCLE   17 ..............................
........................................................................

 iter      E             dE          RMSdq      gap      omega  full diag
   1    -55.4578061 -0.554578E+02  0.107E-01    2.13       0.0  T
   2    -55.4578090 -0.294658E-05  0.619E-02    2.12       1.0  T
   3    -55.4578060  0.303469E-05  0.121E-02    2.12       1.4  T
   4    -55.4578101 -0.416321E-05  0.250E-03    2.12       6.8  T
   5    -55.4578102 -0.327412E-07  0.126E-03    2.12      13.4  T
   6    -55.4578102 -0.788962E-08  0.514E-04    2.12      32.9  T
   7    -55.4578102 -0.648273E-08  0.167E-04    2.12     101.4  T
     SCC iter.                  ...        0 min,  0.009 sec
     gradient                   ...        0 min,  0.004 sec
 * total energy  :   -54.6540778 Eh     change       -0.1585583E-03 Eh
   gradient norm :     0.0076580 Eh/α   predicted    -0.1236680E-03 ( -22.00%)
   displ. norm   :     0.3598757 α      lambda       -0.2816894E-03
   maximum displ.:     0.2099181 α      in ANC's #3, #1, #4, ...

........................................................................
.............................. CYCLE   18 ..............................
........................................................................

 iter      E             dE          RMSdq      gap      omega  full diag
   1    -55.4608969 -0.554609E+02  0.924E-02    2.12       0.0  T
   2    -55.4609004 -0.350998E-05  0.540E-02    2.12       1.0  T
   3    -55.4608971  0.327720E-05  0.125E-02    2.12       1.4  T
   4    -55.4609015 -0.439586E-05  0.241E-03    2.12       7.0  T
   5    -55.4609015 -0.641184E-07  0.129E-03    2.12      13.2  T
   6    -55.4609016 -0.670083E-08  0.434E-04    2.12      38.9  T
   7    -55.4609016 -0.259087E-08  0.167E-04    2.12     101.0  T
     SCC iter.                  ...        0 min,  0.009 sec
     gradient                   ...        0 min,  0.004 sec
 * total energy  :   -54.6542737 Eh     change       -0.1958455E-03 Eh
   gradient norm :     0.0057947 Eh/α   predicted    -0.1590870E-03 ( -18.77%)
   displ. norm   :     0.5823058 α      lambda       -0.2633988E-03
   maximum displ.:     0.3425268 α      in ANC's #3, #1, #4, ...

........................................................................
.............................. CYCLE   19 ..............................
........................................................................

 iter      E             dE          RMSdq      gap      omega  full diag
   1    -55.4564830 -0.554565E+02  0.145E-01    2.11       0.0  T
   2    -55.4564891 -0.615246E-05  0.847E-02    2.11       1.0  T
   3    -55.4564841  0.498889E-05  0.163E-02    2.11       1.0  T
   4    -55.4564912 -0.712119E-05  0.359E-03    2.10       4.7  T
   5    -55.4564913 -0.974806E-07  0.197E-03    2.10       8.6  T
   6    -55.4564914 -0.107842E-07  0.683E-04    2.10      24.8  T
   7    -55.4564914 -0.120853E-07  0.234E-04    2.10      72.3  T
     SCC iter.                  ...        0 min,  0.009 sec
     gradient                   ...        0 min,  0.004 sec
 * total energy  :   -54.6544375 Eh     change       -0.1637924E-03 Eh
   gradient norm :     0.0090937 Eh/α   predicted    -0.1763586E-03 (   7.67%)
   displ. norm   :     0.2852166 α      lambda       -0.3357442E-03
   maximum displ.:     0.1679259 α      in ANC's #1, #3, #12, ...

........................................................................
.............................. CYCLE   20 ..............................
........................................................................

 iter      E             dE          RMSdq      gap      omega  full diag
   1    -55.4622621 -0.554623E+02  0.824E-02    2.10       0.0  T
   2    -55.4622669 -0.480514E-05  0.484E-02    2.11       1.0  T
   3    -55.4622653  0.160407E-05  0.962E-03    2.11       1.8  T
   4    -55.4622675 -0.225210E-05  0.282E-03    2.11       6.0  T
   5    -55.4622677 -0.185619E-06  0.117E-03    2.11      14.5  T
   6    -55.4622677 -0.427283E-08  0.611E-04    2.11      27.6  T
   7    -55.4622677 -0.515574E-08  0.204E-04    2.11      82.8  T
     SCC iter.                  ...        0 min,  0.009 sec
     gradient                   ...        0 min,  0.004 sec
 * total energy  :   -54.6546254 Eh     change       -0.1878955E-03 Eh
   gradient norm :     0.0079992 Eh/α   predicted    -0.1815312E-03 (  -3.39%)
   displ. norm   :     0.4518310 α      lambda       -0.2303778E-03
   maximum displ.:     0.2676794 α      in ANC's #3, #1, #2, ...
 * RMSD in coord.:     0.9643203 α      energy gain  -0.1180654E-01 Eh

generating ANC from exact Hessian ...
Using Lindh-Hessian (1995)
 Shifting diagonal of input Hessian by    9.6205957102159859E-003
 Lowest  eigenvalues of input Hessian
    0.000000    0.000000    0.000000    0.000000    0.000000    0.000000
    0.010000    0.010091    0.010575    0.011291    0.012172    0.013331
    0.014557    0.016896    0.017893    0.020675    0.021591    0.022891
 Highest eigenvalues
    2.051055    2.053353    2.170716    2.213123    2.254162    2.362746


........................................................................
.............................. CYCLE   21 ..............................
........................................................................

 iter      E             dE          RMSdq      gap      omega  full diag
   1    -55.4599875 -0.554600E+02  0.110E-01    2.11       0.0  T
   2    -55.4599933 -0.574832E-05  0.638E-02    2.11       1.0  T
   3    -55.4599889  0.437219E-05  0.151E-02    2.11       1.1  T
   4    -55.4599948 -0.591984E-05  0.310E-03    2.11       5.5  T
   5    -55.4599950 -0.146039E-06  0.160E-03    2.11      10.6  T
   6    -55.4599950 -0.104441E-07  0.749E-04    2.11      22.6  T
   7    -55.4599950 -0.118889E-07  0.227E-04    2.11      74.4  T
     SCC iter.                  ...        0 min,  0.009 sec
     gradient                   ...        0 min,  0.004 sec
 * total energy  :   -54.6547883 Eh     change       -0.1629837E-03 Eh
   gradient norm :     0.0083989 Eh/α   predicted     0.0000000E+00 (-100.00%)
   displ. norm   :     0.0606716 α      lambda       -0.1635857E-03
   maximum displ.:     0.0361673 α      in ANC's #1, #3, #6, ...

........................................................................
.............................. CYCLE   22 ..............................
........................................................................

 iter      E             dE          RMSdq      gap      omega  full diag
   1    -55.4624665 -0.554625E+02  0.269E-02    2.11       0.0  T
   2    -55.4624678 -0.128635E-05  0.156E-02    2.11       1.1  T
   3    -55.4624674  0.372972E-06  0.583E-03    2.11       2.9  T
   4    -55.4624679 -0.538906E-06  0.134E-03    2.11      12.7  T
   5    -55.4624680 -0.567984E-07  0.476E-04    2.11      35.5  T
   6    -55.4624680 -0.159412E-08  0.246E-04    2.11      68.7  T
     SCC iter.                  ...        0 min,  0.007 sec
     gradient                   ...        0 min,  0.005 sec
 * total energy  :   -54.6549023 Eh     change       -0.1139615E-03 Eh
   gradient norm :     0.0031704 Eh/α   predicted    -0.8364473E-04 ( -26.60%)
   displ. norm   :     0.0977449 α      lambda       -0.8772141E-04
   maximum displ.:     0.0631016 α      in ANC's #1, #3, #6, ...

........................................................................
.............................. CYCLE   23 ..............................
........................................................................

 iter      E             dE          RMSdq      gap      omega  full diag
   1    -55.4638416 -0.554638E+02  0.277E-02    2.11       0.0  T
   2    -55.4638425 -0.832160E-06  0.161E-02    2.11       1.1  T
   3    -55.4638420  0.440141E-06  0.514E-03    2.11       3.3  T
   4    -55.4638426 -0.566656E-06  0.114E-03    2.11      14.9  T
   5    -55.4638426 -0.433884E-07  0.393E-04    2.11      43.0  T
   6    -55.4638426 -0.627509E-09  0.194E-04    2.11      87.0  T
     SCC iter.                  ...        0 min,  0.008 sec
     gradient                   ...        0 min,  0.004 sec
 * total energy  :   -54.6549643 Eh     change       -0.6196574E-04 Eh
   gradient norm :     0.0021512 Eh/α   predicted    -0.4430813E-04 ( -28.50%)
   displ. norm   :     0.1296790 α      lambda       -0.6774624E-04
   maximum displ.:     0.0816060 α      in ANC's #1, #3, #6, ...

........................................................................
.............................. CYCLE   24 ..............................
........................................................................

 iter      E             dE          RMSdq      gap      omega  full diag
   1    -55.4640107 -0.554640E+02  0.310E-02    2.11       0.0  T
   2    -55.4640111 -0.409941E-06  0.181E-02    2.11       1.0  T
   3    -55.4640108  0.348721E-06  0.357E-03    2.11       4.7  T
   4    -55.4640112 -0.431581E-06  0.961E-04    2.11      17.6  T
   5    -55.4640112 -0.260338E-07  0.409E-04    2.11      41.4  T
     SCC iter.                  ...        0 min,  0.006 sec
     gradient                   ...        0 min,  0.004 sec
 * total energy  :   -54.6550222 Eh     change       -0.5793934E-04 Eh
   gradient norm :     0.0033898 Eh/α   predicted    -0.3444328E-04 ( -40.55%)
   displ. norm   :     0.2281205 α      lambda       -0.1108662E-03
   maximum displ.:     0.1379234 α      in ANC's #1, #3, #6, ...

........................................................................
.............................. CYCLE   25 ..............................
........................................................................

 iter      E             dE          RMSdq      gap      omega  full diag
   1    -55.4632632 -0.554633E+02  0.531E-02    2.11       0.0  T
   2    -55.4632640 -0.730690E-06  0.311E-02    2.11       1.0  T
   3    -55.4632634  0.525671E-06  0.480E-03    2.12       3.5  T
   4    -55.4632642 -0.752886E-06  0.136E-03    2.12      12.4  T
   5    -55.4632642 -0.223553E-07  0.664E-04    2.12      25.5  T
   6    -55.4632642 -0.175920E-08  0.217E-04    2.12      77.9  T
     SCC iter.                  ...        0 min,  0.007 sec
     gradient                   ...        0 min,  0.004 sec
 * total energy  :   -54.6551189 Eh     change       -0.9665826E-04 Eh
   gradient norm :     0.0043865 Eh/α   predicted    -0.5831869E-04 ( -39.67%)
   displ. norm   :     0.3355436 α      lambda       -0.1496041E-03
   maximum displ.:     0.2025390 α      in ANC's #1, #3, #4, ...

........................................................................
.............................. CYCLE   26 ..............................
........................................................................

 iter      E             dE          RMSdq      gap      omega  full diag
   1    -55.4616022 -0.554616E+02  0.774E-02    2.12       0.0  T
   2    -55.4616037 -0.158038E-05  0.452E-02    2.12       1.0  T
   3    -55.4616026  0.111518E-05  0.763E-03    2.12       2.2  T
   4    -55.4616043 -0.165862E-05  0.201E-03    2.12       8.4  T
   5    -55.4616043 -0.314380E-07  0.996E-04    2.12      17.0  T
   6    -55.4616043 -0.410856E-08  0.363E-04    2.12      46.6  T
     SCC iter.                  ...        0 min,  0.014 sec
     gradient                   ...        0 min,  0.004 sec
 * total energy  :   -54.6552407 Eh     change       -0.1218254E-03 Eh
   gradient norm :     0.0052170 Eh/α   predicted    -0.8322582E-04 ( -31.68%)
   displ. norm   :     0.3260126 α      lambda       -0.1321836E-03
   maximum displ.:     0.2023162 α      in ANC's #1, #3, #4, ...

........................................................................
.............................. CYCLE   27 ..............................
........................................................................

 iter      E             dE          RMSdq      gap      omega  full diag
   1    -55.4603641 -0.554604E+02  0.746E-02    2.12       0.0  T
   2    -55.4603657 -0.160258E-05  0.435E-02    2.12       1.0  T
   3    -55.4603644  0.129329E-05  0.835E-03    2.12       2.0  T
   4    -55.4603663 -0.188303E-05  0.194E-03    2.12       8.7  T
   5    -55.4603663 -0.235635E-07  0.983E-04    2.12      17.2  T
   6    -55.4603663 -0.253699E-08  0.369E-04    2.12      45.8  T
     SCC iter.                  ...        0 min,  0.007 sec
     gradient                   ...        0 min,  0.004 sec
 * total energy  :   -54.6553454 Eh     change       -0.1047406E-03 Eh
   gradient norm :     0.0057687 Eh/α   predicted    -0.7311797E-04 ( -30.19%)
   displ. norm   :     0.3140337 α      lambda       -0.1493371E-03
   maximum displ.:     0.2040248 α      in ANC's #1, #3, #4, ...

........................................................................
.............................. CYCLE   28 ..............................
........................................................................

 iter      E             dE          RMSdq      gap      omega  full diag
   1    -55.4604160 -0.554604E+02  0.720E-02    2.12       0.0  T
   2    -55.4604176 -0.166778E-05  0.420E-02    2.12       1.0  T
   3    -55.4604160  0.162008E-05  0.902E-03    2.13       1.9  T
   4    -55.4604183 -0.226470E-05  0.184E-03    2.12       9.2  T
   5    -55.4604183 -0.188026E-07  0.968E-04    2.12      17.5  T
   6    -55.4604183 -0.237524E-08  0.352E-04    2.12      48.0  T
     SCC iter.                  ...        0 min,  0.007 sec
     gradient                   ...        0 min,  0.004 sec
 * total energy  :   -54.6554678 Eh     change       -0.1223330E-03 Eh
   gradient norm :     0.0057016 Eh/α   predicted    -0.8203970E-04 ( -32.94%)
   displ. norm   :     0.3691584 α      lambda       -0.2195088E-03
   maximum displ.:     0.2536403 α      in ANC's #1, #3, #4, ...

........................................................................
.............................. CYCLE   29 ..............................
........................................................................

 iter      E             dE          RMSdq      gap      omega  full diag
   1    -55.4620409 -0.554620E+02  0.869E-02    2.12       0.0  T
   2    -55.4620440 -0.305962E-05  0.507E-02    2.12       1.0  T
   3    -55.4620413  0.266381E-05  0.113E-02    2.13       1.5  T
   4    -55.4620449 -0.364602E-05  0.230E-03    2.13       7.4  T
   5    -55.4620450 -0.510004E-07  0.120E-03    2.13      14.1  T
   6    -55.4620450 -0.338720E-08  0.486E-04    2.13      34.8  T
   7    -55.4620450 -0.433989E-08  0.132E-04    2.13     127.9  T
     SCC iter.                  ...        0 min,  0.009 sec
     gradient                   ...        0 min,  0.005 sec
 * total energy  :   -54.6556408 Eh     change       -0.1730496E-03 Eh
   gradient norm :     0.0059668 Eh/α   predicted    -0.1247134E-03 ( -27.93%)
   displ. norm   :     0.4532619 α      lambda       -0.2229205E-03
   maximum displ.:     0.3202375 α      in ANC's #1, #3, #4, ...

........................................................................
.............................. CYCLE   30 ..............................
........................................................................

 iter      E             dE          RMSdq      gap      omega  full diag
   1    -55.4623195 -0.554623E+02  0.105E-01    2.12       0.0  T
   2    -55.4623231 -0.360765E-05  0.610E-02    2.12       1.0  T
   3    -55.4623191  0.401412E-05  0.130E-02    2.13       1.3  T
   4    -55.4623244 -0.534723E-05  0.271E-03    2.12       6.2  T
   5    -55.4623245 -0.795472E-07  0.147E-03    2.12      11.5  T
   6    -55.4623245 -0.117856E-07  0.593E-04    2.12      28.5  T
   7    -55.4623245 -0.709621E-08  0.166E-04    2.12     101.6  T
     SCC iter.                  ...        0 min,  0.009 sec
     gradient                   ...        0 min,  0.004 sec
 * total energy  :   -54.6558248 Eh     change       -0.1839878E-03 Eh
   gradient norm :     0.0074477 Eh/α   predicted    -0.1343612E-03 ( -26.97%)
   displ. norm   :     0.4709906 α      lambda       -0.2766644E-03
   maximum displ.:     0.3486720 α      in ANC's #1, #3, #4, ...

........................................................................
.............................. CYCLE   31 ..............................
........................................................................

 iter      E             dE          RMSdq      gap      omega  full diag
   1    -55.4646807 -0.554647E+02  0.108E-01    2.12       0.0  T
   2    -55.4646850 -0.428445E-05  0.634E-02    2.12       1.0  T
   3    -55.4646788  0.616595E-05  0.145E-02    2.13       1.2  T
   4    -55.4646865 -0.767644E-05  0.307E-03    2.12       5.5  T
   5    -55.4646867 -0.187541E-06  0.156E-03    2.12      10.8  T
   6    -55.4646867 -0.136826E-07  0.675E-04    2.12      25.0  T
   7    -55.4646867 -0.633560E-08  0.202E-04    2.12      83.9  T
     SCC iter.                  ...        0 min,  0.009 sec
     gradient                   ...        0 min,  0.004 sec
 * total energy  :   -54.6560479 Eh     change       -0.2230923E-03 Eh
   gradient norm :     0.0074807 Eh/α   predicted    -0.1690190E-03 ( -24.24%)
   displ. norm   :     0.7707853 α      lambda       -0.3610919E-03
   maximum displ.:     0.5647885 α      in ANC's #1, #3, #4, ...

........................................................................
.............................. CYCLE   32 ..............................
........................................................................

 iter      E             dE          RMSdq      gap      omega  full diag
   1    -55.4589401 -0.554589E+02  0.171E-01    2.11       0.0  T
   2    -55.4589529 -0.128029E-04  0.993E-02    2.11       1.0  T
   3    -55.4589356  0.172986E-04  0.257E-02    2.12       1.0  T
   4    -55.4589569 -0.212984E-04  0.565E-03    2.12       3.0  T
   5    -55.4589578 -0.806423E-06  0.260E-03    2.12       6.5  T
   6    -55.4589578 -0.194847E-07  0.127E-03    2.12      13.3  T
   7    -55.4589578 -0.304980E-07  0.256E-04    2.12      65.9  T
   8    -55.4589578 -0.543068E-09  0.146E-04    2.12     115.9  T
     SCC iter.                  ...        0 min,  0.012 sec
     gradient                   ...        0 min,  0.004 sec
 * total energy  :   -54.6562943 Eh     change       -0.2464577E-03 Eh
   gradient norm :     0.0103385 Eh/α   predicted    -0.2878159E-03 (  16.78%)
   displ. norm   :     0.4223391 α      lambda       -0.4652956E-03
   maximum displ.:     0.3255967 α      in ANC's #1, #3, #2, ...

........................................................................
.............................. CYCLE   33 ..............................
........................................................................

 iter      E             dE          RMSdq      gap      omega  full diag
   1    -55.4630881 -0.554631E+02  0.947E-02    2.12       0.0  T
   2    -55.4630942 -0.617212E-05  0.551E-02    2.12       1.0  T
   3    -55.4630833  0.109660E-04  0.200E-02    2.12       1.0  T
   4    -55.4630963 -0.130304E-04  0.364E-03    2.12       4.6  T
   5    -55.4630968 -0.475333E-06  0.139E-03    2.12      12.2  T
   6    -55.4630968 -0.109783E-07  0.757E-04    2.12      22.3  T
   7    -55.4630968 -0.480002E-08  0.194E-04    2.12      87.2  T
     SCC iter.                  ...        0 min,  0.009 sec
     gradient                   ...        0 min,  0.004 sec
 * total energy  :   -54.6566319 Eh     change       -0.3375580E-03 Eh
   gradient norm :     0.0050482 Eh/α   predicted    -0.2741515E-03 ( -18.78%)
   displ. norm   :     0.6695659 α      lambda       -0.3595872E-03
   maximum displ.:     0.5207351 α      in ANC's #1, #3, #4, ...

........................................................................
.............................. CYCLE   34 ..............................
........................................................................

 iter      E             dE          RMSdq      gap      omega  full diag
   1    -55.4603052 -0.554603E+02  0.141E-01    2.10       0.0  T
   2    -55.4603124 -0.727251E-05  0.826E-02    2.11       1.0  T
   3    -55.4602921  0.203279E-04  0.248E-02    2.11       1.0  T
   4    -55.4603162 -0.241118E-04  0.411E-03    2.11       4.1  T
   5    -55.4603166 -0.347635E-06  0.206E-03    2.11       8.2  T
   6    -55.4603166 -0.842800E-08  0.885E-04    2.11      19.1  T
   7    -55.4603166 -0.150183E-07  0.231E-04    2.11      73.1  T
     SCC iter.                  ...        0 min,  0.009 sec
     gradient                   ...        0 min,  0.004 sec
 * total energy  :   -54.6569150 Eh     change       -0.2830558E-03 Eh
   gradient norm :     0.0081405 Eh/α   predicted    -0.2604008E-03 (  -8.00%)
   displ. norm   :     0.5135777 α      lambda       -0.4660923E-03
   maximum displ.:     0.4028911 α      in ANC's #1, #3, #2, ...

........................................................................
.............................. CYCLE   35 ..............................
........................................................................

 iter      E             dE          RMSdq      gap      omega  full diag
   1    -55.4656091 -0.554656E+02  0.108E-01    2.11       0.0  T
   2    -55.4656159 -0.682701E-05  0.628E-02    2.11       1.0  T
   3    -55.4656036  0.123199E-04  0.214E-02    2.11       1.0  T
   4    -55.4656183 -0.146768E-04  0.391E-03    2.11       4.3  T
   5    -55.4656188 -0.491540E-06  0.158E-03    2.11      10.7  T
   6    -55.4656188 -0.125488E-07  0.876E-04    2.11      19.3  T
   7    -55.4656188 -0.827835E-08  0.210E-04    2.11      80.4  T
     SCC iter.                  ...        0 min,  0.012 sec
     gradient                   ...        0 min,  0.005 sec
 * total energy  :   -54.6571960 Eh     change       -0.2810608E-03 Eh
   gradient norm :     0.0092583 Eh/α   predicted    -0.2945169E-03 (   4.79%)
   displ. norm   :     0.7023557 α      lambda       -0.4280326E-03
   maximum displ.:     0.5582235 α      in ANC's #1, #3, #4, ...

........................................................................
.............................. CYCLE   36 ..............................
........................................................................

 iter      E             dE          RMSdq      gap      omega  full diag
   1    -55.4587827 -0.554588E+02  0.137E-01    2.09       0.0  T
   2    -55.4587949 -0.122167E-04  0.795E-02    2.09       1.0  T
   3    -55.4587812  0.137554E-04  0.233E-02    2.10       1.0  T
   4    -55.4587974 -0.162897E-04  0.586E-03    2.10       2.9  T
   5    -55.4587986 -0.112338E-05  0.217E-03    2.10       7.8  T
   6    -55.4587986 -0.345581E-08  0.110E-03    2.10      15.4  T
   7    -55.4587986 -0.202098E-07  0.233E-04    2.10      72.4  T
   8    -55.4587986 -0.619934E-09  0.131E-04    2.10     128.6  T
     SCC iter.                  ...        0 min,  0.010 sec
     gradient                   ...        0 min,  0.004 sec
 * total energy  :   -54.6574435 Eh     change       -0.2475150E-03 Eh
   gradient norm :     0.0113393 Eh/α   predicted    -0.3195968E-03 (  29.12%)
   displ. norm   :     0.2982497 α      lambda       -0.3296230E-03
   maximum displ.:     0.2409246 α      in ANC's #1, #2, #5, ...

........................................................................
.............................. CYCLE   37 ..............................
........................................................................

 iter      E             dE          RMSdq      gap      omega  full diag
   1    -55.4618056 -0.554618E+02  0.580E-02    2.09       0.0  T
   2    -55.4618095 -0.388123E-05  0.334E-02    2.09       1.0  T
   3    -55.4618083  0.119610E-05  0.924E-03    2.09       1.8  T
   4    -55.4618097 -0.142201E-05  0.287E-03    2.09       5.9  T
   5    -55.4618100 -0.322031E-06  0.912E-04    2.09      18.5  T
   6    -55.4618100 -0.375815E-08  0.463E-04    2.09      36.5  T
     SCC iter.                  ...        0 min,  0.008 sec
     gradient                   ...        0 min,  0.004 sec
 * total energy  :   -54.6576972 Eh     change       -0.2537089E-03 Eh
   gradient norm :     0.0085422 Eh/α   predicted    -0.1794741E-03 ( -29.26%)
   displ. norm   :     0.4636876 α      lambda       -0.4839986E-03
   maximum displ.:     0.3675349 α      in ANC's #1, #2, #5, ...

........................................................................
.............................. CYCLE   38 ..............................
........................................................................

 iter      E             dE          RMSdq      gap      omega  full diag
   1    -55.4675844 -0.554676E+02  0.898E-02    2.08       0.0  T
   2    -55.4675961 -0.117677E-04  0.520E-02    2.08       1.0  T
   3    -55.4675928  0.334936E-05  0.155E-02    2.08       1.1  T
   4    -55.4675970 -0.419185E-05  0.462E-03    2.08       3.7  T
   5    -55.4675977 -0.693271E-06  0.131E-03    2.08      12.9  T
   6    -55.4675977 -0.109075E-07  0.682E-04    2.08      24.8  T
   7    -55.4675977 -0.495508E-08  0.268E-04    2.08      63.0  T
     SCC iter.                  ...        0 min,  0.009 sec
     gradient                   ...        0 min,  0.004 sec
 * total energy  :   -54.6579904 Eh     change       -0.2932019E-03 Eh
   gradient norm :     0.0087946 Eh/α   predicted    -0.2940353E-03 (   0.28%)
   displ. norm   :     0.7399071 α      lambda       -0.4460997E-03
   maximum displ.:     0.6026573 α      in ANC's #1, #3, #2, ...

........................................................................
.............................. CYCLE   39 ..............................
........................................................................

 iter      E             dE          RMSdq      gap      omega  full diag
   1    -55.4619773 -0.554620E+02  0.138E-01    2.07       0.0  T
   2    -55.4619869 -0.957696E-05  0.803E-02    2.07       1.0  T
   3    -55.4619707  0.161424E-04  0.244E-02    2.07       1.0  T
   4    -55.4619900 -0.192980E-04  0.465E-03    2.07       3.6  T
   5    -55.4619906 -0.601139E-06  0.197E-03    2.07       8.6  T
   6    -55.4619906 -0.681236E-08  0.964E-04    2.07      17.5  T
   7    -55.4619907 -0.166317E-07  0.208E-04    2.07      81.3  T
     SCC iter.                  ...        0 min,  0.009 sec
     gradient                   ...        0 min,  0.004 sec
 * total energy  :   -54.6583215 Eh     change       -0.3310388E-03 Eh
   gradient norm :     0.0093400 Eh/α   predicted    -0.3451634E-03 (   4.27%)
   displ. norm   :     0.5448721 α      lambda       -0.4024667E-03
   maximum displ.:     0.4398114 α      in ANC's #1, #2, #5, ...

........................................................................
.............................. CYCLE   40 ..............................
........................................................................

 iter      E             dE          RMSdq      gap      omega  full diag
   1    -55.4634225 -0.554634E+02  0.958E-02    2.09       0.0  T
   2    -55.4634276 -0.505951E-05  0.562E-02    2.08       1.0  T
   3    -55.4634177  0.991594E-05  0.183E-02    2.08       1.0  T
   4    -55.4634297 -0.119654E-04  0.277E-03    2.08       6.1  T
   5    -55.4634298 -0.129920E-06  0.152E-03    2.08      11.1  T
   6    -55.4634298 -0.372553E-07  0.653E-04    2.08      25.9  T
   7    -55.4634298 -0.188122E-08  0.210E-04    2.08      80.6  T
     SCC iter.                  ...        0 min,  0.008 sec
     gradient                   ...        0 min,  0.004 sec
 * total energy  :   -54.6585856 Eh     change       -0.2641317E-03 Eh
   gradient norm :     0.0139205 Eh/α   predicted    -0.2609781E-03 (  -1.19%)
   displ. norm   :     0.6024300 α      lambda       -0.4970299E-03
   maximum displ.:     0.4901831 α      in ANC's #1, #2, #5, ...

........................................................................
.............................. CYCLE   41 ..............................
........................................................................

 iter      E             dE          RMSdq      gap      omega  full diag
   1    -55.4609869 -0.554610E+02  0.111E-01    2.06       0.0  T
   2    -55.4609962 -0.926800E-05  0.647E-02    2.06       1.0  T
   3    -55.4609839  0.122372E-04  0.223E-02    2.06       1.0  T
   4    -55.4609988 -0.148471E-04  0.400E-03    2.06       4.2  T
   5    -55.4609993 -0.467829E-06  0.152E-03    2.06      11.1  T
   6    -55.4609993 -0.465528E-08  0.831E-04    2.06      20.3  T
   7    -55.4609993 -0.136164E-07  0.183E-04    2.06      92.5  T
     SCC iter.                  ...        0 min,  0.008 sec
     gradient                   ...        0 min,  0.004 sec
 * total energy  :   -54.6589706 Eh     change       -0.3849598E-03 Eh
   gradient norm :     0.0105742 Eh/α   predicted    -0.3387117E-03 ( -12.01%)
   displ. norm   :     0.4207194 α      lambda       -0.8575886E-03
   maximum displ.:     0.2385495 α      in ANC's #1, #5, #4, ...

........................................................................
.............................. CYCLE   42 ..............................
........................................................................

 iter      E             dE          RMSdq      gap      omega  full diag
   1    -55.4762312 -0.554762E+02  0.134E-01    2.04       0.0  T
   2    -55.4762865 -0.553036E-04  0.784E-02    2.04       1.0  T
   3    -55.4762780  0.849072E-05  0.329E-02    2.04       1.0  T
   4    -55.4762900 -0.120110E-04  0.974E-03    2.04       1.7  T
   5    -55.4762933 -0.327082E-05  0.226E-03    2.04       7.5  T
   6    -55.4762933 -0.196397E-07  0.117E-03    2.04      14.5  T
   7    -55.4762933 -0.125774E-07  0.447E-04    2.04      37.8  T
   8    -55.4762933 -0.333568E-08  0.174E-04    2.04      97.2  T
     SCC iter.                  ...        0 min,  0.010 sec
     gradient                   ...        0 min,  0.004 sec
 * total energy  :   -54.6588324 Eh     change        0.1381950E-03 Eh
   gradient norm :     0.0207488 Eh/α   predicted    -0.5046981E-03 (-465.21%)
   displ. norm   :     0.4167280 α      lambda       -0.1177832E-02
   maximum displ.:     0.3330860 α      in ANC's #1, #3, #2, ...
 * RMSD in coord.:     1.4504442 α      energy gain  -0.4207031E-02 Eh

generating ANC from exact Hessian ...
Using Lindh-Hessian (1995)
 Shifting diagonal of input Hessian by    9.6914826026480820E-003
 Lowest  eigenvalues of input Hessian
    0.000000    0.000000    0.000000    0.000000    0.000000    0.000000
    0.010000    0.010254    0.010433    0.011406    0.012111    0.013019
    0.014439    0.016411    0.019279    0.020355    0.021114    0.021816
 Highest eigenvalues
    2.052767    2.056093    2.179002    2.199840    2.257755    2.364299


........................................................................
.............................. CYCLE   43 ..............................
........................................................................

 iter      E             dE          RMSdq      gap      omega  full diag
   1    -55.4654364 -0.554654E+02  0.941E-02    2.04       0.0  T
   2    -55.4654609 -0.244886E-04  0.539E-02    2.04       1.0  T
   3    -55.4654590  0.189371E-05  0.221E-02    2.05       1.0  T
   4    -55.4654622 -0.314353E-05  0.619E-03    2.05       2.7  T
   5    -55.4654633 -0.115249E-05  0.163E-03    2.05      10.3  T
   6    -55.4654633 -0.437694E-08  0.864E-04    2.05      19.6  T
   7    -55.4654634 -0.866361E-08  0.249E-04    2.05      68.0  T
     SCC iter.                  ...        0 min,  0.009 sec
     gradient                   ...        0 min,  0.004 sec
 * total energy  :   -54.6595277 Eh     change       -0.6953282E-03 Eh
   gradient norm :     0.0082340 Eh/α   predicted     0.0000000E+00 (-100.00%)
   displ. norm   :     0.0835780 α      lambda       -0.2208590E-03
   maximum displ.:     0.0417085 α      in ANC's #1, #6, #3, ...

........................................................................
.............................. CYCLE   44 ..............................
........................................................................

 iter      E             dE          RMSdq      gap      omega  full diag
   1    -55.4678652 -0.554679E+02  0.365E-02    2.05       0.0  T
   2    -55.4678671 -0.193408E-05  0.216E-02    2.06       1.0  T
   3    -55.4678663  0.823018E-06  0.714E-03    2.06       2.4  T
   4    -55.4678673 -0.101269E-05  0.210E-03    2.06       8.1  T
   5    -55.4678675 -0.130895E-06  0.546E-04    2.06      31.0  T
   6    -55.4678675 -0.462983E-09  0.290E-04    2.06      58.3  T
     SCC iter.                  ...        0 min,  0.007 sec
     gradient                   ...        0 min,  0.004 sec
 * total energy  :   -54.6596929 Eh     change       -0.1652176E-03 Eh
   gradient norm :     0.0035723 Eh/α   predicted    -0.1112013E-03 ( -32.69%)
   displ. norm   :     0.1735228 α      lambda       -0.2191651E-03
   maximum displ.:     0.0896935 α      in ANC's #1, #6, #3, ...

........................................................................
.............................. CYCLE   45 ..............................
........................................................................

 iter      E             dE          RMSdq      gap      omega  full diag
   1    -55.4698879 -0.554699E+02  0.561E-02    2.06       0.0  T
   2    -55.4698912 -0.329423E-05  0.329E-02    2.07       1.0  T
   3    -55.4698897  0.154717E-05  0.911E-03    2.07       1.9  T
   4    -55.4698916 -0.192208E-05  0.267E-03    2.07       6.3  T
   5    -55.4698918 -0.199086E-06  0.812E-04    2.07      20.8  T
   6    -55.4698918 -0.164316E-08  0.423E-04    2.07      39.9  T
     SCC iter.                  ...        0 min,  0.007 sec
     gradient                   ...        0 min,  0.004 sec
 * total energy  :   -54.6598487 Eh     change       -0.1557673E-03 Eh
   gradient norm :     0.0032266 Eh/α   predicted    -0.1128864E-03 ( -27.53%)
   displ. norm   :     0.2364295 α      lambda       -0.1810290E-03
   maximum displ.:     0.1238495 α      in ANC's #1, #3, #6, ...

........................................................................
.............................. CYCLE   46 ..............................
........................................................................

 iter      E             dE          RMSdq      gap      omega  full diag
   1    -55.4701302 -0.554701E+02  0.643E-02    2.07       0.0  T
   2    -55.4701322 -0.202096E-05  0.375E-02    2.07       1.0  T
   3    -55.4701304  0.180336E-05  0.849E-03    2.08       2.0  T
   4    -55.4701327 -0.229657E-05  0.194E-03    2.08       8.7  T
   5    -55.4701328 -0.747393E-07  0.879E-04    2.08      19.2  T
   6    -55.4701328 -0.359155E-08  0.432E-04    2.08      39.2  T
     SCC iter.                  ...        0 min,  0.007 sec
     gradient                   ...        0 min,  0.004 sec
 * total energy  :   -54.6600005 Eh     change       -0.1518354E-03 Eh
   gradient norm :     0.0056602 Eh/α   predicted    -0.9566279E-04 ( -37.00%)
   displ. norm   :     0.4327606 α      lambda       -0.3131267E-03
   maximum displ.:     0.2233020 α      in ANC's #1, #3, #6, ...

........................................................................
.............................. CYCLE   47 ..............................
........................................................................

 iter      E             dE          RMSdq      gap      omega  full diag
   1    -55.4683816 -0.554684E+02  0.109E-01    2.07       0.0  T
   2    -55.4683864 -0.480076E-05  0.634E-02    2.08       1.0  T
   3    -55.4683813  0.504121E-05  0.144E-02    2.08       1.2  T
   4    -55.4683879 -0.661254E-05  0.285E-03    2.08       5.9  T
   5    -55.4683881 -0.104478E-06  0.137E-03    2.08      12.4  T
   6    -55.4683881 -0.566297E-08  0.607E-04    2.08      27.9  T
   7    -55.4683881 -0.711469E-08  0.217E-04    2.08      78.0  T
     SCC iter.                  ...        0 min,  0.008 sec
     gradient                   ...        0 min,  0.004 sec
 * total energy  :   -54.6602674 Eh     change       -0.2668729E-03 Eh
   gradient norm :     0.0076572 Eh/α   predicted    -0.1858862E-03 ( -30.35%)
   displ. norm   :     0.5426988 α      lambda       -0.3986480E-03
   maximum displ.:     0.2850935 α      in ANC's #1, #3, #6, ...

........................................................................
.............................. CYCLE   48 ..............................
........................................................................

 iter      E             dE          RMSdq      gap      omega  full diag
   1    -55.4648466 -0.554648E+02  0.128E-01    2.08       0.0  T
   2    -55.4648552 -0.863675E-05  0.747E-02    2.08       1.0  T
   3    -55.4648469  0.831912E-05  0.191E-02    2.09       1.0  T
   4    -55.4648577 -0.108099E-04  0.389E-03    2.09       4.4  T
   5    -55.4648580 -0.274391E-06  0.175E-03    2.09       9.6  T
   6    -55.4648580 -0.264784E-08  0.799E-04    2.09      21.2  T
   7    -55.4648580 -0.142542E-07  0.246E-04    2.09      68.7  T
     SCC iter.                  ...        0 min,  0.009 sec
     gradient                   ...        0 min,  0.004 sec
 * total energy  :   -54.6605849 Eh     change       -0.3174748E-03 Eh
   gradient norm :     0.0096175 Eh/α   predicted    -0.2580360E-03 ( -18.72%)
   displ. norm   :     0.4278037 α      lambda       -0.3995101E-03
   maximum displ.:     0.2393408 α      in ANC's #1, #3, #6, ...

........................................................................
.............................. CYCLE   49 ..............................
........................................................................

 iter      E             dE          RMSdq      gap      omega  full diag
   1    -55.4641406 -0.554641E+02  0.947E-02    2.09       0.0  T
   2    -55.4641460 -0.535406E-05  0.554E-02    2.09       1.0  T
   3    -55.4641404  0.556491E-05  0.147E-02    2.09       1.1  T
   4    -55.4641473 -0.691688E-05  0.344E-03    2.09       4.9  T
   5    -55.4641476 -0.302402E-06  0.148E-03    2.09      11.4  T
   6    -55.4641476 -0.634561E-08  0.726E-04    2.09      23.3  T
   7    -55.4641477 -0.111847E-07  0.175E-04    2.09      96.3  T
     SCC iter.                  ...        0 min,  0.009 sec
     gradient                   ...        0 min,  0.004 sec
 * total energy  :   -54.6609088 Eh     change       -0.3239686E-03 Eh
   gradient norm :     0.0091807 Eh/α   predicted    -0.2363209E-03 ( -27.05%)
   displ. norm   :     0.4058593 α      lambda       -0.5006316E-03
   maximum displ.:     0.2458117 α      in ANC's #1, #3, #6, ...

........................................................................
.............................. CYCLE   50 ..............................
........................................................................

 iter      E             dE          RMSdq      gap      omega  full diag
   1    -55.4673957 -0.554674E+02  0.896E-02    2.10       0.0  T
   2    -55.4674019 -0.623280E-05  0.523E-02    2.09       1.0  T
   3    -55.4673954  0.650999E-05  0.159E-02    2.09       1.1  T
   4    -55.4674032 -0.775353E-05  0.389E-03    2.09       4.3  T
   5    -55.4674037 -0.540473E-06  0.141E-03    2.09      12.0  T
   6    -55.4674037 -0.789542E-08  0.634E-04    2.09      26.7  T
   7    -55.4674037 -0.559513E-08  0.155E-04    2.09     109.2  T
     SCC iter.                  ...        0 min,  0.009 sec
     gradient                   ...        0 min,  0.004 sec
 * total energy  :   -54.6612795 Eh     change       -0.3706680E-03 Eh
   gradient norm :     0.0070138 Eh/α   predicted    -0.2915488E-03 ( -21.35%)
   displ. norm   :     0.5570070 α      lambda       -0.4293437E-03
   maximum displ.:     0.3361395 α      in ANC's #1, #3, #6, ...

........................................................................
.............................. CYCLE   51 ..............................
........................................................................

 iter      E             dE          RMSdq      gap      omega  full diag
   1    -55.4653999 -0.554654E+02  0.113E-01    2.09       0.0  T
   2    -55.4654067 -0.680006E-05  0.657E-02    2.09       1.0  T
   3    -55.4654005  0.617913E-05  0.155E-02    2.09       1.1  T
   4    -55.4654080 -0.752000E-05  0.412E-03    2.09       4.1  T
   5    -55.4654085 -0.502705E-06  0.171E-03    2.09       9.9  T
   6    -55.4654085 -0.829813E-08  0.766E-04    2.09      22.1  T
   7    -55.4654086 -0.126124E-07  0.176E-04    2.09      96.2  T
     SCC iter.                  ...        0 min,  0.072 sec
     gradient                   ...        0 min,  0.008 sec
 * total energy  :   -54.6616278 Eh     change       -0.3483029E-03 Eh
   gradient norm :     0.0083094 Eh/α   predicted    -0.2812758E-03 ( -19.24%)
   displ. norm   :     0.4987816 α      lambda       -0.5563600E-03
   maximum displ.:     0.3258081 α      in ANC's #1, #3, #5, ...

........................................................................
.............................. CYCLE   52 ..............................
........................................................................

 iter      E             dE          RMSdq      gap      omega  full diag
   1    -55.4702097 -0.554702E+02  0.101E-01    2.09       0.0  T
   2    -55.4702149 -0.519639E-05  0.586E-02    2.09       1.0  T
   3    -55.4702082  0.668420E-05  0.158E-02    2.09       1.1  T
   4    -55.4702162 -0.797342E-05  0.346E-03    2.09       4.9  T
   5    -55.4702165 -0.361854E-06  0.147E-03    2.09      11.5  T
   6    -55.4702166 -0.953184E-08  0.690E-04    2.09      24.5  T
   7    -55.4702166 -0.717764E-08  0.156E-04    2.09     108.0  T
     SCC iter.                  ...        0 min,  0.044 sec
     gradient                   ...        0 min,  0.010 sec
 * total energy  :   -54.6620353 Eh     change       -0.4074759E-03 Eh
   gradient norm :     0.0074122 Eh/α   predicted    -0.3473865E-03 ( -14.75%)
   displ. norm   :     0.6724310 α      lambda       -0.4915569E-03
   maximum displ.:     0.4341837 α      in ANC's #1, #3, #5, ...

........................................................................
.............................. CYCLE   53 ..............................
........................................................................

 iter      E             dE          RMSdq      gap      omega  full diag
   1    -55.4658783 -0.554659E+02  0.128E-01    2.09       0.0  T
   2    -55.4658868 -0.850342E-05  0.739E-02    2.09       1.0  T
   3    -55.4658831  0.365651E-05  0.142E-02    2.10       1.2  T
   4    -55.4658880 -0.484974E-05  0.440E-03    2.10       3.8  T
   5    -55.4658885 -0.521439E-06  0.183E-03    2.09       9.2  T
   6    -55.4658885 -0.499542E-08  0.820E-04    2.09      20.6  T
   7    -55.4658885 -0.180362E-07  0.195E-04    2.09      86.8  T
     SCC iter.                  ...        0 min,  0.009 sec
     gradient                   ...        0 min,  0.004 sec
 * total energy  :   -54.6624065 Eh     change       -0.3711594E-03 Eh
   gradient norm :     0.0074769 Eh/α   predicted    -0.3569162E-03 (  -3.84%)
   displ. norm   :     0.4704872 α      lambda       -0.4867307E-03
   maximum displ.:     0.3330525 α      in ANC's #1, #3, #5, ...

........................................................................
.............................. CYCLE   54 ..............................
........................................................................

 iter      E             dE          RMSdq      gap      omega  full diag
   1    -55.4691046 -0.554691E+02  0.901E-02    2.09       0.0  T
   2    -55.4691106 -0.597250E-05  0.522E-02    2.09       1.0  T
   3    -55.4691094  0.117560E-05  0.101E-02    2.09       1.7  T
   4    -55.4691111 -0.172243E-05  0.310E-03    2.09       5.5  T
   5    -55.4691114 -0.242892E-06  0.125E-03    2.09      13.5  T
   6    -55.4691114 -0.403198E-08  0.468E-04    2.09      36.1  T
   7    -55.4691114 -0.313324E-08  0.170E-04    2.09      99.7  T
     SCC iter.                  ...        0 min,  0.009 sec
     gradient                   ...        0 min,  0.009 sec
 * total energy  :   -54.6627469 Eh     change       -0.3404011E-03 Eh
   gradient norm :     0.0052865 Eh/α   predicted    -0.2972465E-03 ( -12.68%)
   displ. norm   :     0.5689615 α      lambda       -0.3140340E-03
   maximum displ.:     0.4066955 α      in ANC's #1, #3, #5, ...

........................................................................
.............................. CYCLE   55 ..............................
........................................................................

 iter      E             dE          RMSdq      gap      omega  full diag
   1    -55.4673667 -0.554674E+02  0.968E-02    2.08       0.0  T
   2    -55.4673709 -0.411877E-05  0.562E-02    2.09       1.0  T
   3    -55.4673660  0.484329E-05  0.136E-02    2.09       1.2  T
   4    -55.4673719 -0.592262E-05  0.315E-03    2.09       5.4  T
   5    -55.4673722 -0.244980E-06  0.142E-03    2.09      11.9  T
   6    -55.4673722 -0.727587E-08  0.682E-04    2.09      24.8  T
   7    -55.4673722 -0.109977E-07  0.148E-04    2.09     114.0  T
     SCC iter.                  ...        0 min,  0.009 sec
     gradient                   ...        0 min,  0.004 sec
 * total energy  :   -54.6629879 Eh     change       -0.2409991E-03 Eh
   gradient norm :     0.0062407 Eh/α   predicted    -0.2078466E-03 ( -13.76%)
   displ. norm   :     0.4576204 α      lambda       -0.3775735E-03
   maximum displ.:     0.3525465 α      in ANC's #1, #3, #5, ...

........................................................................
.............................. CYCLE   56 ..............................
........................................................................

 iter      E             dE          RMSdq      gap      omega  full diag
   1    -55.4723788 -0.554724E+02  0.917E-02    2.07       0.0  T
   2    -55.4723820 -0.321459E-05  0.536E-02    2.07       1.0  T
   3    -55.4723773  0.477521E-05  0.123E-02    2.07       1.4  T
   4    -55.4723829 -0.564964E-05  0.287E-03    2.07       5.9  T
   5    -55.4723831 -0.219265E-06  0.126E-03    2.07      13.5  T
   6    -55.4723831 -0.266125E-08  0.610E-04    2.07      27.7  T
   7    -55.4723831 -0.690400E-08  0.178E-04    2.07      95.1  T
     SCC iter.                  ...        0 min,  0.009 sec
     gradient                   ...        0 min,  0.004 sec
 * total energy  :   -54.6632442 Eh     change       -0.2563484E-03 Eh
   gradient norm :     0.0056505 Eh/α   predicted    -0.2283237E-03 ( -10.93%)
   displ. norm   :     0.5718894 α      lambda       -0.2819368E-03
   maximum displ.:     0.4414576 α      in ANC's #1, #3, #5, ...

........................................................................
.............................. CYCLE   57 ..............................
........................................................................

 iter      E             dE          RMSdq      gap      omega  full diag
   1    -55.4686241 -0.554686E+02  0.112E-01    2.05       0.0  T
   2    -55.4686306 -0.657444E-05  0.652E-02    2.06       1.0  T
   3    -55.4686209  0.974238E-05  0.194E-02    2.06       1.0  T
   4    -55.4686326 -0.117254E-04  0.359E-03    2.06       4.7  T
   5    -55.4686330 -0.377957E-06  0.150E-03    2.06      11.2  T
   6    -55.4686330 -0.147892E-07  0.805E-04    2.06      21.0  T
   7    -55.4686330 -0.116703E-07  0.183E-04    2.06      92.4  T
     SCC iter.                  ...        0 min,  0.008 sec
     gradient                   ...        0 min,  0.004 sec
 * total energy  :   -54.6634438 Eh     change       -0.1996445E-03 Eh
   gradient norm :     0.0053032 Eh/α   predicted    -0.1870749E-03 (  -6.30%)
   displ. norm   :     0.3878606 α      lambda       -0.2463469E-03
[...]
H30-C15=1.0708       H31-C16=1.0709       H32-C18=1.0722       H33-C19=1.0875       H34-C19=1.0903       H35-C19=1.0910       
 C  H  Rav=1.0827 sigma=0.0076  Rmin=1.0708  Rmax=1.0938    15
 C  C  Rav=1.4241 sigma=0.0609  Rmin=1.3601  Rmax=1.5593    10
 N  H  Rav=1.0146 sigma=0.0000  Rmin=1.0146  Rmax=1.0146     1
 N  C  Rav=1.3783 sigma=0.0378  Rmin=1.3289  Rmax=1.4376     8
 O  C  Rav=1.2068 sigma=0.0022  Rmin=1.2046  Rmax=1.2090     2

 selected bond angles (degree)
 --------------------
H20-C1-C2=107.44               H21-C1-C2=111.87               H21-C1-H20=109.80              H22-C1-C2=109.90               
H22-C1-H20=107.37              H22-C1-H21=110.32              O3-C2-C1=123.18                N4-C2-C1=117.94                
N4-C2-O3=118.83                C5-N4-C2=132.50                H23-N4-C2=111.89               H23-N4-C5=115.30               
C6-C5-N4=118.39                C10-C5-N4=122.60               C10-C5-C6=118.95               C7-C6-C5=120.89                
H24-C6-C5=119.07               H24-C6-C7=120.05               C8-C7-C6=120.18                H25-C7-C6=119.83               
H25-C7-C8=119.99               C9-C8-C7=119.90                H26-C8-C7=121.23               H26-C8-C9=118.87               
C10-C9-C8=119.87               C11-C9-C8=116.98               C11-C9-C10=123.13              C9-C10-C5=120.18               
H27-C10-C5=118.98              H27-C10-C9=120.78              

 selected dihedral angles (degree)
 ---------------------------------
O3-C2-C1-H20=331.02           O3-C2-C1-H21=210.45           O3-C2-C1-H22= 87.54           N4-C2-C1-H20=148.35           
N4-C2-C1-H21= 27.78           N4-C2-C1-H22=264.87           C5-N4-C2-C1=  6.60            C5-N4-C2-O3=184.05            
H23-N4-C2-C1=193.40           H23-N4-C2-O3= 10.85           C6-C5-N4-C2=212.28            C6-C5-N4-H23= 25.30           
C10-C5-N4-C2= 35.05           C10-C5-N4-H23=208.07          C7-C6-C5-N4=180.79            C7-C6-C5-C10=358.12           
H24-C6-C5-N4=  0.93           H24-C6-C5-C10=178.26          C8-C7-C6-C5=  0.28            C8-C7-C6-H24=180.13           
H25-C7-C6-C5=180.34           H25-C7-C6-H24=  0.20          C9-C8-C7-C6=  1.02            C9-C8-C7-H25=180.96           
H26-C8-C7-C6=180.42           H26-C8-C7-H25=  0.35          C10-C9-C8-C7=359.30           C10-C9-C8-H26=179.89          
C11-C9-C8-C7=178.10           C11-C9-C8-H26=358.69          C9-C10-C5-N4=179.40           C9-C10-C5-C6=  2.19           
H27-C10-C5-N4=  2.26          H27-C10-C5-C6=185.05          C5-C10-C9-C8=359.08           C5-C10-C9-C11=180.36          
H27-C10-C9-C8=176.16          H27-C10-C9-C11=357.44         
           -------------------------------------------------
          |                Final Singlepoint                |
           -------------------------------------------------

          ...................................................
          :                      SETUP                      :
          :.................................................:
          :  # basis functions                  92          :
          :  # atomic orbitals                  92          :
          :  # shells                           54          :
          :  # electrons                        98          :
          :  max. iterations                   250          :
          :  Hamiltonian                  GFN2-xTB          :
          :  restarted?                      false          :
          :  GBSA solvation                  false          :
          :  PC potential                    false          :
          :  electronic temp.          300.0000000     K    :
          :  accuracy                    1.0000000          :
          :  -> integral cutoff          0.2500000E+02      :
          :  -> integral neglect         0.1000000E-07      :
          :  -> SCF convergence          0.1000000E-05 Eh   :
          :  -> wf. convergence          0.1000000E-03 e    :
          :  Broyden damping             0.4000000          :
          :  net charge                          1          :
          :  unpaired electrons                  0          :
          ...................................................

 iter      E             dE          RMSdq      gap      omega  full diag
   1    -55.4739996 -0.554740E+02  0.769E-05    2.03       0.0  T
   2    -55.4739996 -0.407425E-10  0.505E-05    2.03     334.5  T
   3    -55.4739996 -0.236398E-10  0.329E-05    2.03     513.1  T

   *** convergence criteria satisfied after 3 iterations ***

         #    Occupation            Energy/Eh            Energy/eV
      -------------------------------------------------------------
         1        2.0000           -0.8891442             -24.1948
       ...           ...                  ...                  ...
        43        2.0000           -0.5618675             -15.2892
        44        2.0000           -0.5531599             -15.0522
        45        2.0000           -0.5523062             -15.0290
        46        2.0000           -0.5361706             -14.5899
        47        2.0000           -0.5346915             -14.5497
        48        2.0000           -0.4959842             -13.4964
        49        2.0000           -0.4909824             -13.3603 (HOMO)
        50                         -0.4163125             -11.3284 (LUMO)
        51                         -0.3985328             -10.8446
        52                         -0.3658946              -9.9565
        53                         -0.3489621              -9.4957
        54                         -0.3231774              -8.7941
       ...                                ...                  ...
        92                          0.5662587              15.4087
      -------------------------------------------------------------
                  HL-Gap            0.0746698 Eh            2.0319 eV
             Fermi-level           -0.4536475 Eh          -12.3444 eV

 SCC (total)                   0 d,  0 h,  0 min,  0.010 sec
 SCC setup                      ...        0 min,  0.000 sec (  0.743%)
 Dispersion                     ...        0 min,  0.000 sec (  1.674%)
 classical contributions        ...        0 min,  0.000 sec (  0.278%)
 integral evaluation            ...        0 min,  0.001 sec ( 13.082%)
 iterations                     ...        0 min,  0.004 sec ( 38.413%)
 molecular gradient             ...        0 min,  0.004 sec ( 44.677%)
 printout                       ...        0 min,  0.000 sec (  0.982%)

         :::::::::::::::::::::::::::::::::::::::::::::::::::::
         ::                     SUMMARY                     ::
         :::::::::::::::::::::::::::::::::::::::::::::::::::::
         :: total energy             -54.666342683041 Eh    ::
         :: gradient norm              0.000251256556 Eh/a0 ::
         :: HOMO-LUMO gap              2.031869995028 eV    ::
         ::.................................................::
         :: SCC energy               -55.474075111475 Eh    ::
         :: -> isotropic ES            0.135318630031 Eh    ::
         :: -> anisotropic ES         -0.009631057552 Eh    ::
         :: -> anisotropic XC          0.025960981318 Eh    ::
         :: -> dispersion             -0.032413250228 Eh    ::
         :: repulsion energy           0.807732428434 Eh    ::
         :: add. restraining           0.000000000000 Eh    ::
         :: total charge               1.000000000000 e     ::
         :::::::::::::::::::::::::::::::::::::::::::::::::::::

           -------------------------------------------------
          |                Property Printout                |
           -------------------------------------------------

    * Orbital Energies and Occupations

         #    Occupation            Energy/Eh            Energy/eV
      -------------------------------------------------------------
         1        2.0000           -0.8891442             -24.1948
       ...           ...                  ...                  ...
        37        2.0000           -0.6036227             -16.4254
        38        2.0000           -0.6007714             -16.3478
        39        2.0000           -0.5843295             -15.9004
        40        2.0000           -0.5814678             -15.8225
        41        2.0000           -0.5754292             -15.6582
        42        2.0000           -0.5707361             -15.5305
        43        2.0000           -0.5618675             -15.2892
        44        2.0000           -0.5531599             -15.0522
        45        2.0000           -0.5523062             -15.0290
        46        2.0000           -0.5361706             -14.5899
        47        2.0000           -0.5346915             -14.5497
        48        2.0000           -0.4959842             -13.4964
        49        2.0000           -0.4909824             -13.3603 (HOMO)
        50                         -0.4163125             -11.3284 (LUMO)
        51                         -0.3985328             -10.8446
        52                         -0.3658946              -9.9565
        53                         -0.3489621              -9.4957
        54                         -0.3231774              -8.7941
        55                         -0.2932487              -7.9797
        56                         -0.2077877              -5.6542
        57                         -0.1762446              -4.7959
        58                         -0.1261213              -3.4319
        59                         -0.0924709              -2.5163
        60                         -0.0847833              -2.3071
       ...                                ...                  ...
        92                          0.5662587              15.4087
      -------------------------------------------------------------
                  HL-Gap            0.0746698 Eh            2.0319 eV
             Fermi-level           -0.4536475 Eh          -12.3444 eV

     #   Z          covCN         q      C6AA      α(0)
     1   6 C        3.753    -0.142    23.297     6.883
     2   6 C        2.744     0.283    22.206     7.716
     3   8 O        0.860    -0.386    21.397     6.202
     4   7 N        2.695    -0.166    24.590     7.365
     5   6 C        2.898     0.085    26.097     8.376
     6   6 C        2.926    -0.032    28.807     8.802
     7   6 C        2.914    -0.017    28.436     8.744
     8   6 C        2.927    -0.018    28.456     8.748
     9   6 C        2.969    -0.016    28.411     8.743
    10   6 C        2.921    -0.054    29.339     8.882
    11   6 C        2.823     0.228    23.226     7.897
    12   8 O        0.857    -0.353    20.764     6.109
    13   6 C        3.743    -0.051    21.572     6.626
    14   7 N        2.872     0.072    19.981     6.639
    15   6 C        3.065    -0.008    28.149     8.700
    16   6 C        3.071    -0.008    28.153     8.700
    17   7 N        2.867     0.080    19.857     6.618
    18   6 C        3.093     0.058    26.600     8.453
    19   6 C        3.692    -0.086    22.339     6.763
    20   1 H        0.925     0.088     1.898     2.154
    21   1 H        0.925     0.053     2.277     2.360
    22   1 H        0.925     0.066     2.135     2.285
    23   1 H        0.860     0.205     1.083     1.630
    24   1 H        0.926     0.068     2.108     2.270
    25   1 H        0.926     0.072     2.068     2.249
    26   1 H        0.926     0.077     2.008     2.216
    27   1 H        0.926     0.052     2.301     2.372
    28   1 H        0.925     0.101     1.778     2.085
    29   1 H        0.924     0.102     1.768     2.079
    30   1 H        0.926     0.104     1.751     2.070
    31   1 H        0.926     0.109     1.701     2.040
    32   1 H        0.926     0.123     1.592     1.973
    33   1 H        0.925     0.101     1.775     2.083
    34   1 H        0.924     0.108     1.711     2.046
    35   1 H        0.924     0.105     1.742     2.064

 Mol. C6AA /au·bohr⁶  :      13445.636217
 Mol. C8AA /au·bohr⁸  :     319091.261449
 Mol. α(0) /au        :        180.942171


Wiberg/Mayer (AO) data.
largest (>0.10) Wiberg bond orders for each atom

 ---------------------------------------------------------------------------
     #   Z sym  total        # sym  WBO       # sym  WBO       # sym  WBO
 ---------------------------------------------------------------------------
     1   6 C    3.993 --     2 C    0.990    21 H    0.978    20 H    0.972
                            22 H    0.960
     2   6 C    3.943 --     3 O    1.756     4 N    1.145     1 C    0.990
     3   8 O    2.049 --     2 C    1.756     4 N    0.156
     4   7 N    3.478 --     2 C    1.145     5 C    1.112    23 H    0.920
                             3 O    0.156
     5   6 C    3.973 --    10 C    1.389     6 C    1.331     4 N    1.112
     6   6 C    3.988 --     7 C    1.458     5 C    1.331    24 H    0.965
     7   6 C    3.987 --     6 C    1.458     8 C    1.439    25 H    0.966
     8   6 C    3.976 --     7 C    1.439     9 C    1.349    26 H    0.964
     9   6 C    3.982 --    10 C    1.356     8 C    1.349    11 C    1.080
    10   6 C    3.990 --     5 C    1.389     9 C    1.356    27 H    0.961
    11   6 C    3.929 --    12 O    1.808     9 C    1.080    13 C    0.919
    12   8 O    2.109 --    11 C    1.808
    13   6 C    3.947 --    14 N    0.996    28 H    0.957    29 H    0.942
                            11 C    0.919
    14   7 N    3.708 --    18 C    1.341    15 C    1.213    13 C    0.996
    15   6 C    3.947 --    16 C    1.601    14 N    1.213    30 H    0.962
    16   6 C    3.948 --    15 C    1.601    17 N    1.220    31 H    0.961
    17   7 N    3.719 --    18 C    1.364    16 C    1.220    19 C    0.991
    18   6 C    3.945 --    17 N    1.364    14 N    1.341    32 H    0.952
    19   6 C    3.934 --    17 N    0.991    33 H    0.975    34 H    0.963
                            35 H    0.962
    20   1 H    0.992 --     1 C    0.972
    21   1 H    0.997 --     1 C    0.978
    22   1 H    0.995 --     1 C    0.960
    23   1 H    0.958 --     4 N    0.920
    24   1 H    0.995 --     6 C    0.965
    25   1 H    0.993 --     7 C    0.966
    26   1 H    0.994 --     8 C    0.964
    27   1 H    0.997 --    10 C    0.961
    28   1 H    0.989 --    13 C    0.957
    29   1 H    0.989 --    13 C    0.942
    30   1 H    0.989 --    15 C    0.962
    31   1 H    0.988 --    16 C    0.961
    32   1 H    0.985 --    18 C    0.952
    33   1 H    0.989 --    19 C    0.975
    34   1 H    0.988 --    19 C    0.963
    35   1 H    0.988 --    19 C    0.962
 ---------------------------------------------------------------------------

Topologies differ in total number of bonds
Writing topology from bond orders to xtbtopo.mol

molecular dipole:
                 x           y           z       tot (Debye)
 q only:        7.032       4.013      -3.032
   full:        7.040       3.985      -2.985      21.916
molecular quadrupole (traceless):
                xx          xy          yy          xz          yz          zz
 q only:       30.717      49.139      13.888     -26.435       0.206     -44.605
  q+dip:       30.193      47.370      15.298     -24.664       3.923     -45.491
   full:       32.045      46.477      13.609     -22.599       3.774     -45.654

           -------------------------------------------------
          |                Geometry Summary                 |
           -------------------------------------------------

      molecular mass/u    :      258.2962741
   center of mass at/Å    :        2.6459056      -0.5186030      -1.3018037
  moments of inertia/u·Å² :        0.6478205E+03   0.3047745E+04   0.3570862E+04
rotational constants/cm⁻¹ :        0.2602207E-01   0.5531181E-02   0.4720885E-02

 * 33 selected distances

     #   Z          #   Z                                           value/Å
     2   6 C        3   8 O                                       1.2045982
     2   6 C        4   7 N                                       1.3803621
     4   7 N        5   6 C                                       1.3855241
     5   6 C        6   6 C                                       1.4018358
     6   6 C        7   6 C                                       1.3810113
     7   6 C        8   6 C                                       1.3816982
     8   6 C        9   6 C                                       1.3996753
     5   6 C       10   6 C                                       1.3916617
     9   6 C       10   6 C                                       1.3984475
    11   6 C       12   8 O                                       1.2090452
    13   6 C       14   7 N                                       1.4328537
    14   7 N       15   6 C                                       1.3638291
    15   6 C       16   6 C                                       1.3601048
    16   6 C       17   7 N                                       1.3630754
    14   7 N       18   6 C                                       1.3338886
    17   7 N       18   6 C                                       1.3289098
    17   7 N       19   6 C                                       1.4376064 (max)
     1   6 C       20   1 H                                       1.0875439
     1   6 C       21   1 H                                       1.0863999
     1   6 C       22   1 H                                       1.0885000
     4   7 N       23   1 H                                       1.0145511 (min)
     6   6 C       24   1 H                                       1.0796487
     7   6 C       25   1 H                                       1.0783985
     8   6 C       26   1 H                                       1.0783203
    10   6 C       27   1 H                                       1.0758707
    13   6 C       28   1 H                                       1.0895869
    13   6 C       29   1 H                                       1.0938050
    15   6 C       30   1 H                                       1.0708109
    16   6 C       31   1 H                                       1.0709119
    18   6 C       32   1 H                                       1.0722242
    19   6 C       33   1 H                                       1.0875093
    19   6 C       34   1 H                                       1.0903259
    19   6 C       35   1 H                                       1.0909576

 * 5 distinct bonds (by element types)

   Z      Z             #   av. dist./Å        max./Å        min./Å
   1 H    6 C          15     1.0827209     1.0938050     1.0708109
   6 C    6 C           7     1.3877764     1.4018358     1.3601048
   1 H    7 N           1     1.0145511     1.0145511     1.0145511
   6 C    7 N           8     1.3782562     1.4376064     1.3289098
   6 C    8 O           2     1.2068217     1.2090452     1.2045982


optimized geometry written to: xtbopt.xyz


           -------------------------------------------------
          | TOTAL ENERGY              -54.666342683041 Eh   |
          | GRADIENT NORM               0.000251256556 Eh/α |
          | HOMO-LUMO GAP               2.031869995028 eV   |
           -------------------------------------------------

------------------------------------------------------------------------
 * finished run on 2024/12/20 at 06:49:36.227     
------------------------------------------------------------------------
 total:
 * wall-time:     0 d,  0 h,  0 min,  1.756 sec
 *  cpu-time:     0 d,  0 h,  0 min, 13.685 sec
 * ratio c/w:     7.792 speedup
 SCF:
 * wall-time:     0 d,  0 h,  0 min,  0.024 sec
 *  cpu-time:     0 d,  0 h,  0 min,  0.194 sec
 * ratio c/w:     7.955 speedup
 ANC optimizer:
 * wall-time:     0 d,  0 h,  0 min,  1.715 sec
 *  cpu-time:     0 d,  0 h,  0 min, 13.368 sec
 * ratio c/w:     7.796 speedup

