38
 energy: -55.385184274839 gnorm: 0.077627229727 xtb: 6.7.1 (edcfbbe)
C           -0.10832000000000        2.12116000000000       -1.61800000000000
C           -0.47997000000000        1.40956000000000       -2.91291000000000
C           -0.04981000000000       -0.05592000000000       -2.91704000000000
O           -0.68817000000000       -0.72379000000000       -1.82055000000000
C           -0.04437000000000       -1.88330000000000       -1.49213000000000
C           -0.01107000000000       -2.98095000000000       -2.34768000000000
C            0.65150000000000       -4.14181000000000       -1.94928000000000
C            1.26642000000000       -4.20177000000000       -0.69599000000000
C            1.19960000000000       -3.10553000000000        0.17425000000000
C            0.53668000000000       -1.94349000000000       -0.22713000000000
C            1.89416000000000       -3.19063000000000        1.48446000000000
O            2.87161000000000       -3.93054000000000        1.61011000000000
C            1.45908000000000       -2.28388000000000        2.62517000000000
N            2.40027000000000       -1.16056000000000        2.77071000000000
C            2.07779000000000        0.18254000000000        2.87014000000000
C            3.25838000000000        0.86564000000000        2.95538000000000
N            4.26909000000000       -0.07889000000000        2.91738000000000
C            3.73574000000000       -1.30791000000000        2.83440000000000
C            5.70211000000000        0.18308000000000        2.96687000000000
H           -0.62896000000000        1.68442000000000       -0.75956000000000
H           -0.38727000000000        3.17808000000000       -1.67409000000000
H            0.96873000000000        2.06277000000000       -1.43154000000000
H           -1.56676000000000        1.47142000000000       -3.04148000000000
H           -0.01451000000000        1.92642000000000       -3.75930000000000
H           -0.35799000000000       -0.52280000000000       -3.85957000000000
H            1.04370000000000       -0.11344000000000       -2.83062000000000
H           -0.50181000000000       -2.94401000000000       -3.31688000000000
H            0.68907000000000       -5.00138000000000       -2.61594000000000
H            1.79208000000000       -5.11067000000000       -0.40565000000000
H            0.48284000000000       -1.05670000000000        0.39394000000000
H            0.43967000000000       -1.91306000000000        2.49049000000000
H            1.47156000000000       -2.86319000000000        3.55504000000000
H            1.04424000000000        0.48442000000000        2.85972000000000
H            3.51220000000000        1.90879000000000        3.03708000000000
H            4.28853000000000       -2.24200000000000        2.81050000000000
H            6.10176000000000       -0.21530000000000        3.90292000000000
H            6.18258000000000       -0.31042000000000        2.11768000000000
H            5.89226000000000        1.25835000000000        2.91483000000000
38
 energy: -55.391329169003 gnorm: 0.034812070866 xtb: 6.7.1 (edcfbbe)
C           -0.10506219212045        2.12565321205438       -1.61835839748684
C           -0.49049079420272        1.41967325433092       -2.91202387245271
C           -0.05799988401148       -0.04263483811674       -2.92742677322532
O           -0.66855095974248       -0.71261215308311       -1.82115439653687
C           -0.04973228275888       -1.88240294185559       -1.47963406746923
C           -0.00362290522220       -2.98237345698050       -2.33280949505898
C            0.65451094362243       -4.13587604320168       -1.93190909112795
C            1.26610408249400       -4.19814276948471       -0.68968448234134
C            1.19571728747191       -3.10878602954752        0.18319611789746
C            0.53014732388669       -1.95044710580785       -0.21856646955109
C            1.91596565824507       -3.18069030090607        1.46779918239458
O            2.87412773038224       -3.91118638742754        1.62518565704014
C            1.46267705900212       -2.27959028537426        2.62230197273802
N            2.39739804642696       -1.17109477914785        2.77190949480530
C            2.08699216556383        0.16163371306619        2.85442832135560
C            3.26299600077845        0.84067134283612        2.94755528844035
N            4.26816059650846       -0.08906098176630        2.91860228591808
C            3.72488678359041       -1.30366768117820        2.82245908827645
C            5.69118621850283        0.17645301268823        2.97263694164383
H           -0.62427792115858        1.67717312298135       -0.77227436423030
H           -0.38371471869532        3.17666567772285       -1.67020471639478
H            0.96948078418023        2.06308042105605       -1.44195988258883
H           -1.57354348528616        1.46858757584304       -3.04088394225127
H           -0.02209270704249        1.92047073456302       -3.76179497413043
H           -0.36013227862910       -0.51766765510610       -3.86821701907904
H            1.03358165794415       -0.11161799333660       -2.83377531426095
H           -0.48368590057242       -2.94026867791569       -3.30061551498734
H            0.69161802586824       -4.98988203822702       -2.59364885438648
H            1.78854555232255       -5.09614042928414       -0.39076450985638
H            0.48216803200957       -1.06526586377687        0.39817675097969
H            0.45248104978418       -1.89507323081833        2.47425719807130
H            1.47778974985353       -2.87350606211366        3.54392818649979
H            1.06415305222270        0.48359302546612        2.84700401487358
H            3.49458539100456        1.88447172255745        3.03284696542978
H            4.26685068715419       -2.23268586895099        2.78482196418312
H            6.10664583908002       -0.21314152421420        3.90227076056122
H            6.18491891475858       -0.30807602341340        2.13010723834394
H            5.87185739678437        1.24847430586919        2.92194870796395
38
 energy: -55.393029163495 gnorm: 0.011667940500 xtb: 6.7.1 (edcfbbe)
C           -0.10346978743671        2.12791229974393       -1.62432843297818
C           -0.50310161273307        1.42620116326493       -2.91668543358880
C           -0.06519834387614       -0.03320135357579       -2.93562849437172
O           -0.64420403303781       -0.69836175690171       -1.81127603578911
C           -0.04536010210641       -1.87516978994386       -1.46606859335948
C            0.00660005288695       -2.97736639950836       -2.31972963527317
C            0.65444681869005       -4.13178058373183       -1.91690807317688
C            1.26902268728838       -4.19743029660332       -0.68302894464651
C            1.19681047639353       -3.11232406413923        0.19402291667936
C            0.52910314303342       -1.95437355465603       -0.20479133169393
C            1.92191105500607       -3.19467872771483        1.46303930210632
O            2.88931996416776       -3.89337042584267        1.63882978746916
C            1.46229549906486       -2.27401546619434        2.62005572466219
N            2.39491690593500       -1.18109010515695        2.76862472886322
C            2.09376945389242        0.14431672228117        2.84149375632111
C            3.26996196696718        0.82044636509765        2.93785689365806
N            4.27008009103112       -0.10070951509597        2.91708916980914
C            3.71760812711025       -1.30602796367780        2.81777794844358
C            5.68307704884052        0.16927192903456        2.97688447448499
H           -0.61331526482458        1.66932472991192       -0.78170672273761
H           -0.38259081631766        3.17588498635548       -1.66855452406724
H            0.97134144620407        2.06249221881222       -1.46519735698699
H           -1.58511282711634        1.46848038909245       -3.03355073580340
H           -0.04157099808913        1.92005295875512       -3.77216335630051
H           -0.37634156113244       -0.51242181923974       -3.87167493181848
H            1.02838768756282       -0.10248535038192       -2.85580182913189
H           -0.46271560142013       -2.92594040617667       -3.28912200428464
H            0.69230099201817       -4.98090892840760       -2.57912904353429
H            1.79278915553501       -5.08700906208931       -0.37520099502479
H            0.48026649108889       -1.07298996226442        0.41452088051433
H            0.45861261787169       -1.88097189183258        2.46512610946234
H            1.47790668037350       -2.88041924618712        3.53267698650057
H            1.08104837642652        0.49297499018499        2.83315304075548
H            3.47514256993871        1.86849406902088        3.02090325993575
H            4.24934510551102       -2.23640857100849        2.77015272294936
H            6.10595299437252       -0.21235820629491        3.90596260069006
H            6.19103778502200       -0.31087252340283        2.14123229863226
H            5.85256575585791        1.24154314847291        2.92687387263040
38
 energy: -55.393437570873 gnorm: 0.006846453233 xtb: 6.7.1 (edcfbbe)
C           -0.10134826282696        2.12996558104335       -1.63280624901960
C           -0.51537871586291        1.42758272641116       -2.92115123650852
C           -0.07247730402748       -0.03064886200685       -2.94207145751424
O           -0.62617670351360       -0.68886507920793       -1.80035021493215
C           -0.03371748926120       -1.86756331865511       -1.46021485995688
C            0.01771427450278       -2.96963268422420       -2.31581785855180
C            0.65668589054603       -4.12927540720807       -1.91286637443953
C            1.26681585576549       -4.20092995697649       -0.67692626079496
C            1.19640630315396       -3.11546136225936        0.20170252517200
C            0.53223592921328       -1.95507987243270       -0.19540655235158
C            1.93004237313318       -3.19427781519627        1.46201343809020
O            2.89819831985116       -3.88956437667885        1.64721304034002
C            1.46007069027109       -2.27287513015173        2.62411588650498
N            2.39434812843786       -1.18666143823484        2.77067672527257
C            2.09571047765537        0.13868478178700        2.83547085201784
C            3.27415867641944        0.81351555121265        2.93134788785590
N            4.27267056118374       -0.10823987841055        2.91664532947805
C            3.71722414245150       -1.31289257067996        2.82179992225563
C            5.68259049711834        0.16444792080241        2.98092333732076
H           -0.59904837155702        1.66675345865873       -0.78545011589270
H           -0.38379530287317        3.17741456119313       -1.67033489934349
H            0.97582369006166        2.06608662332162       -1.48844666769941
H           -1.59908276360541        1.46745733330933       -3.02364137713171
H           -0.06614402473980        1.92259543199107       -3.78258982284525
H           -0.40127371809097       -0.51445828100490       -3.86999396051919
H            1.02378665647603       -0.09435693953307       -2.88539069216735
H           -0.44702454831027       -2.91197514453690       -3.28713332276622
H            0.69066492462645       -4.97787800682255       -2.57657236597106
H            1.79380086768672       -5.08810682081902       -0.36637410262968
H            0.48257538571463       -1.07583002813860        0.42743550840531
H            0.45864548972317       -1.87795040223382        2.46397965096593
H            1.46998591297764       -2.88630868046210        3.53163204414864
H            1.08804790232475        0.50233967853174        2.82227196276236
H            3.46607434363280        1.86453305792810        3.00888565934899
H            4.24432529366947       -2.24686874595625        2.77147364488747
H            6.10432901659090       -0.21281379877972        3.91291020493433
H            6.19786099655661       -0.31598428140956        2.14937765633704
H            5.84731460492460        1.23783217582896        2.92939311493741
38
 energy: -55.393872856304 gnorm: 0.008973941414 xtb: 6.7.1 (edcfbbe)
C           -0.09601174012745        2.13491128786795       -1.65102228566415
C           -0.53976591070510        1.42876284777188       -2.92884485495438
C           -0.08976519924331       -0.02810338217997       -2.95449369390699
O           -0.59359035783512       -0.67129093633175       -1.77883538538840
C           -0.01097542408446       -1.85389587123882       -1.45079828672839
C            0.03929118237117       -2.95325875742808       -2.31159358629145
C            0.66330611056460       -4.12263358784456       -1.91019127261484
C            1.26799573577636       -4.20498759746688       -0.67117342971148
C            1.19880781146964       -3.12134223072634        0.21250813357805
C            0.54195891991473       -1.95543286213692       -0.18019720184353
C            1.93127494047773       -3.20277069876567        1.46874630946033
O            2.90820791908224       -3.88569444130067        1.65899370725164
C            1.45656377295070       -2.27464277888162        2.63436287894374
N            2.39412625637246       -1.19444316510724        2.77641406274623
C            2.09858498046367        0.13270462454313        2.82630125429949
C            3.28077084099284        0.80584671087105        2.91772218358141
N            4.27697625888386       -0.11924916300959        2.91644120006390
C            3.71814747420005       -1.32483948900016        2.83483466897659
C            5.68486274103526        0.15635282368069        2.98911657983828
H           -0.56832673874711        1.66717086458994       -0.79047741170327
H           -0.38596779849395        3.18127210966676       -1.67887231521026
H            0.98593376962776        2.07681026331182       -1.53505915736607
H           -1.62713955500239        1.46484523472830       -3.00264889406743
H           -0.11620680909355        1.92630168011461       -3.80283669803866
H           -0.45686360415053       -0.52278471905337       -3.86354982751494
H            1.01036986280221       -0.08374151312843       -2.94493013277268
H           -0.41547387626559       -2.88482718908136       -3.28777249271651
H            0.68939001329866       -4.97030718278932       -2.57718465480787
H            1.79004719396903       -5.09478383531183       -0.35642083185999
H            0.49034098026910       -1.08052603986513        0.44961896809456
H            0.45711479701525       -1.87900686234482        2.46892218932945
H            1.45861273290065       -2.89292841227314        3.53746824081383
H            1.09798764577039        0.51561809575056        2.80444321740464
H            3.45680518490131        1.86048935130925        2.98356508798474
H            4.23855346571115       -2.26444658203842        2.78826720296228
H            6.10096099860476       -0.21351589894088        3.92752075288883
H            6.20992387479467       -0.32767829487729        2.16505039183659
H            5.84581154952804        1.23075559691603        2.93233538310697
38
 energy: -55.394246391119 gnorm: 0.012757165494 xtb: 6.7.1 (edcfbbe)
C           -0.09089270234860        2.14243648497333       -1.67304166945885
C           -0.56632512737827        1.42950696080285       -2.93650595843572
C           -0.11107391754373       -0.02614061263592       -2.96729540372652
O           -0.56094696504877       -0.65342491739543       -1.75862805295489
C            0.01229533233309       -1.84062530696386       -1.44329353893285
C            0.06340507285853       -2.93538039272279       -2.31014166084388
C            0.67151622383187       -4.11413611465735       -1.90913937268667
C            1.26601365831816       -4.20884373357285       -0.66510939822178
C            1.19949102148315       -3.12738323817353        0.22289926679620
C            0.55215250283810       -1.95540528131765       -0.16689812727083
C            1.93148888186795       -3.20926689729639        1.47835719387030
O            2.91221711779942       -3.88778093435795        1.66775541079754
C            1.45559905873641       -2.27980558535000        2.64699819737071
N            2.39533840425996       -1.20120390993741        2.78510082808381
C            2.10197550133861        0.12799203071467        2.81736288906315
C            3.28668820521173        0.80004844476158        2.90379029488304
N            4.28096912363475       -0.12826873246366        2.91835419731700
C            3.72022983048227       -1.33525275094547        2.85241356588700
C            5.68902907180632        0.14826667173143        2.99921563836092
H           -0.53541630943318        1.67398192672765       -0.79674145539131
H           -0.38872606495451        3.18717717231404       -1.69477520492763
H            0.99512821081248        2.09182461975982       -1.58681315388403
H           -1.65666751981969        1.46222324595809       -2.98032514256240
H           -0.17003238584564        1.92793465082723       -3.82389109671671
H           -0.51900699716902       -0.53323912999700       -3.85352688528824
H            0.99019888005460       -0.07771005157294       -3.00650472667755
H           -0.38083379293393       -2.85837516635557       -3.29118656588281
H            0.69288427564113       -4.95933181440634       -2.58058746010046
H            1.78065390893673       -5.10366692790302       -0.35004607429989
H            0.50042623838095       -1.08408870598825        0.46818454222171
H            0.45662927114064       -1.88424418802807        2.47956773016312
H            1.45349783773600       -2.89892584348942        3.54871943868694
H            1.10613856354868        0.52174594434711        2.78589217905569
H            3.45495327763093        1.85658545441317        2.95615950779528
H            4.23583800925060       -2.27879478428934        2.81692396501450
H            6.09712086196488       -0.21460828466329        3.94435119716167
H            6.22086574912609       -0.34179516098318        2.18274120055584
H            5.84981769145084        1.22268485813525        2.93539370517898
38
 energy: -55.394813674960 gnorm: 0.014907609279 xtb: 6.7.1 (edcfbbe)
C           -0.08562605236915        2.15478933526039       -1.70483851774574
C           -0.60134045706269        1.42991679032103       -2.94603480242561
C           -0.14171900411347       -0.02434082449966       -2.98224687575207
O           -0.52078373253526       -0.63118122708436       -1.73655679051724
C            0.03973252539408       -1.82494885333582       -1.43563974438498
C            0.09548359555631       -2.91243909421730       -2.31054043343338
C            0.68458278997493       -4.10118121761355       -1.90868331651267
C            1.26310498271104       -4.21143982275567       -0.65754454458562
C            1.19893407459970       -3.13368989076326        0.23543423465787
C            0.56381520823363       -1.95464572861206       -0.15234575149246
C            1.92830231391514       -3.21762129825583        1.49394228985874
O            2.91170553562177       -3.89488014331531        1.67684064363127
C            1.45661700401160       -2.28861745696857        2.66420135300310
N            2.39803049790443       -1.20848076637709        2.79766745831275
C            2.10718551448228        0.12288569277866        2.80613921386202
C            3.29386780471656        0.79368172761757        2.88729191365518
N            4.28578524628159       -0.13804009731674        2.92326680113382
C            3.72341051251212       -1.34631175995770        2.87668996078072
C            5.69561338539216        0.13726043168150        3.01355471309849
H           -0.49469227738932        1.68968319877912       -0.80821118726920
H           -0.39230805655775        3.19723067054138       -1.72285134441256
H            1.00374811635288        2.11344866122015       -1.65588334563097
H           -1.69370577795094        1.45929793216920       -2.95290215601154
H           -0.23897951851287        1.92638406101638       -3.84997990613980
H           -0.59958532792663       -0.54743888049129       -3.83594051968574
H            0.95668461706266       -0.07484892877351       -3.08156183285626
H           -0.33219824470272       -2.82672341127329       -3.29879136550331
H            0.70371742467458       -4.94209344534610       -2.58618429973599
H            1.76364586305727       -5.11546486262398       -0.34391289354725
H            0.51224652474229       -1.08723215956593        0.48779078752638
H            0.45681162985305       -1.89375639448683        2.49886559180967
H            1.45510435989161       -2.90526731930747        3.56697309189481
H            1.11467194444585        0.52188727372174        2.76228770934020
H            3.46107215572221        1.85078812623790        2.92200418517065
H            4.23501521385806       -2.29300074312896        2.86065024596154
H            6.09260919917985       -0.21789479968319        3.96644864748459
H            6.23273627859884       -0.36178934081873        2.20608315985965
H            5.85934413037354        1.21078456522643        2.94024762660149
38
 energy: -55.395649498544 gnorm: 0.015035293934 xtb: 6.7.1 (edcfbbe)
C           -0.08069781465413        2.17422983150330       -1.74872027471172
C           -0.64568829368203        1.42965411656295       -2.95673529315149
C           -0.18304034137855       -0.02318059659811       -2.99584936680511
O           -0.47501972492843       -0.60557501749156       -1.71490484007944
C            0.06973549858519       -1.80729169438481       -1.42785395109037
C            0.13660611716380       -2.88490581924243       -2.31249393058822
C            0.70544122691380       -4.08262262505679       -1.90800310094199
C            1.26110399052374       -4.21050776101576       -0.64783400810501
C            1.19723774363186       -3.13818151944893        0.25038441783401
C            0.57557746586404       -1.95228563263144       -0.13691884105533
C            1.92139876105004       -3.22658255830378        1.51601266238931
O            2.90419668084090       -3.90825827962268        1.68803233750704
C            1.45928937560436       -2.30101381936958        2.68570594136192
N            2.40166499338058       -1.21639270140011        2.81364937941948
C            2.11442684580914        0.11658820084777        2.79201523172372
C            3.30221726461346        0.78537545242704        2.86860499347423
N            4.29090136188666       -0.14941599466565        2.93199392812934
C            3.72650418579446       -1.35775218786700        2.90681716465655
C            5.70383514406313        0.12138421132974        3.03156349295311
H           -0.44690270015331        1.71977146129257       -0.82750452829655
H           -0.39542484743986        3.21394230971580       -1.76817711716365
H            1.01011163081996        2.14200571797286       -1.74528036313436
H           -1.73795156864497        1.45622443814102       -2.91969668708003
H           -0.32365621148033        1.91791776311937       -3.88085594050615
H           -0.69555212380461       -0.56489046977153       -3.80602681310056
H            0.90581728273861       -0.07623852878429       -3.16393158242033
H           -0.26763079211511       -2.79161929143396       -3.31006325668557
H            0.72817345161499       -4.91687816694215       -2.59334426324454
H            1.74261029979093       -5.12652204714904       -0.33821296199439
H            0.52272361250790       -1.08916043113736        0.50796755574907
H            0.45723202186484       -1.90716603755218        2.52759200934500
H            1.46522078519943       -2.91182874766446        3.59245601552600
H            1.12256636790315        0.51297193370689        2.73238154898018
H            3.47845261840089        1.84124192702412        2.88097544347945
H            4.23544969714807       -2.30589674963896        2.91904704740508
H            6.08777120484305       -0.22499955508079        3.99257798202093
H            6.24365670770609       -0.39024897109699        2.23436613680964
H            5.87428208201709        1.19281783970588        2.94599383139159
38
 energy: -55.396527282322 gnorm: 0.012094774216 xtb: 6.7.1 (edcfbbe)
C           -0.07835518038519        2.19592521088560       -1.79383573926426
C           -0.68646626100745        1.42841186710176       -2.96497967526874
C           -0.22336207430778       -0.02385788083480       -3.00118062451793
O           -0.43787873718563       -0.58353217898091       -1.70126405268461
C            0.09281675791405       -1.79191630123371       -1.42131446977969
C            0.17483615902949       -2.86094772251761       -2.31367247601960
C            0.73054591928270       -4.06270868078970       -1.90595773609774
C            1.26404561076518       -4.20345176915156       -0.63884586465909
C            1.19625110528371       -3.13685539470224        0.26350396851283
C            0.58368976182996       -1.94741378235486       -0.12506253252955
C            1.91308346017453       -3.23315458282522        1.53726109639432
O            2.88993979624217       -3.92502497917092        1.70180234488676
C            1.46188781952232       -2.31188354519041        2.70383004714332
N            2.40437347416616       -1.22305638203850        2.82688091541407
C            2.12222104663867        0.10953920203679        2.77849082448285
C            3.30989943089351        0.77522862737610        2.85447041592020
N            4.29466363704725       -0.16070768597243        2.94301806081375
C            3.72695045330419       -1.36623976425157        2.93202047026180
C            5.70992437206057        0.10301983916227        3.04748135712640
H           -0.40784571280992        1.75832771714303       -0.85274050533515
H           -0.39653829000643        3.23369422289624       -1.82124631713513
H            1.01007660148483        2.16686156166739       -1.83115437092782
H           -1.77534390680577        1.45403050172207       -2.88877103802156
H           -0.39972687947339        1.90116289072580       -3.90745263331260
H           -0.77755010827468       -0.58013528307283       -3.76823156438206
H            0.85059616140598       -0.08230339476689       -3.22735703643185
H           -0.20587621352246       -2.76356784331004       -3.31915490984347
H            0.76315406268887       -4.89021558773085       -2.59785711708985
H            1.72901664528273       -5.12845179340390       -0.33371237910776
H            0.52617942447303       -1.08808300327099        0.52334321078378
H            0.45748943030320       -1.91807365700144        2.55589553359554
H            1.48059008091632       -2.91649978231889        3.61566619808802
H            1.12758039023706        0.49617031132432        2.70408640030383
H            3.50393002627411        1.82807517452159        2.84765480639058
H            4.23527227325871       -2.31281088691170        2.97104185291562
H            6.08507568794564       -0.23545633629608        4.01367318966327
H            6.24888967354998       -0.42103286347432        2.25867391010565
H            5.88860410180224        1.17164395500805        2.95072643960699
38
 energy: -55.397168894103 gnorm: 0.019195401286 xtb: 6.7.1 (edcfbbe)
C           -0.07238902327327        2.22252161538295       -1.85385949182966
C           -0.74256292697366        1.42779449929259       -2.97754973735527
C           -0.27760035024022       -0.02458435484208       -3.01081176021946
O           -0.38108799462008       -0.54761568131978       -1.67301725476686
C            0.12959102573903       -1.76620985045776       -1.40647887986420
C            0.22462818362892       -2.82630213810102       -2.30890755795742
C            0.76297515076236       -4.03567553825786       -1.90027225095400
C            1.27219446830584       -4.19431502413758       -0.62648460735981
C            1.19998390319287       -3.13521571800421        0.28343755641822
C            0.59976922588641       -1.94000896175828       -0.10393290216172
C            1.90799040669655       -3.24504788826082        1.56120142550944
O            2.87582495736879       -3.94719578856617        1.72949713896852
C            1.46305895490784       -2.32284106862220        2.72558098529330
N            2.40646535624078       -1.23530350268597        2.84101725589463
C            2.13284181222888        0.09619434341931        2.75724103834107
C            3.32148784456119        0.75712435501294        2.83463516908319
N            4.30018865053722       -0.17999379922249        2.95724473285897
C            3.72552549395682       -1.38071075446718        2.96273717667789
C            5.71456850401243        0.07693783594029        3.06876466234614
H           -0.35025898166881        1.80393285989080       -0.88538694767851
H           -0.39671894423349        3.25789519273223       -1.88831842721993
H            1.01494862167209        2.19606896245811       -1.95101193608309
H           -1.82855991188349        1.45080156926575       -2.84109460455947
H           -0.50772224163885        1.87883540827152       -3.94828138054278
H           -0.90167018215916       -0.60067999514567       -3.71960268950863
H            0.78250139620928       -0.08632181058721       -3.33130747349424
H           -0.12875583580222       -2.71871397249338       -3.32284765963995
H            0.80417321616775       -4.85534699665257       -2.60002783359208
H            1.72080815575917       -5.12654000195982       -0.32341041300188
H            0.53421691390468       -1.08726653961185        0.55192356867553
H            0.45848694212986       -1.92689473712398        2.58479467358115
H            1.49240118273051       -2.92515913397249        3.63955737878148
H            1.13758779265830        0.48046814753478        2.66339014258130