      -----------------------------------------------------------      
     |                   =====================                   |     
     |                           x T B                           |     
     |                   =====================                   |     
     |                         S. Grimme                         |     
     |          Mulliken Center for Theoretical Chemistry        |     
     |                    University of Bonn                     |     
      -----------------------------------------------------------      

   * xtb version 6.7.1 (edcfbbe) compiled by 'conda@3ef47c1a292c' on 2024-11-25

   xtb is free software: you can redistribute it and/or modify it under
   the terms of the GNU Lesser General Public License as published by
   the Free Software Foundation, either version 3 of the License, or
   (at your option) any later version.
   
   xtb is distributed in the hope that it will be useful,
   but WITHOUT ANY WARRANTY; without even the implied warranty of
   MERCHANTABILITY or FITNESS FOR A PARTICULAR PURPOSE.  See the
   GNU Lesser General Public License for more details.
   
   Cite this work as:
   * C. Bannwarth, E. Caldeweyher, S. Ehlert, A. Hansen, P. Pracht,
     J. Seibert, S. Spicher, S. Grimme, WIREs Comput. Mol. Sci., 2020, 11,
     e01493. DOI: 10.1002/wcms.1493
   
   for GFN2-xTB:
   * C. Bannwarth, S. Ehlert and S. Grimme., J. Chem. Theory Comput., 2019,
     15, 1652-1671. DOI: 10.1021/acs.jctc.8b01176
   for GFN1-xTB:
   * S. Grimme, C. Bannwarth, P. Shushkov, J. Chem. Theory Comput., 2017,
     13, 1989-2009. DOI: 10.1021/acs.jctc.7b00118
   for GFN0-xTB:
   * P. Pracht, E. Caldeweyher, S. Ehlert, S. Grimme, ChemRxiv, 2019, preprint.
     DOI: 10.26434/chemrxiv.8326202.v1
   for GFN-FF:
   * S. Spicher and S. Grimme, Angew. Chem. Int. Ed., 2020, 59, 15665-15673.
     DOI: 10.1002/anie.202004239
   
   for ALPB and GBSA implicit solvation:
   * S. Ehlert, M. Stahn, S. Spicher, S. Grimme, J. Chem. Theory Comput.,
     2021, 17, 4250-4261. DOI: 10.1021/acs.jctc.1c00471
   
   for ddCOSMO and CPCM-X implicit solvation:
   * M. Stahn, S. Ehlert, S. Grimme, J. Phys. Chem. A,
     2023, XX, XXXX-XXXX. DOI: 10.1021/acs.jpca.3c04382
   
   for DFT-D4:
   * E. Caldeweyher, C. Bannwarth and S. Grimme, J. Chem. Phys., 2017,
     147, 034112. DOI: 10.1063/1.4993215
   * E. Caldeweyher, S. Ehlert, A. Hansen, H. Neugebauer, S. Spicher,
     C. Bannwarth and S. Grimme, J. Chem. Phys., 2019, 150, 154122.
     DOI: 10.1063/1.5090222
   * E. Caldeweyher, J.-M. Mewes, S. Ehlert and S. Grimme, Phys. Chem. Chem. Phys.
     2020, 22, 8499-8512. DOI: 10.1039/D0CP00502A
   
   for sTDA-xTB:
   * S. Grimme and C. Bannwarth, J. Chem. Phys., 2016, 145, 054103.
     DOI: 10.1063/1.4959605
   
   in the mass-spec context:
   * V. Asgeirsson, C. Bauer and S. Grimme, Chem. Sci., 2017, 8, 4879.
     DOI: 10.1039/c7sc00601b
   * J. Koopman and S. Grimme, ACS Omega 2019, 4, 12, 15120-15133.
     DOI: 10.1021/acsomega.9b02011
   
   for metadynamics refer to:
   * S. Grimme, J. Chem. Theory Comput., 2019, 155, 2847-2862
     DOI: 10.1021/acs.jctc.9b00143
   
   for SPH calculations refer to:
   * S. Spicher and S. Grimme, J. Chem. Theory Comput., 2021, 17, 1701-1714
     DOI: 10.1021/acs.jctc.0c01306
   
   for ONIOM refer to:
   * C. Plett, A. Katbashev, S. Ehlert, S. Grimme, M. Bursch,
     Phys. Chem. Chem. Phys., 2023, 25, 17860-17868. DOI: 10.1039/D3CP02178E
   
   for DIPRO refer to:
   * J. Kohn, N. Gildemeister, S. Grimme, D. Fazzi, A. Hansen,
     J. Chem. Phys., 2023, just accepted.
   
   for PTB refer to:
   * S. Grimme, M. Mueller, A. Hansen, J. Chem. Phys., 2023, 158, 124111.
     DOI: 10.1063/5.0137838
   
   with help from (in alphabetical order)
   P. Atkinson, C. Bannwarth, F. Bohle, G. Brandenburg, E. Caldeweyher
   M. Checinski, S. Dohm, S. Ehlert, S. Ehrlich, I. Gerasimov, C. Hölzer
   A. Katbashev, J. Kohn, J. Koopman, C. Lavigne, S. Lehtola, F. März, M. Müller,
   F. Musil, H. Neugebauer, J. Pisarek, C. Plett, P. Pracht, F. Pultar,
   J. Seibert, P. Shushkov, S. Spicher, M. Stahn, M. Steiner, T. Strunk,
   J. Stückrath, T. Rose, and J. Unsleber
   
 * started run on 2024/12/20 at 06:49:50.067     
   ID    Z sym.   atoms
    1    6 C      1, 3-9, 11, 13, 14, 16-24
    2    8 O      2, 10
    3    7 N      12, 15
    4    1 H      25-45

           -------------------------------------------------
          |                Calculation Setup                |
           -------------------------------------------------

          program call               : xtb C0596.xyz --opt --namespace C0596 --charge +1
          calculation namespace      : C0596
          coordinate file            : C0596.xyz
          omp threads                :                     8


           -------------------------------------------------
          |                 G F N 2 - x T B                 |
           -------------------------------------------------

        Reference                      10.1021/acs.jctc.8b01176
      * Hamiltonian:
        H0-scaling (s, p, d)           1.850000    2.230000    2.230000
        zeta-weighting                 0.500000
      * Dispersion:
        s8                             2.700000
        a1                             0.520000
        a2                             5.000000
        s9                             5.000000
      * Repulsion:
        kExp                           1.500000    1.000000
        rExp                           1.000000
      * Coulomb:
        alpha                          2.000000
        third order                    shell-resolved
        anisotropic                    true
        a3                             3.000000
        a5                             4.000000
        cn-shift                       1.200000
        cn-exp                         4.000000
        max-rad                        5.000000


          ...................................................
          :                      SETUP                      :
          :.................................................:
          :  # basis functions                 117          :
          :  # atomic orbitals                 117          :
          :  # shells                           69          :
          :  # electrons                       122          :
          :  max. iterations                   250          :
          :  Hamiltonian                  GFN2-xTB          :
          :  restarted?                      false          :
          :  GBSA solvation                  false          :
          :  PC potential                    false          :
          :  electronic temp.          300.0000000     K    :
          :  accuracy                    1.0000000          :
          :  -> integral cutoff          0.2500000E+02      :
          :  -> integral neglect         0.1000000E-07      :
          :  -> SCF convergence          0.1000000E-05 Eh   :
          :  -> wf. convergence          0.1000000E-03 e    :
          :  Broyden damping             0.4000000          :
          :  net charge                          1          :
          :  unpaired electrons                  0          :
          ...................................................

 iter      E             dE          RMSdq      gap      omega  full diag
   1    -67.9779978 -0.679780E+02  0.405E+00    3.10       0.0  T
   2    -68.1007828 -0.122785E+00  0.244E+00    2.55       1.0  T
   3    -68.1032346 -0.245186E-02  0.127E+00    2.71       1.0  T
   4    -68.1130557 -0.982110E-02  0.333E-01    2.36       1.0  T
   5    -68.1166579 -0.360214E-02  0.108E-01    2.53       1.0  T
   6    -68.1169463 -0.288382E-03  0.513E-02    2.50       1.0  T
   7    -68.1169911 -0.448109E-04  0.252E-02    2.51       1.0  T
   8    -68.1169960 -0.491305E-05  0.729E-03    2.51       2.0  T
   9    -68.1169974 -0.138652E-05  0.326E-03    2.51       4.6  T
  10    -68.1169976 -0.193869E-06  0.126E-03    2.51      11.8  T
  11    -68.1169976 -0.172589E-07  0.544E-04    2.51      27.4  T
  12    -68.1169976 -0.205821E-08  0.258E-04    2.51      57.8  T

   *** convergence criteria satisfied after 12 iterations ***

         #    Occupation            Energy/Eh            Energy/eV
      -------------------------------------------------------------
         1        2.0000           -0.8724582             -23.7408
       ...           ...                  ...                  ...
        55        2.0000           -0.5300732             -14.4240
        56        2.0000           -0.5296211             -14.4117
        57        2.0000           -0.5159926             -14.0409
        58        2.0000           -0.5154549             -14.0262
        59        2.0000           -0.5119957             -13.9321
        60        2.0000           -0.5116342             -13.9223
        61        2.0000           -0.4924454             -13.4001 (HOMO)
        62                         -0.4001542             -10.8887 (LUMO)
        63                         -0.3900759             -10.6145
        64                         -0.3589223              -9.7668
        65                         -0.3411574              -9.2834
        66                         -0.3404877              -9.2651
       ...                                ...                  ...
       117                          0.5308360              14.4448
      -------------------------------------------------------------
                  HL-Gap            0.0922912 Eh            2.5114 eV
             Fermi-level           -0.4462998 Eh          -12.1444 eV

 SCC (total)                   0 d,  0 h,  0 min,  0.036 sec
 SCC setup                      ...        0 min,  0.000 sec (  0.519%)
 Dispersion                     ...        0 min,  0.001 sec (  1.818%)
 classical contributions        ...        0 min,  0.000 sec (  0.156%)
 integral evaluation            ...        0 min,  0.003 sec (  7.083%)
 iterations                     ...        0 min,  0.025 sec ( 70.362%)
 molecular gradient             ...        0 min,  0.007 sec ( 19.676%)
 printout                       ...        0 min,  0.000 sec (  0.342%)

         :::::::::::::::::::::::::::::::::::::::::::::::::::::
         ::                     SUMMARY                     ::
         :::::::::::::::::::::::::::::::::::::::::::::::::::::
         :: total energy             -67.123207270159 Eh    ::
         :: gradient norm              0.094043361052 Eh/a0 ::
         :: HOMO-LUMO gap              2.511372025359 eV    ::
         ::.................................................::
         :: SCC energy               -68.116538450743 Eh    ::
         :: -> isotropic ES            0.105337575373 Eh    ::
         :: -> anisotropic ES         -0.005335752362 Eh    ::
         :: -> anisotropic XC          0.035625112820 Eh    ::
         :: -> dispersion             -0.045561432037 Eh    ::
         :: repulsion energy           0.993331180584 Eh    ::
         :: add. restraining           0.000000000000 Eh    ::
         :: total charge               1.000000000000 e     ::
         :::::::::::::::::::::::::::::::::::::::::::::::::::::

      ----------------------------------------------------------- 
     |                   =====================                   |
     |                        A N C O P T                        |
     |                   =====================                   |
     |               Approximate Normal Coordinate               |
     |                Rational Function Optimizer                |
      ----------------------------------------------------------- 
      ----------------------------------------------------------- 
     |                   =====================                   |
     |                        A N C O P T                        |
     |                   =====================                   |
     |               Approximate Normal Coordinate               |
     |                Rational Function Optimizer                |
      ----------------------------------------------------------- 

          ...................................................
          :                      SETUP                      :
          :.................................................:
          :   optimization level            normal          :
          :   max. optcycles                   200          :
          :   ANC micro-cycles                  20          :
          :   degrees of freedom               129          :
          :.................................................:
          :   RF solver                   davidson          :
          :   write xtbopt.log                true          :
          :   linear?                        false          :
          :   energy convergence         0.5000000E-05 Eh   :
          :   grad. convergence          0.1000000E-02 Eh/α :
          :   maxmium RF displ.          1.0000000          :
          :   Hlow (freq-cutoff)         0.1000000E-01      :
          :   Hmax (freq-cutoff)         5.0000000          :
          :   S6 in model hess.         20.0000000          :
          ...................................................

generating ANC from exact Hessian ...
Using Lindh-Hessian (1995)
 Shifting diagonal of input Hessian by    9.8730806259934769E-003
 Lowest  eigenvalues of input Hessian
    0.000000    0.000000    0.000000    0.000000    0.000000    0.000000
    0.010000    0.010206    0.010374    0.010705    0.011012    0.011229
    0.011536    0.012922    0.014158    0.014682    0.017079    0.018316
 Highest eigenvalues
    1.945498    1.964122    2.038019    2.044963    2.052406    2.095512


........................................................................
.............................. CYCLE    1 ..............................
........................................................................

 iter      E             dE          RMSdq      gap      omega  full diag
   1    -68.1169976 -0.681170E+02  0.105E-04    2.51       0.0  T
   2    -68.1169976 -0.770086E-10  0.678E-05    2.51     219.8  T
   3    -68.1169976 -0.374456E-10  0.466E-05    2.51     320.2  T
     SCC iter.                  ...        0 min,  0.006 sec
     gradient                   ...        0 min,  0.007 sec
 * total energy  :   -67.1232073 Eh     change       -0.1423388E-08 Eh
   gradient norm :     0.0940438 Eh/α   predicted     0.0000000E+00 (-100.00%)
   displ. norm   :     0.2586422 α      lambda       -0.1326591E-01
   maximum displ.:     0.0893235 α      in ANC's #32, #77, #31, ...

........................................................................
.............................. CYCLE    2 ..............................
........................................................................

 iter      E             dE          RMSdq      gap      omega  full diag
   1    -68.1725631 -0.681726E+02  0.191E-01    2.58       0.0  T
   2    -68.1727231 -0.159980E-03  0.108E-01    2.60       1.0  T
   3    -68.1726936  0.294095E-04  0.569E-02    2.59       1.0  T
   4    -68.1727536 -0.599396E-04  0.130E-02    2.60       1.1  T
   5    -68.1727617 -0.812080E-05  0.397E-03    2.60       3.8  T
   6    -68.1727621 -0.414666E-06  0.207E-03    2.60       7.2  T
   7    -68.1727622 -0.589581E-07  0.591E-04    2.60      25.2  T
   8    -68.1727622 -0.246874E-08  0.268E-04    2.60      55.7  T
     SCC iter.                  ...        0 min,  0.015 sec
     gradient                   ...        0 min,  0.007 sec
 * total energy  :   -67.1322929 Eh     change       -0.9085639E-02 Eh
   gradient norm :     0.0433390 Eh/α   predicted    -0.7080195E-02 ( -22.07%)
   displ. norm   :     0.2203178 α      lambda       -0.4059277E-02
   maximum displ.:     0.0875729 α      in ANC's #8, #32, #31, ...

........................................................................
.............................. CYCLE    3 ..............................
........................................................................

 iter      E             dE          RMSdq      gap      omega  full diag
   1    -68.1988213 -0.681988E+02  0.146E-01    2.62       0.0  T
   2    -68.1989566 -0.135298E-03  0.819E-02    2.65       1.0  T
   3    -68.1989538  0.280546E-05  0.499E-02    2.64       1.0  T
   4    -68.1990005 -0.467058E-04  0.118E-02    2.65       1.3  T
   5    -68.1990062 -0.565019E-05  0.353E-03    2.65       4.2  T
   6    -68.1990066 -0.425011E-06  0.146E-03    2.65      10.2  T
   7    -68.1990066 -0.193633E-07  0.491E-04    2.65      30.4  T
   8    -68.1990066 -0.215321E-08  0.209E-04    2.65      71.2  T
     SCC iter.                  ...        0 min,  0.015 sec
     gradient                   ...        0 min,  0.007 sec
 * total energy  :   -67.1345156 Eh     change       -0.2222715E-02 Eh
   gradient norm :     0.0131746 Eh/α   predicted    -0.2129038E-02 (  -4.21%)
   displ. norm   :     0.1200234 α      lambda       -0.4734317E-03
   maximum displ.:     0.0725348 α      in ANC's #8, #7, #14, ...

........................................................................
.............................. CYCLE    4 ..............................
........................................................................

 iter      E             dE          RMSdq      gap      omega  full diag
   1    -68.1978003 -0.681978E+02  0.508E-02    2.63       0.0  T
   2    -68.1978129 -0.125770E-04  0.297E-02    2.66       1.0  T
   3    -68.1978092  0.370010E-05  0.181E-02    2.65       1.0  T
   4    -68.1978191 -0.984693E-05  0.314E-03    2.65       4.8  T
   5    -68.1978194 -0.344035E-06  0.115E-03    2.65      13.0  T
   6    -68.1978194 -0.373744E-07  0.482E-04    2.65      30.9  T
   7    -68.1978194 -0.111658E-08  0.169E-04    2.65      88.3  T
     SCC iter.                  ...        0 min,  0.013 sec
     gradient                   ...        0 min,  0.007 sec
 * total energy  :   -67.1348142 Eh     change       -0.2985649E-03 Eh
   gradient norm :     0.0054569 Eh/α   predicted    -0.2401441E-03 ( -19.57%)
   displ. norm   :     0.1296168 α      lambda       -0.2123524E-03
   maximum displ.:     0.0845126 α      in ANC's #8, #7, #6, ...

........................................................................
.............................. CYCLE    5 ..............................
........................................................................

 iter      E             dE          RMSdq      gap      omega  full diag
   1    -68.1950659 -0.681951E+02  0.427E-02    2.64       0.0  T
   2    -68.1950695 -0.363308E-05  0.251E-02    2.65       1.0  T
   3    -68.1950638  0.565554E-05  0.124E-02    2.65       1.2  T
   4    -68.1950712 -0.736208E-05  0.180E-03    2.65       8.3  T
   5    -68.1950713 -0.140118E-06  0.651E-04    2.65      22.9  T
   6    -68.1950714 -0.944287E-08  0.303E-04    2.65      49.1  T
     SCC iter.                  ...        0 min,  0.011 sec
     gradient                   ...        0 min,  0.007 sec
 * total energy  :   -67.1349467 Eh     change       -0.1325208E-03 Eh
   gradient norm :     0.0032167 Eh/α   predicted    -0.1079689E-03 ( -18.53%)
   displ. norm   :     0.1007023 α      lambda       -0.6986947E-04
   maximum displ.:     0.0608381 α      in ANC's #8, #7, #6, ...

........................................................................
.............................. CYCLE    6 ..............................
........................................................................

 iter      E             dE          RMSdq      gap      omega  full diag
   1    -68.1940695 -0.681941E+02  0.299E-02    2.65       0.0  T
   2    -68.1940697 -0.199871E-06  0.176E-02    2.65       1.0  T
   3    -68.1940693  0.409091E-06  0.313E-03    2.65       4.8  T
   4    -68.1940698 -0.495024E-06  0.440E-04    2.65      33.9  T
   5    -68.1940698 -0.232480E-08  0.242E-04    2.65      61.5  T
     SCC iter.                  ...        0 min,  0.009 sec
     gradient                   ...        0 min,  0.007 sec
 * total energy  :   -67.1349995 Eh     change       -0.5280007E-04 Eh
   gradient norm :     0.0032021 Eh/α   predicted    -0.3529264E-04 ( -33.16%)
   displ. norm   :     0.1434472 α      lambda       -0.7328935E-04
   maximum displ.:     0.0771426 α      in ANC's #8, #7, #6, ...

........................................................................
.............................. CYCLE    7 ..............................
........................................................................

 iter      E             dE          RMSdq      gap      omega  full diag
   1    -68.1940229 -0.681940E+02  0.425E-02    2.65       0.0  T
   2    -68.1940236 -0.679251E-06  0.249E-02    2.65       1.0  T
   3    -68.1940221  0.147277E-05  0.601E-03    2.65       2.5  T
   4    -68.1940238 -0.173201E-05  0.724E-04    2.65      20.6  T
   5    -68.1940239 -0.153859E-07  0.366E-04    2.65      40.8  T
   6    -68.1940239 -0.140342E-08  0.198E-04    2.65      75.3  T
     SCC iter.                  ...        0 min,  0.012 sec
     gradient                   ...        0 min,  0.007 sec
 * total energy  :   -67.1350527 Eh     change       -0.5317852E-04 Eh
   gradient norm :     0.0025154 Eh/α   predicted    -0.3740058E-04 ( -29.67%)
   displ. norm   :     0.1291916 α      lambda       -0.4799303E-04
   maximum displ.:     0.0691432 α      in ANC's #7, #8, #6, ...

........................................................................
.............................. CYCLE    8 ..............................
........................................................................

 iter      E             dE          RMSdq      gap      omega  full diag
   1    -68.1947182 -0.681947E+02  0.383E-02    2.65       0.0  T
   2    -68.1947188 -0.620864E-06  0.225E-02    2.65       1.0  T
   3    -68.1947176  0.120235E-05  0.523E-03    2.65       2.8  T
   4    -68.1947190 -0.140096E-05  0.758E-04    2.65      19.7  T
   5    -68.1947190 -0.211038E-07  0.348E-04    2.65      42.9  T
   6    -68.1947190 -0.102625E-08  0.202E-04    2.65      73.9  T
     SCC iter.                  ...        0 min,  0.011 sec
     gradient                   ...        0 min,  0.007 sec
 * total energy  :   -67.1350884 Eh     change       -0.3575620E-04 Eh
   gradient norm :     0.0018594 Eh/α   predicted    -0.2439730E-04 ( -31.77%)
   displ. norm   :     0.1815933 α      lambda       -0.3569235E-04
   maximum displ.:     0.0952141 α      in ANC's #7, #2, #6, ...

........................................................................
.............................. CYCLE    9 ..............................
........................................................................

 iter      E             dE          RMSdq      gap      omega  full diag
   1    -68.1958343 -0.681958E+02  0.551E-02    2.65       0.0  T
   2    -68.1958351 -0.754467E-06  0.324E-02    2.65       1.0  T
   3    -68.1958342  0.877737E-06  0.461E-03    2.65       3.2  T
   4    -68.1958353 -0.107596E-05  0.970E-04    2.65      15.4  T
   5    -68.1958353 -0.270392E-07  0.479E-04    2.65      31.1  T
   6    -68.1958353  0.230514E-09  0.251E-04    2.65      59.4  T
     SCC iter.                  ...        0 min,  0.012 sec
     gradient                   ...        0 min,  0.007 sec
 * total energy  :   -67.1351210 Eh     change       -0.3259786E-04 Eh
   gradient norm :     0.0019447 Eh/α   predicted    -0.1811122E-04 ( -44.44%)
   displ. norm   :     0.0836291 α      lambda       -0.1541819E-04
   maximum displ.:     0.0467901 α      in ANC's #2, #6, #7, ...

........................................................................
.............................. CYCLE   10 ..............................
........................................................................

 iter      E             dE          RMSdq      gap      omega  full diag
   1    -68.1960899 -0.681961E+02  0.262E-02    2.65       0.0  T
   2    -68.1960900 -0.147053E-06  0.154E-02    2.65       1.0  T
   3    -68.1960898  0.271342E-06  0.236E-03    2.65       6.3  T
   4    -68.1960901 -0.324373E-06  0.452E-04    2.65      33.0  T
   5    -68.1960901 -0.624050E-08  0.248E-04    2.65      60.2  T
     SCC iter.                  ...        0 min,  0.009 sec
     gradient                   ...        0 min,  0.007 sec
 * total energy  :   -67.1351398 Eh     change       -0.1877335E-04 Eh
   gradient norm :     0.0012790 Eh/α   predicted    -0.7734799E-05 ( -58.80%)
   displ. norm   :     0.1474302 α      lambda       -0.2270672E-04
   maximum displ.:     0.0813121 α      in ANC's #2, #6, #3, ...

........................................................................
.............................. CYCLE   11 ..............................
........................................................................

 iter      E             dE          RMSdq      gap      omega  full diag
   1    -68.1956148 -0.681956E+02  0.450E-02    2.65       0.0  T
   2    -68.1956151 -0.337059E-06  0.264E-02    2.65       1.0  T
   3    -68.1956142  0.945858E-06  0.419E-03    2.65       3.6  T
   4    -68.1956153 -0.111277E-05  0.729E-04    2.65      20.5  T
   5    -68.1956153 -0.119934E-07  0.408E-04    2.65      36.5  T
   6    -68.1956153 -0.993907E-09  0.188E-04    2.65      79.4  T
     SCC iter.                  ...        0 min,  0.011 sec
     gradient                   ...        0 min,  0.007 sec
 * total energy  :   -67.1351640 Eh     change       -0.2414198E-04 Eh
   gradient norm :     0.0010882 Eh/α   predicted    -0.1146567E-04 ( -52.51%)
   displ. norm   :     0.1302719 α      lambda       -0.1329576E-04
   maximum displ.:     0.0731898 α      in ANC's #2, #6, #3, ...

........................................................................
.............................. CYCLE   12 ..............................
........................................................................

 iter      E             dE          RMSdq      gap      omega  full diag
   1    -68.1955303 -0.681955E+02  0.374E-02    2.65       0.0  T
   2    -68.1955305 -0.188513E-06  0.220E-02    2.65       1.0  T
   3    -68.1955301  0.378971E-06  0.280E-03    2.65       5.3  T
   4    -68.1955306 -0.462545E-06  0.584E-04    2.65      25.5  T
   5    -68.1955306 -0.651005E-08  0.318E-04    2.65      46.9  T
     SCC iter.                  ...        0 min,  0.010 sec
     gradient                   ...        0 min,  0.007 sec
 * total energy  :   -67.1351793 Eh     change       -0.1536229E-04 Eh
   gradient norm :     0.0014634 Eh/α   predicted    -0.6699150E-05 ( -56.39%)
   displ. norm   :     0.1555900 α      lambda       -0.1484336E-04
   maximum displ.:     0.0869764 α      in ANC's #2, #3, #4, ...

........................................................................
.............................. CYCLE   13 ..............................
........................................................................

 iter      E             dE          RMSdq      gap      omega  full diag
   1    -68.1953035 -0.681953E+02  0.439E-02    2.65       0.0  T
   2    -68.1953037 -0.185261E-06  0.259E-02    2.65       1.0  T
   3    -68.1953034  0.380027E-06  0.296E-03    2.65       5.0  T
   4    -68.1953038 -0.482801E-06  0.624E-04    2.65      23.9  T
   5    -68.1953038 -0.235370E-08  0.349E-04    2.65      42.7  T
     SCC iter.                  ...        0 min,  0.009 sec
     gradient                   ...        0 min,  0.007 sec
 * total energy  :   -67.1351972 Eh     change       -0.1790464E-04 Eh
   gradient norm :     0.0013867 Eh/α   predicted    -0.7504705E-05 ( -58.09%)
   displ. norm   :     0.2205002 α      lambda       -0.2070786E-04
   maximum displ.:     0.1223276 α      in ANC's #2, #3, #4, ...

........................................................................
.............................. CYCLE   14 ..............................
........................................................................

 iter      E             dE          RMSdq      gap      omega  full diag
   1    -68.1952500 -0.681953E+02  0.613E-02    2.65       0.0  T
   2    -68.1952504 -0.344911E-06  0.361E-02    2.65       1.0  T
   3    -68.1952498  0.535287E-06  0.365E-03    2.65       4.1  T
   4    -68.1952505 -0.712276E-06  0.869E-04    2.65      17.2  T
   5    -68.1952506 -0.514032E-08  0.457E-04    2.65      32.6  T
     SCC iter.                  ...        0 min,  0.009 sec
     gradient                   ...        0 min,  0.008 sec
 * total energy  :   -67.1352208 Eh     change       -0.2360315E-04 Eh
   gradient norm :     0.0014251 Eh/α   predicted    -0.1057832E-04 ( -55.18%)
   displ. norm   :     0.2600363 α      lambda       -0.2203879E-04
   maximum displ.:     0.1439224 α      in ANC's #2, #3, #4, ...

........................................................................
.............................. CYCLE   15 ..............................
........................................................................

 iter      E             dE          RMSdq      gap      omega  full diag
   1    -68.1949467 -0.681949E+02  0.717E-02    2.65       0.0  T
   2    -68.1949473 -0.572655E-06  0.422E-02    2.65       1.0  T
   3    -68.1949468  0.465111E-06  0.365E-03    2.65       4.1  T
   4    -68.1949475 -0.669415E-06  0.113E-03    2.65      13.2  T
   5    -68.1949475 -0.225085E-07  0.586E-04    2.65      25.4  T
   6    -68.1949475 -0.731745E-09  0.145E-04    2.65     103.1  T
     SCC iter.                  ...        0 min,  0.014 sec
     gradient                   ...        0 min,  0.007 sec
 * total energy  :   -67.1352450 Eh     change       -0.2420982E-04 Eh
   gradient norm :     0.0013768 Eh/α   predicted    -0.1135129E-04 ( -53.11%)
   displ. norm   :     0.2192899 α      lambda       -0.1924652E-04
   maximum displ.:     0.1213674 α      in ANC's #2, #4, #3, ...

........................................................................
.............................. CYCLE   16 ..............................
........................................................................

 iter      E             dE          RMSdq      gap      omega  full diag
   1    -68.1954471 -0.681954E+02  0.589E-02    2.65       0.0  T
   2    -68.1954475 -0.400363E-06  0.347E-02    2.65       1.0  T
   3    -68.1954474  0.172155E-06  0.263E-03    2.65       5.7  T
   4    -68.1954476 -0.291959E-06  0.919E-04    2.65      16.2  T
   5    -68.1954477 -0.175773E-07  0.470E-04    2.65      31.7  T
     SCC iter.                  ...        0 min,  0.010 sec
     gradient                   ...        0 min,  0.007 sec
 * total energy  :   -67.1352679 Eh     change       -0.2289899E-04 Eh
   gradient norm :     0.0014936 Eh/α   predicted    -0.9829837E-05 ( -57.07%)
   displ. norm   :     0.2916385 α      lambda       -0.2426146E-04
   maximum displ.:     0.1616316 α      in ANC's #2, #4, #5, ...

........................................................................
.............................. CYCLE   17 ..............................
........................................................................

 iter      E             dE          RMSdq      gap      omega  full diag
   1    -68.1953040 -0.681953E+02  0.773E-02    2.64       0.0  T
   2    -68.1953046 -0.585733E-06  0.455E-02    2.64       1.0  T
   3    -68.1953043  0.273458E-06  0.344E-03    2.64       4.3  T
   4    -68.1953048 -0.490073E-06  0.111E-03    2.64      13.4  T
   5    -68.1953048 -0.167621E-07  0.599E-04    2.64      24.9  T
   6    -68.1953048 -0.168104E-08  0.186E-04    2.64      80.2  T
     SCC iter.                  ...        0 min,  0.012 sec
     gradient                   ...        0 min,  0.007 sec
 * total energy  :   -67.1352980 Eh     change       -0.3005260E-04 Eh
   gradient norm :     0.0014964 Eh/α   predicted    -0.1259301E-04 ( -58.10%)
   displ. norm   :     0.3385204 α      lambda       -0.3396281E-04
   maximum displ.:     0.1816020 α      in ANC's #2, #4, #5, ...

........................................................................
.............................. CYCLE   18 ..............................
........................................................................

 iter      E             dE          RMSdq      gap      omega  full diag
   1    -68.1962153 -0.681962E+02  0.871E-02    2.64       0.0  T
   2    -68.1962161 -0.823722E-06  0.512E-02    2.64       1.0  T
   3    -68.1962156  0.504077E-06  0.420E-03    2.64       3.5  T
   4    -68.1962164 -0.788983E-06  0.124E-03    2.64      12.0  T
   5    -68.1962164 -0.252182E-07  0.666E-04    2.64      22.4  T
   6    -68.1962164 -0.157230E-08  0.243E-04    2.64      61.4  T
     SCC iter.                  ...        0 min,  0.011 sec
     gradient                   ...        0 min,  0.007 sec
 * total energy  :   -67.1353365 Eh     change       -0.3851493E-04 Eh
   gradient norm :     0.0022361 Eh/α   predicted    -0.1785007E-04 ( -53.65%)
   displ. norm   :     0.3859626 α      lambda       -0.4676644E-04
   maximum displ.:     0.2129052 α      in ANC's #2, #4, #5, ...

........................................................................
.............................. CYCLE   19 ..............................
........................................................................

 iter      E             dE          RMSdq      gap      omega  full diag
   1    -68.1937313 -0.681937E+02  0.102E-01    2.64       0.0  T
   2    -68.1937322 -0.958383E-06  0.599E-02    2.64       1.0  T
   3    -68.1937315  0.668063E-06  0.469E-03    2.64       3.2  T
   4    -68.1937326 -0.107112E-05  0.141E-03    2.64      10.5  T
   5    -68.1937326 -0.209861E-07  0.746E-04    2.64      20.0  T
   6    -68.1937326 -0.152207E-08  0.257E-04    2.64      57.9  T
     SCC iter.                  ...        0 min,  0.011 sec
     gradient                   ...        0 min,  0.007 sec
 * total energy  :   -67.1353677 Eh     change       -0.3118568E-04 Eh
   gradient norm :     0.0027797 Eh/α   predicted    -0.2686822E-04 ( -13.84%)
   displ. norm   :     0.2647795 α      lambda       -0.4126233E-04
   maximum displ.:     0.1425422 α      in ANC's #4, #2, #5, ...

........................................................................
.............................. CYCLE   20 ..............................
........................................................................

 iter      E             dE          RMSdq      gap      omega  full diag
   1    -68.1944361 -0.681944E+02  0.672E-02    2.64       0.0  T
   2    -68.1944366 -0.477423E-06  0.396E-02    2.64       1.0  T
   3    -68.1944362  0.374785E-06  0.342E-03    2.64       4.4  T
   4    -68.1944368 -0.562142E-06  0.935E-04    2.64      15.9  T
   5    -68.1944368 -0.103822E-07  0.488E-04    2.64      30.5  T
     SCC iter.                  ...        0 min,  0.009 sec
     gradient                   ...        0 min,  0.010 sec
 * total energy  :   -67.1353979 Eh     change       -0.3017249E-04 Eh
   gradient norm :     0.0021646 Eh/α   predicted    -0.2207973E-04 ( -26.82%)
   displ. norm   :     0.2373770 α      lambda       -0.3412832E-04
   maximum displ.:     0.1256367 α      in ANC's #4, #2, #5, ...
 * RMSD in coord.:     0.4183965 α      energy gain  -0.1219059E-01 Eh

generating ANC from exact Hessian ...
Using Lindh-Hessian (1995)
 Shifting diagonal of input Hessian by    9.8492576955988686E-003
 Lowest  eigenvalues of input Hessian
    0.000000    0.000000    0.000000    0.000000    0.000000    0.000000
    0.010000    0.010187    0.010416    0.010717    0.011064    0.011359
    0.011569    0.013123    0.014264    0.015279    0.017586    0.018922
 Highest eigenvalues
    2.020795    2.060120    2.133648    2.161571    2.181659    2.217734


........................................................................
.............................. CYCLE   21 ..............................
........................................................................

 iter      E             dE          RMSdq      gap      omega  full diag
   1    -68.1950093 -0.681950E+02  0.602E-02    2.64       0.0  T
   2    -68.1950098 -0.435079E-06  0.355E-02    2.64       1.0  T
   3    -68.1950092  0.545449E-06  0.374E-03    2.64       4.0  T
   4    -68.1950100 -0.727310E-06  0.813E-04    2.64      18.3  T
   5    -68.1950100 -0.737946E-08  0.449E-04    2.64      33.2  T
     SCC iter.                  ...        0 min,  0.010 sec
     gradient                   ...        0 min,  0.007 sec
 * total energy  :   -67.1354224 Eh     change       -0.2454225E-04 Eh
   gradient norm :     0.0015848 Eh/α   predicted     0.0000000E+00 (-100.00%)
   displ. norm   :     0.0306984 α      lambda       -0.8711943E-05
   maximum displ.:     0.0149831 α      in ANC's #3, #7, #14, ...

........................................................................
.............................. CYCLE   22 ..............................
........................................................................

 iter      E             dE          RMSdq      gap      omega  full diag
   1    -68.1958809 -0.681959E+02  0.743E-03    2.64       0.0  T
   2    -68.1958810 -0.112494E-06  0.433E-03    2.64       3.4  T
   3    -68.1958809  0.814459E-07  0.175E-03    2.64       8.5  T
   4    -68.1958810 -0.104489E-06  0.340E-04    2.64      43.8  T
   5    -68.1958810 -0.537464E-08  0.114E-04    2.64     130.3  T
     SCC iter.                  ...        0 min,  0.010 sec
     gradient                   ...        0 min,  0.007 sec
 * total energy  :   -67.1354329 Eh     change       -0.1044768E-04 Eh
   gradient norm :     0.0006042 Eh/α   predicted    -0.4634396E-05 ( -55.64%)
   displ. norm   :     0.0766873 α      lambda       -0.1281783E-04
   maximum displ.:     0.0383885 α      in ANC's #3, #7, #13, ...

........................................................................
.............................. CYCLE   23 ..............................
........................................................................

 iter      E             dE          RMSdq      gap      omega  full diag
   1    -68.1961906 -0.681962E+02  0.165E-02    2.64       0.0  T
   2    -68.1961908 -0.230405E-06  0.964E-03    2.64       1.5  T
   3    -68.1961904  0.365759E-06  0.316E-03    2.64       4.7  T
   4    -68.1961909 -0.440471E-06  0.435E-04    2.64      34.3  T
   5    -68.1961909 -0.789559E-08  0.174E-04    2.64      85.6  T
     SCC iter.                  ...        0 min,  0.009 sec
     gradient                   ...        0 min,  0.007 sec
 * total energy  :   -67.1354465 Eh     change       -0.1369207E-04 Eh
   gradient norm :     0.0010855 Eh/α   predicted    -0.6426595E-05 ( -53.06%)
   displ. norm   :     0.0954189 α      lambda       -0.1034007E-04
   maximum displ.:     0.0485169 α      in ANC's #3, #7, #13, ...

........................................................................
.............................. CYCLE   24 ..............................
........................................................................

 iter      E             dE          RMSdq      gap      omega  full diag
   1    -68.1959749 -0.681960E+02  0.199E-02    2.64       0.0  T
   2    -68.1959750 -0.877325E-07  0.117E-02    2.64       1.3  T
   3    -68.1959748  0.198339E-06  0.215E-03    2.64       6.9  T
   4    -68.1959750 -0.239380E-06  0.313E-04    2.64      47.6  T
   5    -68.1959750 -0.147371E-08  0.171E-04    2.64      87.2  T
     SCC iter.                  ...        0 min,  0.009 sec
     gradient                   ...        0 min,  0.007 sec
 * total energy  :   -67.1354580 Eh     change       -0.1148566E-04 Eh
   gradient norm :     0.0013653 Eh/α   predicted    -0.5199382E-05 ( -54.73%)
   displ. norm   :     0.1440034 α      lambda       -0.1346731E-04
   maximum displ.:     0.0728542 α      in ANC's #3, #7, #13, ...

........................................................................
.............................. CYCLE   25 ..............................
........................................................................

 iter      E             dE          RMSdq      gap      omega  full diag
   1    -68.1955755 -0.681956E+02  0.312E-02    2.64       0.0  T
   2    -68.1955756 -0.125179E-06  0.184E-02    2.64       1.0  T
   3    -68.1955753  0.268500E-06  0.235E-03    2.64       6.4  T
   4    -68.1955757 -0.332965E-06  0.438E-04    2.64      34.1  T
   5    -68.1955757 -0.152974E-08  0.241E-04    2.64      61.9  T
     SCC iter.                  ...        0 min,  0.009 sec
     gradient                   ...        0 min,  0.007 sec
 * total energy  :   -67.1354726 Eh     change       -0.1455689E-04 Eh
   gradient norm :     0.0013883 Eh/α   predicted    -0.6799116E-05 ( -53.29%)
   displ. norm   :     0.1846580 α      lambda       -0.1612040E-04
   maximum displ.:     0.0927024 α      in ANC's #3, #13, #7, ...

........................................................................
.............................. CYCLE   26 ..............................
........................................................................

 iter      E             dE          RMSdq      gap      omega  full diag
   1    -68.1949111 -0.681949E+02  0.418E-02    2.64       0.0  T
   2    -68.1949114 -0.276151E-06  0.246E-02    2.64       1.0  T
   3    -68.1949108  0.535151E-06  0.329E-03    2.64       4.5  T
   4    -68.1949115 -0.651502E-06  0.626E-04    2.64      23.8  T
   5    -68.1949115 -0.773305E-08  0.341E-04    2.64      43.7  T
     SCC iter.                  ...        0 min,  0.009 sec
     gradient                   ...        0 min,  0.007 sec
 * total energy  :   -67.1354898 Eh     change       -0.1717939E-04 Eh
   gradient norm :     0.0016972 Eh/α   predicted    -0.8186061E-05 ( -52.35%)
   displ. norm   :     0.1792679 α      lambda       -0.1745460E-04
   maximum displ.:     0.0886273 α      in ANC's #3, #13, #5, ...

........................................................................
.............................. CYCLE   27 ..............................
........................................................................

 iter      E             dE          RMSdq      gap      omega  full diag
   1    -68.1946588 -0.681947E+02  0.440E-02    2.64       0.0  T
   2    -68.1946592 -0.393613E-06  0.258E-02    2.64       1.0  T
   3    -68.1946587  0.558123E-06  0.358E-03    2.64       4.2  T
   4    -68.1946593 -0.679326E-06  0.724E-04    2.64      20.6  T
   5    -68.1946594 -0.167541E-07  0.357E-04    2.64      41.8  T
     SCC iter.                  ...        0 min,  0.009 sec
     gradient                   ...        0 min,  0.007 sec
 * total energy  :   -67.1355087 Eh     change       -0.1891103E-04 Eh
   gradient norm :     0.0018533 Eh/α   predicted    -0.8858317E-05 ( -53.16%)
   displ. norm   :     0.1301064 α      lambda       -0.1593571E-04
   maximum displ.:     0.0638732 α      in ANC's #5, #3, #1, ...

........................................................................
.............................. CYCLE   28 ..............................
........................................................................

 iter      E             dE          RMSdq      gap      omega  full diag
   1    -68.1953093 -0.681953E+02  0.345E-02    2.63       0.0  T
   2    -68.1953095 -0.263698E-06  0.202E-02    2.64       1.0  T
   3    -68.1953094  0.183109E-06  0.243E-03    2.64       6.1  T
   4    -68.1953096 -0.247025E-06  0.568E-04    2.64      26.2  T
   5    -68.1953096 -0.825199E-08  0.278E-04    2.64      53.7  T
     SCC iter.                  ...        0 min,  0.009 sec
     gradient                   ...        0 min,  0.007 sec
 * total energy  :   -67.1355253 Eh     change       -0.1660579E-04 Eh
   gradient norm :     0.0013074 Eh/α   predicted    -0.8029387E-05 ( -51.65%)
   displ. norm   :     0.1642352 α      lambda       -0.1169440E-04
   maximum displ.:     0.0777382 α      in ANC's #5, #1, #3, ...

........................................................................
.............................. CYCLE   29 ..............................
........................................................................

 iter      E             dE          RMSdq      gap      omega  full diag
   1    -68.1951942 -0.681952E+02  0.403E-02    2.63       0.0  T
   2    -68.1951944 -0.176724E-06  0.237E-02    2.63       1.0  T
   3    -68.1951943  0.137887E-06  0.200E-03    2.63       7.5  T
   4    -68.1951945 -0.208580E-06  0.580E-04    2.63      25.7  T
   5    -68.1951945 -0.455651E-08  0.315E-04    2.63      47.4  T
     SCC iter.                  ...        0 min,  0.009 sec
     gradient                   ...        0 min,  0.007 sec
 * total energy  :   -67.1355381 Eh     change       -0.1286350E-04 Eh
   gradient norm :     0.0014591 Eh/α   predicted    -0.5918654E-05 ( -53.99%)
   displ. norm   :     0.1663307 α      lambda       -0.1481660E-04
   maximum displ.:     0.0876840 α      in ANC's #5, #1, #2, ...

........................................................................
.............................. CYCLE   30 ..............................
........................................................................

 iter      E             dE          RMSdq      gap      omega  full diag
   1    -68.1955191 -0.681955E+02  0.400E-02    2.63       0.0  T
   2    -68.1955193 -0.252575E-06  0.235E-02    2.63       1.0  T
   3    -68.1955190  0.299768E-06  0.257E-03    2.63       5.8  T
   4    -68.1955194 -0.381194E-06  0.618E-04    2.63      24.1  T
   5    -68.1955194 -0.102727E-07  0.319E-04    2.63      46.7  T
     SCC iter.                  ...        0 min,  0.009 sec
     gradient                   ...        0 min,  0.007 sec
 * total energy  :   -67.1355557 Eh     change       -0.1751036E-04 Eh
   gradient norm :     0.0009874 Eh/α   predicted    -0.7499616E-05 ( -57.17%)
   displ. norm   :     0.2817666 α      lambda       -0.2063662E-04
   maximum displ.:     0.1421995 α      in ANC's #5, #1, #2, ...

........................................................................
.............................. CYCLE   31 ..............................
........................................................................

 iter      E             dE          RMSdq      gap      omega  full diag
   1    -68.1947172 -0.681947E+02  0.655E-02    2.63       0.0  T
   2    -68.1947177 -0.450903E-06  0.385E-02    2.63       1.0  T
   3    -68.1947172  0.444109E-06  0.338E-03    2.63       4.4  T
   4    -68.1947179 -0.642969E-06  0.865E-04    2.63      17.2  T
   5    -68.1947179 -0.729013E-08  0.450E-04    2.63      33.2  T
     SCC iter.                  ...        0 min,  0.009 sec
     gradient                   ...        0 min,  0.007 sec
 * total energy  :   -67.1355784 Eh     change       -0.2269375E-04 Eh
   gradient norm :     0.0020900 Eh/α   predicted    -0.1068506E-04 ( -52.92%)
   displ. norm   :     0.1927898 α      lambda       -0.3029566E-04
   maximum displ.:     0.1035972 α      in ANC's #5, #1, #2, ...

........................................................................
.............................. CYCLE   32 ..............................
........................................................................

 iter      E             dE          RMSdq      gap      omega  full diag
   1    -68.1949514 -0.681950E+02  0.457E-02    2.63       0.0  T
   2    -68.1949517 -0.363569E-06  0.268E-02    2.63       1.0  T
   3    -68.1949514  0.343271E-06  0.290E-03    2.63       5.1  T
   4    -68.1949518 -0.449813E-06  0.666E-04    2.63      22.4  T
   5    -68.1949518 -0.107667E-07  0.322E-04    2.63      46.3  T
     SCC iter.                  ...        0 min,  0.009 sec
     gradient                   ...        0 min,  0.007 sec
 * total energy  :   -67.1356020 Eh     change       -0.2369113E-04 Eh
   gradient norm :     0.0016836 Eh/α   predicted    -0.1571316E-04 ( -33.67%)
   displ. norm   :     0.4048427 α      lambda       -0.3131321E-04
   maximum displ.:     0.2117820 α      in ANC's #5, #1, #2, ...

........................................................................
.............................. CYCLE   33 ..............................
........................................................................

 iter      E             dE          RMSdq      gap      omega  full diag
   1    -68.1939216 -0.681939E+02  0.962E-02    2.62       0.0  T
   2    -68.1939228 -0.122322E-05  0.565E-02    2.63       1.0  T
   3    -68.1939212  0.161642E-05  0.620E-03    2.63       2.4  T
   4    -68.1939233 -0.210093E-05  0.121E-03    2.63      12.3  T
   5    -68.1939233 -0.215198E-07  0.623E-04    2.63      23.9  T
   6    -68.1939233  0.127741E-09  0.192E-04    2.63      77.7  T
     SCC iter.                  ...        0 min,  0.011 sec
     gradient                   ...        0 min,  0.007 sec
 * total energy  :   -67.1356307 Eh     change       -0.2869743E-04 Eh
   gradient norm :     0.0024301 Eh/α   predicted    -0.1680017E-04 ( -41.46%)
   displ. norm   :     0.0967889 α      lambda       -0.2399120E-04
   maximum displ.:     0.0509841 α      in ANC's #2, #7, #1, ...

........................................................................
.............................. CYCLE   34 ..............................
........................................................................

 iter      E             dE          RMSdq      gap      omega  full diag
   1    -68.1954369 -0.681954E+02  0.273E-02    2.63       0.0  T
   2    -68.1954373 -0.309773E-06  0.160E-02    2.63       1.0  T
   3    -68.1954368  0.467275E-06  0.319E-03    2.63       4.7  T
   4    -68.1954373 -0.544632E-06  0.612E-04    2.63      24.4  T
   5    -68.1954373 -0.141872E-07  0.256E-04    2.63      58.2  T
     SCC iter.                  ...        0 min,  0.009 sec
     gradient                   ...        0 min,  0.007 sec
 * total energy  :   -67.1356436 Eh     change       -0.1281225E-04 Eh
   gradient norm :     0.0016051 Eh/α   predicted    -0.1210967E-04 (  -5.48%)
   displ. norm   :     0.3169606 α      lambda       -0.2213181E-04
   maximum displ.:     0.1744239 α      in ANC's #2, #1, #5, ...

........................................................................
.............................. CYCLE   35 ..............................
........................................................................

 iter      E             dE          RMSdq      gap      omega  full diag
   1    -68.1940845 -0.681941E+02  0.769E-02    2.62       0.0  T
   2    -68.1940855 -0.992435E-06  0.452E-02    2.63       1.0  T
   3    -68.1940838  0.170247E-05  0.615E-03    2.62       2.4  T
   4    -68.1940859 -0.208598E-05  0.113E-03    2.63      13.2  T
   5    -68.1940859 -0.263399E-07  0.593E-04    2.63      25.1  T
   6    -68.1940859 -0.132729E-10  0.280E-04    2.63      53.2  T
     SCC iter.                  ...        0 min,  0.011 sec
     gradient                   ...        0 min,  0.007 sec
 * total energy  :   -67.1356647 Eh     change       -0.2119590E-04 Eh
   gradient norm :     0.0018029 Eh/α   predicted    -0.1155994E-04 ( -45.46%)
   displ. norm   :     0.0994850 α      lambda       -0.1523431E-04
   maximum displ.:     0.0694060 α      in ANC's #2, #1, #5, ...

........................................................................
.............................. CYCLE   36 ..............................
........................................................................

 iter      E             dE          RMSdq      gap      omega  full diag
   1    -68.1947175 -0.681947E+02  0.275E-02    2.62       0.0  T
   2    -68.1947177 -0.165819E-06  0.161E-02    2.63       1.0  T
   3    -68.1947173  0.350462E-06  0.267E-03    2.62       5.6  T
   4    -68.1947178 -0.410276E-06  0.480E-04    2.63      31.1  T
   5    -68.1947178 -0.837137E-08  0.225E-04    2.63      66.4  T
     SCC iter.                  ...        0 min,  0.009 sec
     gradient                   ...        0 min,  0.007 sec
 * total energy  :   -67.1356811 Eh     change       -0.1637112E-04 Eh
   gradient norm :     0.0014411 Eh/α   predicted    -0.7651200E-05 ( -53.26%)
   displ. norm   :     0.1424122 α      lambda       -0.1733468E-04
   maximum displ.:     0.1040549 α      in ANC's #2, #1, #4, ...

........................................................................
.............................. CYCLE   37 ..............................
........................................................................

 iter      E             dE          RMSdq      gap      omega  full diag
   1    -68.1952216 -0.681952E+02  0.383E-02    2.62       0.0  T
   2    -68.1952218 -0.157464E-06  0.224E-02    2.63       1.0  T
   3    -68.1952216  0.138647E-06  0.213E-03    2.62       7.0  T
   4    -68.1952218 -0.200693E-06  0.559E-04    2.63      26.7  T
   5    -68.1952218 -0.461777E-08  0.295E-04    2.63      50.5  T
     SCC iter.                  ...        0 min,  0.009 sec
     gradient                   ...        0 min,  0.007 sec
 * total energy  :   -67.1356997 Eh     change       -0.1859012E-04 Eh
   gradient norm :     0.0013664 Eh/α   predicted    -0.8750541E-05 ( -52.93%)
   displ. norm   :     0.1545540 α      lambda       -0.1502061E-04
   maximum displ.:     0.1133543 α      in ANC's #2, #1, #13, ...

........................................................................
.............................. CYCLE   38 ..............................
........................................................................

 iter      E             dE          RMSdq      gap      omega  full diag
   1    -68.1949126 -0.681949E+02  0.387E-02    2.62       0.0  T
   2    -68.1949128 -0.156709E-06  0.227E-02    2.62       1.0  T
   3    -68.1949126  0.220902E-06  0.234E-03    2.62       6.4  T
   4    -68.1949129 -0.295795E-06  0.501E-04    2.62      29.7  T
   5    -68.1949129 -0.172334E-08  0.261E-04    2.62      57.0  T
     SCC iter.                  ...        0 min,  0.009 sec
     gradient                   ...        0 min,  0.007 sec
 * total energy  :   -67.1357179 Eh     change       -0.1817340E-04 Eh
   gradient norm :     0.0014025 Eh/α   predicted    -0.7594297E-05 ( -58.21%)
   displ. norm   :     0.1624124 α      lambda       -0.1785324E-04
   maximum displ.:     0.1237931 α      in ANC's #2, #1, #4, ...

........................................................................
.............................. CYCLE   39 ..............................
........................................................................

 iter      E             dE          RMSdq      gap      omega  full diag
   1    -68.1952671 -0.681953E+02  0.405E-02    2.62       0.0  T
   2    -68.1952673 -0.230027E-06  0.238E-02    2.62       1.0  T
   3    -68.1952670  0.322479E-06  0.276E-03    2.62       5.4  T
   4    -68.1952674 -0.412054E-06  0.582E-04    2.62      25.6  T
   5    -68.1952674 -0.570317E-08  0.302E-04    2.62      49.4  T
     SCC iter.                  ...        0 min,  0.009 sec
     gradient                   ...        0 min,  0.007 sec
 * total energy  :   -67.1357398 Eh     change       -0.2190923E-04 Eh
   gradient norm :     0.0010302 Eh/α   predicted    -0.9034610E-05 ( -58.76%)
   displ. norm   :     0.2566958 α      lambda       -0.2265186E-04
   maximum displ.:     0.1936883 α      in ANC's #2, #1, #13, ...

........................................................................
.............................. CYCLE   40 ..............................
........................................................................

 iter      E             dE          RMSdq      gap      omega  full diag
   1    -68.1945588 -0.681946E+02  0.637E-02    2.62       0.0  T
   2    -68.1945593 -0.446605E-06  0.374E-02    2.62       1.0  T
   3    -68.1945588  0.430552E-06  0.343E-03    2.62       4.4  T
   4    -68.1945594 -0.615369E-06  0.879E-04    2.62      17.0  T
   5    -68.1945594 -0.970118E-08  0.457E-04    2.62      32.6  T
     SCC iter.                  ...        0 min,  0.009 sec
     gradient                   ...        0 min,  0.007 sec
 * total energy  :   -67.1357665 Eh     change       -0.2674929E-04 Eh
   gradient norm :     0.0015735 Eh/α   predicted    -0.1165967E-04 ( -56.41%)
   displ. norm   :     0.3956983 α      lambda       -0.3061899E-04
   maximum displ.:     0.3062000 α      in ANC's #2, #1, #4, ...

........................................................................
.............................. CYCLE   41 ..............................
........................................................................

 iter      E             dE          RMSdq      gap      omega  full diag
   1    -68.1938059 -0.681938E+02  0.965E-02    2.62       0.0  T
   2    -68.1938069 -0.943236E-06  0.566E-02    2.62       1.0  T
   3    -68.1938057  0.114758E-05  0.541E-03    2.62       2.8  T
   4    -68.1938073 -0.158964E-05  0.130E-03    2.62      11.5  T
   5    -68.1938073 -0.134084E-07  0.676E-04    2.62      22.1  T
   6    -68.1938073 -0.245224E-08  0.178E-04    2.62      83.8  T
     SCC iter.                  ...        0 min,  0.013 sec
     gradient                   ...        0 min,  0.007 sec
 * total energy  :   -67.1357990 Eh     change       -0.3241215E-04 Eh
   gradient norm :     0.0024463 Eh/α   predicted    -0.1637998E-04 ( -49.46%)
   displ. norm   :     0.2537220 α      lambda       -0.3210479E-04
   maximum displ.:     0.2019946 α      in ANC's #2, #1, #4, ...

........................................................................
.............................. CYCLE   42 ..............................
........................................................................

 iter      E             dE          RMSdq      gap      omega  full diag
   1    -68.1940382 -0.681940E+02  0.611E-02    2.62       0.0  T
   2    -68.1940386 -0.357882E-06  0.358E-02    2.62       1.0  T
   3    -68.1940382  0.312518E-06  0.306E-03    2.62       4.9  T
   4    -68.1940387 -0.473038E-06  0.859E-04    2.62      17.4  T
   5    -68.1940387 -0.565078E-08  0.428E-04    2.62      34.8  T
     SCC iter.                  ...        0 min,  0.009 sec
     gradient                   ...        0 min,  0.007 sec
 * total energy  :   -67.1358246 Eh     change       -0.2561778E-04 Eh
   gradient norm :     0.0022912 Eh/α   predicted    -0.1708921E-04 ( -33.29%)
   displ. norm   :     0.4313076 α      lambda       -0.5846105E-04
   maximum displ.:     0.3430209 α      in ANC's #2, #1, #4, ...
 * RMSD in coord.:     0.5139253 α      energy gain  -0.4267082E-03 Eh

generating ANC from exact Hessian ...
Using Lindh-Hessian (1995)
 Shifting diagonal of input Hessian by    9.8412958507156003E-003
 Lowest  eigenvalues of input Hessian
    0.000000    0.000000    0.000000    0.000000    0.000000    0.000000
    0.010000    0.010166    0.010420    0.010735    0.011043    0.011229
    0.011574    0.013131    0.014071    0.015128    0.017454    0.018751
 Highest eigenvalues
    2.018659    2.056865    2.133401    2.158453    2.179439    2.213418


........................................................................
.............................. CYCLE   43 ..............................
........................................................................

 iter      E             dE          RMSdq      gap      omega  full diag
   1    -68.1939866 -0.681940E+02  0.101E-01    2.62       0.0  T
   2    -68.1939875 -0.920791E-06  0.592E-02    2.62       1.0  T
   3    -68.1939868  0.747581E-06  0.489E-03    2.62       3.0  T
   4    -68.1939880 -0.118884E-05  0.138E-03    2.62      10.8  T
   5    -68.1939880 -0.739568E-08  0.659E-04    2.62      22.6  T
   6    -68.1939880 -0.391387E-08  0.159E-04    2.62      94.0  T
     SCC iter.                  ...        0 min,  0.011 sec
     gradient                   ...        0 min,  0.007 sec
 * total energy  :   -67.1358697 Eh     change       -0.4508515E-04 Eh
   gradient norm :     0.0023714 Eh/α   predicted     0.0000000E+00 (-100.00%)
   displ. norm   :     0.0258376 α      lambda       -0.5463121E-05
   maximum displ.:     0.0117884 α      in ANC's #6, #9, #7, ...

........................................................................
.............................. CYCLE   44 ..............................
........................................................................

 iter      E             dE          RMSdq      gap      omega  full diag
   1    -68.1954426 -0.681954E+02  0.896E-03    2.62       0.0  T
   2    -68.1954426 -0.558575E-07  0.526E-03    2.62       2.8  T
   3    -68.1954426  0.437049E-07  0.113E-03    2.62      13.2  T
   4    -68.1954426 -0.534184E-07  0.282E-04    2.62      52.9  T
   5    -68.1954426 -0.293264E-08  0.115E-04    2.62     129.2  T
     SCC iter.                  ...        0 min,  0.011 sec
     gradient                   ...        0 min,  0.008 sec
 * total energy  :   -67.1358865 Eh     change       -0.1686750E-04 Eh
   gradient norm :     0.0011775 Eh/α   predicted    -0.1109194E-04 ( -34.24%)
   displ. norm   :     0.0857273 α      lambda       -0.2300427E-04
   maximum displ.:     0.0419459 α      in ANC's #6, #7, #9, ...

........................................................................
.............................. CYCLE   45 ..............................
........................................................................

 iter      E             dE          RMSdq      gap      omega  full diag
   1    -68.1972149 -0.681972E+02  0.249E-02    2.62       0.0  T
   2    -68.1972151 -0.226549E-06  0.146E-02    2.62       1.0  T
   3    -68.1972149  0.263868E-06  0.262E-03    2.62       5.7  T
   4    -68.1972152 -0.320985E-06  0.579E-04    2.62      25.7  T
   5    -68.1972152 -0.107629E-07  0.270E-04    2.62      55.2  T
     SCC iter.                  ...        0 min,  0.010 sec
     gradient                   ...        0 min,  0.007 sec
 * total energy  :   -67.1359032 Eh     change       -0.1668594E-04 Eh
   gradient norm :     0.0015369 Eh/α   predicted    -0.1153985E-04 ( -30.84%)
   displ. norm   :     0.0367134 α      lambda       -0.6651903E-05
   maximum displ.:     0.0179249 α      in ANC's #6, #2, #7, ...

........................................................................
.............................. CYCLE   46 ..............................
........................................................................

 iter      E             dE          RMSdq      gap      omega  full diag
   1    -68.1963729 -0.681964E+02  0.880E-03    2.62       0.0  T
   2    -68.1963730 -0.412152E-07  0.515E-03    2.62       2.9  T
   3    -68.1963729  0.265880E-07  0.899E-04    2.62      16.6  T
   4    -68.1963730 -0.323199E-07  0.249E-04    2.62      59.8  T
     SCC iter.                  ...        0 min,  0.008 sec
     gradient                   ...        0 min,  0.007 sec
 * total energy  :   -67.1359115 Eh     change       -0.8290945E-05 Eh
   gradient norm :     0.0008226 Eh/α   predicted    -0.3421871E-05 ( -58.73%)
   displ. norm   :     0.0822907 α      lambda       -0.9819835E-05
   maximum displ.:     0.0424013 α      in ANC's #2, #6, #7, ...

........................................................................
.............................. CYCLE   47 ..............................
........................................................................

 iter      E             dE          RMSdq      gap      omega  full diag
   1    -68.1952720 -0.681953E+02  0.179E-02    2.62       0.0  T
   2    -68.1952721 -0.890740E-07  0.105E-02    2.62       1.4  T
   3    -68.1952721  0.723554E-07  0.145E-03    2.62      10.3  T
   4    -68.1952721 -0.932995E-07  0.403E-04    2.62      37.0  T
   5    -68.1952721 -0.360835E-08  0.192E-04    2.62      77.7  T
     SCC iter.                  ...        0 min,  0.010 sec
     gradient                   ...        0 min,  0.007 sec
 * total energy  :   -67.1359218 Eh     change       -0.1025391E-04 Eh
   gradient norm :     0.0008211 Eh/α   predicted    -0.4926094E-05 ( -51.96%)
   displ. norm   :     0.0803530 α      lambda       -0.5946920E-05
   maximum displ.:     0.0444743 α      in ANC's #2, #7, #6, ...

........................................................................
.............................. CYCLE   48 ..............................
........................................................................

 iter      E             dE          RMSdq      gap      omega  full diag
   1    -68.1949098 -0.681949E+02  0.162E-02    2.62       0.0  T
   2    -68.1949098 -0.340476E-07  0.953E-03    2.62       1.6  T
   3    -68.1949098  0.165189E-07  0.894E-04    2.62      16.7  T
   4    -68.1949098 -0.294544E-07  0.296E-04    2.62      50.4  T
     SCC iter.                  ...        0 min,  0.008 sec
     gradient                   ...        0 min,  0.007 sec
 * total energy  :   -67.1359287 Eh     change       -0.6959233E-05 Eh
   gradient norm :     0.0010616 Eh/α   predicted    -0.3034164E-05 ( -56.40%)
   displ. norm   :     0.1050286 α      lambda       -0.7685896E-05
   maximum displ.:     0.0604198 α      in ANC's #2, #7, #6, ...

........................................................................
.............................. CYCLE   49 ..............................
........................................................................

 iter      E             dE          RMSdq      gap      omega  full diag
   1    -68.1948977 -0.681949E+02  0.205E-02    2.62       0.0  T
   2    -68.1948977 -0.639300E-07  0.120E-02    2.62       1.2  T
   3    -68.1948977  0.259677E-07  0.113E-03    2.62      13.2  T
   4    -68.1948978 -0.477542E-07  0.414E-04    2.62      36.0  T
   5    -68.1948978 -0.239388E-08  0.210E-04    2.62      71.1  T
     SCC iter.                  ...        0 min,  0.009 sec
     gradient                   ...        0 min,  0.007 sec
 * total energy  :   -67.1359377 Eh     change       -0.8983886E-05 Eh
   gradient norm :     0.0009957 Eh/α   predicted    -0.3863500E-05 ( -57.00%)
   displ. norm   :     0.1269776 α      lambda       -0.9483486E-05
   maximum displ.:     0.0768585 α      in ANC's #2, #1, #7, ...

........................................................................
.............................. CYCLE   50 ..............................
........................................................................

 iter      E             dE          RMSdq      gap      omega  full diag
   1    -68.1952877 -0.681953E+02  0.235E-02    2.62       0.0  T
   2    -68.1952878 -0.115398E-06  0.137E-02    2.62       1.1  T
   3    -68.1952878  0.402596E-07  0.134E-03    2.62      11.1  T
   4    -68.1952878 -0.689344E-07  0.497E-04    2.62      30.0  T
   5    -68.1952878 -0.516405E-08  0.263E-04    2.62      56.8  T
     SCC iter.                  ...        0 min,  0.009 sec
     gradient                   ...        0 min,  0.007 sec
 * total energy  :   -67.1359493 Eh     change       -0.1164661E-04 Eh
   gradient norm :     0.0007372 Eh/α   predicted    -0.4779057E-05 ( -58.97%)
   displ. norm   :     0.1688023 α      lambda       -0.1240694E-04
   maximum displ.:     0.1057011 α      in ANC's #2, #1, #3, ...

........................................................................
.............................. CYCLE   51 ..............................
........................................................................

 iter      E             dE          RMSdq      gap      omega  full diag
   1    -68.1956531 -0.681957E+02  0.305E-02    2.62       0.0  T
   2    -68.1956533 -0.175713E-06  0.179E-02    2.62       1.0  T
   3    -68.1956532  0.711738E-07  0.175E-03    2.62       8.5  T
   4    -68.1956533 -0.125067E-06  0.624E-04    2.62      23.9  T
   5    -68.1956533 -0.577299E-08  0.339E-04    2.62      43.9  T
     SCC iter.                  ...        0 min,  0.009 sec
     gradient                   ...        0 min,  0.007 sec
 * total energy  :   -67.1359656 Eh     change       -0.1625059E-04 Eh
   gradient norm :     0.0009170 Eh/α   predicted    -0.6284425E-05 ( -61.33%)
   displ. norm   :     0.2483211 α      lambda       -0.1910178E-04
   maximum displ.:     0.1583676 α      in ANC's #2, #1, #3, ...

........................................................................
.............................. CYCLE   52 ..............................
........................................................................

 iter      E             dE          RMSdq      gap      omega  full diag
   1    -68.1956688 -0.681957E+02  0.447E-02    2.61       0.0  T
   2    -68.1956691 -0.339651E-06  0.262E-02    2.62       1.0  T
   3    -68.1956690  0.149339E-06  0.261E-03    2.62       5.7  T
   4    -68.1956692 -0.270285E-06  0.862E-04    2.62      17.3  T
   5    -68.1956692 -0.573972E-08  0.451E-04    2.62      33.1  T
     SCC iter.                  ...        0 min,  0.009 sec
     gradient                   ...        0 min,  0.007 sec
 * total energy  :   -67.1359912 Eh     change       -0.2561222E-04 Eh
   gradient norm :     0.0012343 Eh/α   predicted    -0.9819972E-05 ( -61.66%)
   displ. norm   :     0.3517066 α      lambda       -0.2823079E-04
   maximum displ.:     0.2278389 α      in ANC's #2, #1, #3, ...

........................................................................
.............................. CYCLE   53 ..............................
........................................................................

 iter      E             dE          RMSdq      gap      omega  full diag
   1    -68.1949313 -0.681949E+02  0.637E-02    2.61       0.0  T
   2    -68.1949319 -0.636567E-06  0.374E-02    2.61       1.0  T
   3    -68.1949316  0.266013E-06  0.366E-03    2.61       4.1  T
   4    -68.1949321 -0.500064E-06  0.117E-03    2.61      12.7  T
   5    -68.1949321 -0.867928E-08  0.588E-04    2.61      25.3  T
   6    -68.1949322 -0.225101E-08  0.137E-04    2.61     108.9  T
     SCC iter.                  ...        0 min,  0.011 sec
     gradient                   ...        0 min,  0.007 sec
 * total energy  :   -67.1360268 Eh     change       -0.3564103E-04 Eh
   gradient norm :     0.0016383 Eh/α   predicted    -0.1489296E-04 ( -58.21%)
   displ. norm   :     0.3248036 α      lambda       -0.2908171E-04
   maximum displ.:     0.2156926 α      in ANC's #2, #1, #3, ...

........................................................................
.............................. CYCLE   54 ..............................
........................................................................

 iter      E             dE          RMSdq      gap      omega  full diag
   1    -68.1944725 -0.681945E+02  0.601E-02    2.61       0.0  T
   2    -68.1944730 -0.513449E-06  0.352E-02    2.61       1.0  T
   3    -68.1944727  0.292029E-06  0.358E-03    2.61       4.2  T
   4    -68.1944732 -0.491615E-06  0.105E-03    2.61      14.2  T
   5    -68.1944732 -0.678180E-08  0.524E-04    2.61      28.4  T
   6    -68.1944732 -0.208831E-08  0.122E-04    2.61     122.1  T
     SCC iter.                  ...        0 min,  0.011 sec
     gradient                   ...        0 min,  0.007 sec
 * total energy  :   -67.1360621 Eh     change       -0.3527215E-04 Eh
   gradient norm :     0.0014157 Eh/α   predicted    -0.1522342E-04 ( -56.84%)
   displ. norm   :     0.3103957 α      lambda       -0.2753628E-04
   maximum displ.:     0.2095972 α      in ANC's #2, #1, #3, ...

........................................................................
.............................. CYCLE   55 ..............................
........................................................................

 iter      E             dE          RMSdq      gap      omega  full diag
   1    -68.1943173 -0.681943E+02  0.580E-02    2.61       0.0  T
   2    -68.1943177 -0.420120E-06  0.340E-02    2.61       1.0  T
   3    -68.1943175  0.228659E-06  0.316E-03    2.61       4.7  T
   4    -68.1943179 -0.395823E-06  0.957E-04    2.61      15.6  T
   5    -68.1943179 -0.537432E-08  0.477E-04    2.61      31.3  T
     SCC iter.                  ...        0 min,  0.010 sec
     gradient                   ...        0 min,  0.007 sec
 * total energy  :   -67.1360973 Eh     change       -0.3516760E-04 Eh
   gradient norm :     0.0017085 Eh/α   predicted    -0.1436059E-04 ( -59.17%)
   displ. norm   :     0.4050486 α      lambda       -0.3914006E-04
   maximum displ.:     0.2772351 α      in ANC's #2, #1, #3, ...

........................................................................
.............................. CYCLE   56 ..............................
........................................................................

 iter      E             dE          RMSdq      gap      omega  full diag
   1    -68.1941595 -0.681942E+02  0.757E-02    2.61       0.0  T
   2    -68.1941601 -0.689566E-06  0.444E-02    2.61       1.0  T
   3    -68.1941599  0.294920E-06  0.372E-03    2.61       4.0  T
   4    -68.1941604 -0.556510E-06  0.122E-03    2.61      12.2  T
   5    -68.1941604 -0.106095E-07  0.613E-04    2.61      24.3  T
   6    -68.1941604 -0.336613E-08  0.163E-04    2.61      91.2  T
     SCC iter.                  ...        0 min,  0.011 sec
     gradient                   ...        0 min,  0.007 sec
 * total energy  :   -67.1361473 Eh     change       -0.5003915E-04 Eh
   gradient norm :     0.0022948 Eh/α   predicted    -0.2100087E-04 ( -58.03%)
   displ. norm   :     0.4261320 α      lambda       -0.5983278E-04
   maximum displ.:     0.2932117 α      in ANC's #2, #1, #3, ...

........................................................................
.............................. CYCLE   57 ..............................
........................................................................

 iter      E             dE          RMSdq      gap      omega  full diag
   1    -68.1931073 -0.681931E+02  0.790E-02    2.60       0.0  T
   2    -68.1931081 -0.785564E-06  0.463E-02    2.61       1.0  T
   3    -68.1931078  0.278146E-06  0.364E-03    2.61       4.1  T
   4    -68.1931084 -0.549197E-06  0.131E-03    2.61      11.4  T
   5    -68.1931084 -0.186983E-07  0.671E-04    2.61      22.2  T
   6    -68.1931084 -0.364288E-08  0.194E-04    2.61      76.8  T
     SCC iter.                  ...        0 min,  0.011 sec
     gradient                   ...        0 min,  0.007 sec
 * total energy  :   -67.1361975 Eh     change       -0.5020628E-04 Eh
   gradient norm :     0.0034507 Eh/α   predicted    -0.3535380E-04 ( -29.58%)
   displ. norm   :     0.5854489 α      lambda       -0.1115625E-03
   maximum displ.:     0.4055944 α      in ANC's #2, #1, #3, ...

........................................................................
.............................. CYCLE   58 ..............................
........................................................................

 iter      E             dE          RMSdq      gap      omega  full diag
   1    -68.1934045 -0.681934E+02  0.112E-01    2.60       0.0  T
   2    -68.1934059 -0.142568E-05  0.655E-02    2.60       1.0  T
   3    -68.1934056  0.327543E-06  0.454E-03    2.60       3.3  T
   4    -68.1934064 -0.811460E-06  0.176E-03    2.60       8.5  T
   5    -68.1934064 -0.352894E-07  0.882E-04    2.60      16.9  T
   6    -68.1934064 -0.595821E-08  0.226E-04    2.60      66.0  T
     SCC iter.                  ...        0 min,  0.012 sec
     gradient                   ...        0 min,  0.007 sec
 * total energy  :   -67.1362722 Eh     change       -0.7467725E-04 Eh
   gradient norm :     0.0042387 Eh/α   predicted    -0.7490346E-04 (   0.30%)
   displ. norm   :     0.5161784 α      lambda       -0.8114608E-04
   maximum displ.:     0.3563696 α      in ANC's #2, #1, #3, ...

........................................................................
.............................. CYCLE   59 ..............................
........................................................................

 iter      E             dE          RMSdq      gap      omega  full diag
   1    -68.1904428 -0.681904E+02  0.953E-02    2.60       0.0  T
   2    -68.1904444 -0.166609E-05  0.558E-02    2.60       1.0  T
   3    -68.1904440  0.405148E-06  0.449E-03    2.60       3.3  T
   4    -68.1904448 -0.796430E-06  0.181E-03    2.60       8.2  T
   5    -68.1904449 -0.700901E-07  0.909E-04    2.60      16.4  T
   6    -68.1904449 -0.437058E-08  0.287E-04    2.60      52.0  T
     SCC iter.                  ...        0 min,  0.011 sec
     gradient                   ...        0 min,  0.007 sec
 * total energy  :   -67.1363102 Eh     change       -0.3798047E-04 Eh
   gradient norm :     0.0061803 Eh/α   predicted    -0.5139011E-04 (  35.31%)
   displ. norm   :     0.2186347 α      lambda       -0.1613891E-03
   maximum displ.:     0.1241575 α      in ANC's #2, #1, #9, ...

........................................................................
.............................. CYCLE   60 ..............................
........................................................................

 iter      E             dE          RMSdq      gap      omega  full diag
   1    -68.1967346 -0.681967E+02  0.458E-02    2.60       0.0  T
   2    -68.1967369 -0.229887E-05  0.268E-02    2.60       1.0  T
   3    -68.1967357  0.124885E-05  0.619E-03    2.60       2.4  T
   4    -68.1967370 -0.135039E-05  0.204E-03    2.60       7.3  T
   5    -68.1967373 -0.233514E-06  0.570E-04    2.60      26.1  T
   6    -68.1967373 -0.347967E-09  0.324E-04    2.60      45.9  T
     SCC iter.                  ...        0 min,  0.011 sec
     gradient                   ...        0 min,  0.007 sec
 * total energy  :   -67.1363925 Eh     change       -0.8228134E-04 Eh
   gradient norm :     0.0032420 Eh/α   predicted    -0.8455288E-04 (   2.76%)
   displ. norm   :     0.3898325 α      lambda       -0.7574438E-04
   maximum displ.:     0.2748557 α      in ANC's #2, #1, #3, ...

........................................................................
.............................. CYCLE   61 ..............................
........................................................................

 iter      E             dE          RMSdq      gap      omega  full diag
   1    -68.1943336 -0.681943E+02  0.718E-02    2.60       0.0  T
   2    -68.1943344 -0.848771E-06  0.421E-02    2.60       1.0  T
   3    -68.1943340  0.377363E-06  0.368E-03    2.60       4.0  T
   4    -68.1943346 -0.608837E-06  0.137E-03    2.60      10.9  T
   5    -68.1943347 -0.390505E-07  0.683E-04    2.60      21.8  T
   6    -68.1943347 -0.158596E-08  0.214E-04    2.60      69.7  T
     SCC iter.                  ...        0 min,  0.011 sec
     gradient                   ...        0 min,  0.007 sec
 * total energy  :   -67.1364528 Eh     change       -0.6032529E-04 Eh
   gradient norm :     0.0032425 Eh/α   predicted    -0.4363306E-04 ( -27.67%)
   displ. norm   :     0.3946090 α      lambda       -0.9421821E-04
   maximum displ.:     0.2815043 α      in ANC's #2, #1, #3, ...

........................................................................
.............................. CYCLE   62 ..............................
........................................................................

 iter      E             dE          RMSdq      gap      omega  full diag
   1    -68.1928649 -0.681929E+02  0.716E-02    2.60       0.0  T
   2    -68.1928657 -0.783342E-06  0.420E-02    2.60       1.0  T
   3    -68.1928654  0.226381E-06  0.369E-03    2.60       4.0  T
   4    -68.1928659 -0.495272E-06  0.136E-03    2.60      11.0  T
[...]
C9-C6-C5-H29=359.63           C8-C7-C6-C5=  0.00            C8-C7-C6-C9=180.33            H30-C7-C6-C5=179.56           
H30-C7-C6-C9=359.90           C7-C8-C3-O2=180.11            C7-C8-C3-C4=  0.18            H31-C8-C3-O2=  0.11           
H31-C8-C3-C4=180.18           C3-C8-C7-C6=359.83            C3-C8-C7-H30=180.24           H31-C8-C7-C6=179.83           
H31-C8-C7-H30=  0.24          O10-C9-C6-C5=356.93           O10-C9-C6-C7=176.58           C11-C9-C6-C5=177.49           
C11-C9-C6-C7=357.14           
           -------------------------------------------------
          |                Final Singlepoint                |
           -------------------------------------------------

          ...................................................
          :                      SETUP                      :
          :.................................................:
          :  # basis functions                 117          :
          :  # atomic orbitals                 117          :
          :  # shells                           69          :
          :  # electrons                       122          :
          :  max. iterations                   250          :
          :  Hamiltonian                  GFN2-xTB          :
          :  restarted?                      false          :
          :  GBSA solvation                  false          :
          :  PC potential                    false          :
          :  electronic temp.          300.0000000     K    :
          :  accuracy                    1.0000000          :
          :  -> integral cutoff          0.2500000E+02      :
          :  -> integral neglect         0.1000000E-07      :
          :  -> SCF convergence          0.1000000E-05 Eh   :
          :  -> wf. convergence          0.1000000E-03 e    :
          :  Broyden damping             0.4000000          :
          :  net charge                          1          :
          :  unpaired electrons                  0          :
          ...................................................

 iter      E             dE          RMSdq      gap      omega  full diag
   1    -68.2041661 -0.682042E+02  0.557E-05    2.68       0.0  T
   2    -68.2041661 -0.175504E-10  0.357E-05    2.68     417.9  T
   3    -68.2041661 -0.160441E-10  0.229E-05    2.68     652.3  T

   *** convergence criteria satisfied after 3 iterations ***

         #    Occupation            Energy/Eh            Energy/eV
      -------------------------------------------------------------
         1        2.0000           -0.8649109             -23.5354
       ...           ...                  ...                  ...
        55        2.0000           -0.5256498             -14.3037
        56        2.0000           -0.5229645             -14.2306
        57        2.0000           -0.5169492             -14.0669
        58        2.0000           -0.5146437             -14.0042
        59        2.0000           -0.5072001             -13.8016
        60        2.0000           -0.5060864             -13.7713
        61        2.0000           -0.4889147             -13.3040 (HOMO)
        62                         -0.3904897             -10.6258 (LUMO)
        63                         -0.3727107             -10.1420
        64                         -0.3417654              -9.2999
        65                         -0.3312442              -9.0136
        66                         -0.3309658              -9.0060
       ...                                ...                  ...
       117                          0.5659431              15.4001
      -------------------------------------------------------------
                  HL-Gap            0.0984250 Eh            2.6783 eV
             Fermi-level           -0.4397022 Eh          -11.9649 eV

 SCC (total)                   0 d,  0 h,  0 min,  0.015 sec
 SCC setup                      ...        0 min,  0.000 sec (  0.668%)
 Dispersion                     ...        0 min,  0.000 sec (  1.788%)
 classical contributions        ...        0 min,  0.000 sec (  0.256%)
 integral evaluation            ...        0 min,  0.002 sec ( 11.984%)
 iterations                     ...        0 min,  0.006 sec ( 38.674%)
 molecular gradient             ...        0 min,  0.007 sec ( 45.741%)
 printout                       ...        0 min,  0.000 sec (  0.782%)

         :::::::::::::::::::::::::::::::::::::::::::::::::::::
         ::                     SUMMARY                     ::
         :::::::::::::::::::::::::::::::::::::::::::::::::::::
         :: total energy             -67.143786770034 Eh    ::
         :: gradient norm              0.000593011576 Eh/a0 ::
         :: HOMO-LUMO gap              2.678281844178 eV    ::
         ::.................................................::
         :: SCC energy               -68.204376841878 Eh    ::
         :: -> isotropic ES            0.102484142116 Eh    ::
         :: -> anisotropic ES         -0.006459600737 Eh    ::
         :: -> anisotropic XC          0.033471553711 Eh    ::
         :: -> dispersion             -0.045596231947 Eh    ::
         :: repulsion energy           1.060590071844 Eh    ::
         :: add. restraining           0.000000000000 Eh    ::
         :: total charge               1.000000000000 e     ::
         :::::::::::::::::::::::::::::::::::::::::::::::::::::

           -------------------------------------------------
          |                Property Printout                |
           -------------------------------------------------

    * Orbital Energies and Occupations

         #    Occupation            Energy/Eh            Energy/eV
      -------------------------------------------------------------
         1        2.0000           -0.8649109             -23.5354
       ...           ...                  ...                  ...
        49        2.0000           -0.5718858             -15.5618
        50        2.0000           -0.5685262             -15.4704
        51        2.0000           -0.5532694             -15.0552
        52        2.0000           -0.5530143             -15.0483
        53        2.0000           -0.5485617             -14.9271
        54        2.0000           -0.5275186             -14.3545
        55        2.0000           -0.5256498             -14.3037
        56        2.0000           -0.5229645             -14.2306
        57        2.0000           -0.5169492             -14.0669
        58        2.0000           -0.5146437             -14.0042
        59        2.0000           -0.5072001             -13.8016
        60        2.0000           -0.5060864             -13.7713
        61        2.0000           -0.4889147             -13.3040 (HOMO)
        62                         -0.3904897             -10.6258 (LUMO)
        63                         -0.3727107             -10.1420
        64                         -0.3417654              -9.2999
        65                         -0.3312442              -9.0136
        66                         -0.3309658              -9.0060
        67                         -0.3251142              -8.8468
        68                         -0.2941884              -8.0053
        69                         -0.2023759              -5.5069
        70                         -0.1908876              -5.1943
        71                         -0.1537678              -4.1842
        72                         -0.1062605              -2.8915
       ...                                ...                  ...
       117                          0.5659431              15.4001
      -------------------------------------------------------------
                  HL-Gap            0.0984250 Eh            2.6783 eV
             Fermi-level           -0.4397022 Eh          -11.9649 eV

     #   Z          covCN         q      C6AA      α(0)
     1   6 C        3.644     0.022    20.542     6.515
     2   8 O        1.706    -0.223    17.693     5.679
     3   6 C        2.865     0.168    24.378     8.093
     4   6 C        2.916    -0.048    29.180     8.858
     5   6 C        2.925    -0.012    28.316     8.727
     6   6 C        2.969    -0.033    28.821     8.806
     7   6 C        2.918    -0.029    28.721     8.788
     8   6 C        2.914    -0.062    29.530     8.911
     9   6 C        2.822     0.222    23.322     7.913
    10   8 O        0.857    -0.378    21.244     6.180
    11   6 C        3.742    -0.045    21.449     6.607
    12   7 N        2.875     0.047    20.423     6.712
    13   6 C        3.049    -0.010    28.215     8.712
    14   6 C        3.048    -0.006    28.118     8.697
    15   7 N        2.876     0.041    20.525     6.729
    16   6 C        3.096     0.118    25.287     8.241
    17   6 C        3.754    -0.129    23.027     6.842
    18   6 C        3.747    -0.024    21.074     6.548
    19   6 C        2.972    -0.001    28.054     8.688
    20   6 C        2.923    -0.035    28.881     8.813
    21   6 C        2.919    -0.022    28.560     8.764
    22   6 C        2.920    -0.022    28.545     8.762
    23   6 C        2.919    -0.024    28.598     8.769
    24   6 C        2.923    -0.037    28.928     8.820
    25   1 H        0.925     0.085     1.927     2.171
    26   1 H        0.924     0.058     2.226     2.333
    27   1 H        0.924     0.058     2.228     2.334
    28   1 H        0.926     0.077     2.014     2.219
    29   1 H        0.926     0.078     2.005     2.214
    30   1 H        0.926     0.042     2.424     2.435
    31   1 H        0.926     0.058     2.225     2.333
    32   1 H        0.925     0.093     1.846     2.125
    33   1 H        0.924     0.088     1.902     2.157
    34   1 H        0.927     0.094     1.840     2.121
    35   1 H        0.927     0.099     1.791     2.093
    36   1 H        0.924     0.115     1.651     2.009
    37   1 H        0.925     0.088     1.903     2.157
    38   1 H        0.925     0.085     1.927     2.171
    39   1 H        0.924     0.082     1.963     2.191
    40   1 H        0.924     0.087     1.910     2.161
    41   1 H        0.926     0.044     2.400     2.423
    42   1 H        0.926     0.055     2.253     2.347
    43   1 H        0.926     0.056     2.247     2.344
    44   1 H        0.926     0.051     2.307     2.375
    45   1 H        0.925     0.028     2.612     2.528

 Mol. C6AA /au·bohr⁶  :      22728.986649
 Mol. C8AA /au·bohr⁸  :     546949.486945
 Mol. α(0) /au        :        237.415270


Wiberg/Mayer (AO) data.
largest (>0.10) Wiberg bond orders for each atom

 ---------------------------------------------------------------------------
     #   Z sym  total        # sym  WBO       # sym  WBO       # sym  WBO
 ---------------------------------------------------------------------------
     1   6 C    3.927 --    25 H    0.977    26 H    0.975    27 H    0.975
                             2 O    0.968
     2   8 O    2.301 --     3 C    1.144     1 C    0.968
     3   6 C    3.938 --     8 C    1.320     4 C    1.301     2 O    1.144
     4   6 C    3.986 --     5 C    1.531     3 C    1.301    28 H    0.964
     5   6 C    3.984 --     4 C    1.531     6 C    1.307    29 H    0.963
     6   6 C    3.981 --     7 C    1.341     5 C    1.307     9 C    1.110
     7   6 C    3.991 --     8 C    1.500     6 C    1.341    30 H    0.966
     8   6 C    3.988 --     7 C    1.500     3 C    1.320    31 H    0.964
     9   6 C    3.926 --    10 O    1.775     6 C    1.110    11 C    0.920
    10   8 O    2.058 --     9 C    1.775
    11   6 C    3.948 --    12 N    0.993    32 H    0.957    33 H    0.946
                             9 C    0.920
    12   7 N    3.686 --    16 C    1.311    13 C    1.198    11 C    0.993
    13   6 C    3.948 --    14 C    1.618    12 N    1.198    34 H    0.963
    14   6 C    3.951 --    13 C    1.618    15 N    1.206    35 H    0.962
    15   7 N    3.691 --    16 C    1.331    14 C    1.206    18 C    0.962
    16   6 C    3.950 --    15 N    1.331    12 N    1.311    17 C    1.047
    17   6 C    3.979 --    16 C    1.047    38 H    0.969    37 H    0.960
                            36 H    0.941
    18   6 C    3.941 --    19 C    0.991    15 N    0.962    39 H    0.955
                            40 H    0.953
    19   6 C    3.980 --    20 C    1.419    24 C    1.409    18 C    0.991
                            22 C    0.109
    20   6 C    3.990 --    21 C    1.438    19 C    1.419    41 H    0.968
                            23 C    0.110
    21   6 C    3.990 --    22 C    1.444    20 C    1.438    42 H    0.969
                            24 C    0.112
    22   6 C    3.990 --    21 C    1.444    23 C    1.435    43 H    0.969
                            19 C    0.109
    23   6 C    3.991 --    24 C    1.449    22 C    1.435    44 H    0.970
                            20 C    0.110
    24   6 C    3.992 --    23 C    1.449    19 C    1.409    45 H    0.970
                            21 C    0.112
    25   1 H    0.992 --     1 C    0.977
    26   1 H    0.995 --     1 C    0.975
    27   1 H    0.995 --     1 C    0.975
    28   1 H    0.993 --     4 C    0.964
    29   1 H    0.993 --     5 C    0.963
    30   1 H    0.998 --     7 C    0.966
    31   1 H    0.996 --     8 C    0.964
    32   1 H    0.991 --    11 C    0.957
    33   1 H    0.991 --    11 C    0.946
    34   1 H    0.991 --    13 C    0.963
    35   1 H    0.989 --    14 C    0.962
    36   1 H    0.987 --    17 C    0.941
    37   1 H    0.992 --    17 C    0.960
    38   1 H    0.992 --    17 C    0.969
    39   1 H    0.993 --    18 C    0.955
    40   1 H    0.992 --    18 C    0.953
    41   1 H    0.998 --    20 C    0.968
    42   1 H    0.997 --    21 C    0.969
    43   1 H    0.996 --    22 C    0.969
    44   1 H    0.997 --    23 C    0.970
    45   1 H    0.999 --    24 C    0.970
 ---------------------------------------------------------------------------

Topologies differ in total number of bonds
Writing topology from bond orders to xtbtopo.mol

molecular dipole:
                 x           y           z       tot (Debye)
 q only:        7.137     -10.008       5.747
   full:        7.377      -9.752       5.680      34.270
molecular quadrupole (traceless):
                xx          xy          yy          xz          yz          zz
 q only:      -42.578    -140.005     116.222      60.653     -91.861     -73.643
  q+dip:      -36.110    -137.790     112.241      62.575     -87.408     -76.131
   full:      -38.389    -137.829     110.346      63.082     -88.568     -71.957

           -------------------------------------------------
          |                Geometry Summary                 |
           -------------------------------------------------

      molecular mass/u    :      321.3936900
   center of mass at/Å    :        3.0880313      -5.3631365       2.9900444
  moments of inertia/u·Å² :        0.4346812E+03   0.7002606E+04   0.7123436E+04
rotational constants/cm⁻¹ :        0.3878160E-01   0.2407337E-02   0.2366503E-02

 * 44 selected distances

     #   Z          #   Z                                           value/Å
     1   6 C        2   8 O                                       1.4136819
     2   8 O        3   6 C                                       1.3345733
     3   6 C        4   6 C                                       1.4051402
     4   6 C        5   6 C                                       1.3682794
     5   6 C        6   6 C                                       1.4071041
     6   6 C        7   6 C                                       1.3996280
     3   6 C        8   6 C                                       1.4008389
     7   6 C        8   6 C                                       1.3766592
     9   6 C       10   8 O                                       1.2131520
    11   6 C       12   7 N                                       1.4353533
    12   7 N       13   6 C                                       1.3671180
    13   6 C       14   6 C                                       1.3549970
    14   6 C       15   7 N                                       1.3661524
    12   7 N       16   6 C                                       1.3412043
    15   7 N       16   6 C                                       1.3373865
    16   6 C       17   6 C                                       1.4769808 (max)
    15   7 N       18   6 C                                       1.4505221
    19   6 C       20   6 C                                       1.3875487
    20   6 C       21   6 C                                       1.3847066
    21   6 C       22   6 C                                       1.3841065
    22   6 C       23   6 C                                       1.3854527
    19   6 C       24   6 C                                       1.3902698
    23   6 C       24   6 C                                       1.3829388
     1   6 C       25   1 H                                       1.0881709
     1   6 C       26   1 H                                       1.0931785
     1   6 C       27   1 H                                       1.0932747
     4   6 C       28   1 H                                       1.0778957
     5   6 C       29   1 H                                       1.0790379
     7   6 C       30   1 H                                       1.0790938
     8   6 C       31   1 H                                       1.0782455
    11   6 C       32   1 H                                       1.0899295
    11   6 C       33   1 H                                       1.0928213
    13   6 C       34   1 H                                       1.0701200 (min)
    14   6 C       35   1 H                                       1.0701502
    17   6 C       36   1 H                                       1.0908080
    17   6 C       37   1 H                                       1.0880929
    17   6 C       38   1 H                                       1.0861976
    18   6 C       39   1 H                                       1.0917195
    18   6 C       40   1 H                                       1.0942436
    20   6 C       41   1 H                                       1.0802116
    21   6 C       42   1 H                                       1.0788520
    22   6 C       43   1 H                                       1.0785819
    23   6 C       44   1 H                                       1.0788924
    24   6 C       45   1 H                                       1.0814096

 * 4 distinct bonds (by element types)

   Z      Z             #   av. dist./Å        max./Å        min./Å
   1 H    6 C          21     1.0838537     1.0942436     1.0701200
   6 C    6 C          14     1.3931893     1.4769808     1.3549970
   6 C    7 N           6     1.3829561     1.4505221     1.3373865
   6 C    8 O           3     1.3204691     1.4136819     1.2131520


optimized geometry written to: xtbopt.xyz


           -------------------------------------------------
          | TOTAL ENERGY              -67.143786770034 Eh   |
          | GRADIENT NORM               0.000593011576 Eh/α |
          | HOMO-LUMO GAP               2.678281844178 eV   |
           -------------------------------------------------

------------------------------------------------------------------------
 * finished run on 2024/12/20 at 06:49:53.470     
------------------------------------------------------------------------
 total:
 * wall-time:     0 d,  0 h,  0 min,  3.403 sec
 *  cpu-time:     0 d,  0 h,  0 min, 26.912 sec
 * ratio c/w:     7.909 speedup
 SCF:
 * wall-time:     0 d,  0 h,  0 min,  0.036 sec
 *  cpu-time:     0 d,  0 h,  0 min,  0.287 sec
 * ratio c/w:     7.965 speedup
 ANC optimizer:
 * wall-time:     0 d,  0 h,  0 min,  3.348 sec
 *  cpu-time:     0 d,  0 h,  0 min, 26.494 sec
 * ratio c/w:     7.913 speedup

