      -----------------------------------------------------------      
     |                   =====================                   |     
     |                           x T B                           |     
     |                   =====================                   |     
     |                         S. Grimme                         |     
     |          Mulliken Center for Theoretical Chemistry        |     
     |                    University of Bonn                     |     
      -----------------------------------------------------------      

   * xtb version 6.7.1 (edcfbbe) compiled by 'conda@3ef47c1a292c' on 2024-11-25

   xtb is free software: you can redistribute it and/or modify it under
   the terms of the GNU Lesser General Public License as published by
   the Free Software Foundation, either version 3 of the License, or
   (at your option) any later version.
   
   xtb is distributed in the hope that it will be useful,
   but WITHOUT ANY WARRANTY; without even the implied warranty of
   MERCHANTABILITY or FITNESS FOR A PARTICULAR PURPOSE.  See the
   GNU Lesser General Public License for more details.
   
   Cite this work as:
   * C. Bannwarth, E. Caldeweyher, S. Ehlert, A. Hansen, P. Pracht,
     J. Seibert, S. Spicher, S. Grimme, WIREs Comput. Mol. Sci., 2020, 11,
     e01493. DOI: 10.1002/wcms.1493
   
   for GFN2-xTB:
   * C. Bannwarth, S. Ehlert and S. Grimme., J. Chem. Theory Comput., 2019,
     15, 1652-1671. DOI: 10.1021/acs.jctc.8b01176
   for GFN1-xTB:
   * S. Grimme, C. Bannwarth, P. Shushkov, J. Chem. Theory Comput., 2017,
     13, 1989-2009. DOI: 10.1021/acs.jctc.7b00118
   for GFN0-xTB:
   * P. Pracht, E. Caldeweyher, S. Ehlert, S. Grimme, ChemRxiv, 2019, preprint.
     DOI: 10.26434/chemrxiv.8326202.v1
   for GFN-FF:
   * S. Spicher and S. Grimme, Angew. Chem. Int. Ed., 2020, 59, 15665-15673.
     DOI: 10.1002/anie.202004239
   
   for ALPB and GBSA implicit solvation:
   * S. Ehlert, M. Stahn, S. Spicher, S. Grimme, J. Chem. Theory Comput.,
     2021, 17, 4250-4261. DOI: 10.1021/acs.jctc.1c00471
   
   for ddCOSMO and CPCM-X implicit solvation:
   * M. Stahn, S. Ehlert, S. Grimme, J. Phys. Chem. A,
     2023, XX, XXXX-XXXX. DOI: 10.1021/acs.jpca.3c04382
   
   for DFT-D4:
   * E. Caldeweyher, C. Bannwarth and S. Grimme, J. Chem. Phys., 2017,
     147, 034112. DOI: 10.1063/1.4993215
   * E. Caldeweyher, S. Ehlert, A. Hansen, H. Neugebauer, S. Spicher,
     C. Bannwarth and S. Grimme, J. Chem. Phys., 2019, 150, 154122.
     DOI: 10.1063/1.5090222
   * E. Caldeweyher, J.-M. Mewes, S. Ehlert and S. Grimme, Phys. Chem. Chem. Phys.
     2020, 22, 8499-8512. DOI: 10.1039/D0CP00502A
   
   for sTDA-xTB:
   * S. Grimme and C. Bannwarth, J. Chem. Phys., 2016, 145, 054103.
     DOI: 10.1063/1.4959605
   
   in the mass-spec context:
   * V. Asgeirsson, C. Bauer and S. Grimme, Chem. Sci., 2017, 8, 4879.
     DOI: 10.1039/c7sc00601b
   * J. Koopman and S. Grimme, ACS Omega 2019, 4, 12, 15120-15133.
     DOI: 10.1021/acsomega.9b02011
   
   for metadynamics refer to:
   * S. Grimme, J. Chem. Theory Comput., 2019, 155, 2847-2862
     DOI: 10.1021/acs.jctc.9b00143
   
   for SPH calculations refer to:
   * S. Spicher and S. Grimme, J. Chem. Theory Comput., 2021, 17, 1701-1714
     DOI: 10.1021/acs.jctc.0c01306
   
   for ONIOM refer to:
   * C. Plett, A. Katbashev, S. Ehlert, S. Grimme, M. Bursch,
     Phys. Chem. Chem. Phys., 2023, 25, 17860-17868. DOI: 10.1039/D3CP02178E
   
   for DIPRO refer to:
   * J. Kohn, N. Gildemeister, S. Grimme, D. Fazzi, A. Hansen,
     J. Chem. Phys., 2023, just accepted.
   
   for PTB refer to:
   * S. Grimme, M. Mueller, A. Hansen, J. Chem. Phys., 2023, 158, 124111.
     DOI: 10.1063/5.0137838
   
   with help from (in alphabetical order)
   P. Atkinson, C. Bannwarth, F. Bohle, G. Brandenburg, E. Caldeweyher
   M. Checinski, S. Dohm, S. Ehlert, S. Ehrlich, I. Gerasimov, C. Hölzer
   A. Katbashev, J. Kohn, J. Koopman, C. Lavigne, S. Lehtola, F. März, M. Müller,
   F. Musil, H. Neugebauer, J. Pisarek, C. Plett, P. Pracht, F. Pultar,
   J. Seibert, P. Shushkov, S. Spicher, M. Stahn, M. Steiner, T. Strunk,
   J. Stückrath, T. Rose, and J. Unsleber
   
 * started run on 2024/12/20 at 06:49:59.756     
   ID    Z sym.   atoms
    1    6 C      1-3, 5-13
    2    7 N      4
    3    1 H      14-41

           -------------------------------------------------
          |                Calculation Setup                |
           -------------------------------------------------

          program call               : xtb C0599.xyz --opt --namespace C0599 --charge +1
          calculation namespace      : C0599
          coordinate file            : C0599.xyz
          omp threads                :                     8


           -------------------------------------------------
          |                 G F N 2 - x T B                 |
           -------------------------------------------------

        Reference                      10.1021/acs.jctc.8b01176
      * Hamiltonian:
        H0-scaling (s, p, d)           1.850000    2.230000    2.230000
        zeta-weighting                 0.500000
      * Dispersion:
        s8                             2.700000
        a1                             0.520000
        a2                             5.000000
        s9                             5.000000
      * Repulsion:
        kExp                           1.500000    1.000000
        rExp                           1.000000
      * Coulomb:
        alpha                          2.000000
        third order                    shell-resolved
        anisotropic                    true
        a3                             3.000000
        a5                             4.000000
        cn-shift                       1.200000
        cn-exp                         4.000000
        max-rad                        5.000000


          ...................................................
          :                      SETUP                      :
          :.................................................:
          :  # basis functions                  80          :
          :  # atomic orbitals                  80          :
          :  # shells                           54          :
          :  # electrons                        80          :
          :  max. iterations                   250          :
          :  Hamiltonian                  GFN2-xTB          :
          :  restarted?                      false          :
          :  GBSA solvation                  false          :
          :  PC potential                    false          :
          :  electronic temp.          300.0000000     K    :
          :  accuracy                    1.0000000          :
          :  -> integral cutoff          0.2500000E+02      :
          :  -> integral neglect         0.1000000E-07      :
          :  -> SCF convergence          0.1000000E-05 Eh   :
          :  -> wf. convergence          0.1000000E-03 e    :
          :  Broyden damping             0.4000000          :
          :  net charge                          1          :
          :  unpaired electrons                  0          :
          ...................................................

 iter      E             dE          RMSdq      gap      omega  full diag
   1    -42.9422155 -0.429422E+02  0.248E+00    8.84       0.0  T
   2    -43.0785566 -0.136341E+00  0.172E+00    7.38       1.0  T
   3    -43.0814898 -0.293320E-02  0.981E-01    7.47       1.0  T
   4    -43.0819991 -0.509262E-03  0.157E-01    7.36       1.0  T
   5    -43.0820676 -0.685310E-04  0.613E-02    7.38       1.0  T
   6    -43.0820671  0.530969E-06  0.138E-02    7.39       1.1  T
   7    -43.0820695 -0.240996E-05  0.250E-03    7.39       6.2  T
   8    -43.0820695 -0.303536E-07  0.737E-04    7.39      21.2  T
   9    -43.0820695 -0.431975E-08  0.186E-04    7.39      83.8  T

   *** convergence criteria satisfied after 9 iterations ***

         #    Occupation            Energy/Eh            Energy/eV
      -------------------------------------------------------------
         1        2.0000           -0.8278491             -22.5269
       ...           ...                  ...                  ...
        34        2.0000           -0.5731159             -15.5953
        35        2.0000           -0.5715424             -15.5525
        36        2.0000           -0.5673764             -15.4391
        37        2.0000           -0.5654009             -15.3853
        38        2.0000           -0.5640976             -15.3499
        39        2.0000           -0.5633394             -15.3292
        40        2.0000           -0.5596712             -15.2294 (HOMO)
        41                         -0.2881188              -7.8401 (LUMO)
        42                         -0.2235353              -6.0827
        43                         -0.2094992              -5.7008
        44                         -0.1870845              -5.0908
        45                         -0.0773706              -2.1054
       ...                                ...                  ...
        80                          0.1899364               5.1684
      -------------------------------------------------------------
                  HL-Gap            0.2715524 Eh            7.3893 eV
             Fermi-level           -0.4238950 Eh          -11.5348 eV

 SCC (total)                   0 d,  0 h,  0 min,  0.020 sec
 SCC setup                      ...        0 min,  0.000 sec (  0.658%)
 Dispersion                     ...        0 min,  0.000 sec (  2.050%)
 classical contributions        ...        0 min,  0.000 sec (  0.504%)
 integral evaluation            ...        0 min,  0.002 sec (  7.889%)
 iterations                     ...        0 min,  0.012 sec ( 63.064%)
 molecular gradient             ...        0 min,  0.005 sec ( 25.188%)
 printout                       ...        0 min,  0.000 sec (  0.568%)

         :::::::::::::::::::::::::::::::::::::::::::::::::::::
         ::                     SUMMARY                     ::
         :::::::::::::::::::::::::::::::::::::::::::::::::::::
         :: total energy             -42.494244428549 Eh    ::
         :: gradient norm              0.059720047942 Eh/a0 ::
         :: HOMO-LUMO gap              7.389317590967 eV    ::
         ::.................................................::
         :: SCC energy               -43.081329071890 Eh    ::
         :: -> isotropic ES            0.074924284066 Eh    ::
         :: -> anisotropic ES         -0.002595220202 Eh    ::
         :: -> anisotropic XC          0.028821612265 Eh    ::
         :: -> dispersion             -0.032409141139 Eh    ::
         :: repulsion energy           0.587084643341 Eh    ::
         :: add. restraining           0.000000000000 Eh    ::
         :: total charge               1.000000000000 e     ::
         :::::::::::::::::::::::::::::::::::::::::::::::::::::

      ----------------------------------------------------------- 
     |                   =====================                   |
     |                        A N C O P T                        |
     |                   =====================                   |
     |               Approximate Normal Coordinate               |
     |                Rational Function Optimizer                |
      ----------------------------------------------------------- 
      ----------------------------------------------------------- 
     |                   =====================                   |
     |                        A N C O P T                        |
     |                   =====================                   |
     |               Approximate Normal Coordinate               |
     |                Rational Function Optimizer                |
      ----------------------------------------------------------- 

          ...................................................
          :                      SETUP                      :
          :.................................................:
          :   optimization level            normal          :
          :   max. optcycles                   200          :
          :   ANC micro-cycles                  20          :
          :   degrees of freedom               117          :
          :.................................................:
          :   RF solver                   davidson          :
          :   write xtbopt.log                true          :
          :   linear?                        false          :
          :   energy convergence         0.5000000E-05 Eh   :
          :   grad. convergence          0.1000000E-02 Eh/α :
          :   maxmium RF displ.          1.0000000          :
          :   Hlow (freq-cutoff)         0.1000000E-01      :
          :   Hmax (freq-cutoff)         5.0000000          :
          :   S6 in model hess.         20.0000000          :
          ...................................................

generating ANC from exact Hessian ...
Using Lindh-Hessian (1995)
 Shifting diagonal of input Hessian by    9.2449690558184788E-003
 Lowest  eigenvalues of input Hessian
    0.000000    0.000000    0.000000    0.000000    0.000000    0.000000
    0.010000    0.010249    0.010328    0.010414    0.010876    0.011399
    0.011659    0.011853    0.012250    0.013254    0.014307    0.015480
 Highest eigenvalues
    1.219459    1.235444    1.249818    1.256287    1.291747    1.297867


........................................................................
.............................. CYCLE    1 ..............................
........................................................................

 iter      E             dE          RMSdq      gap      omega  full diag
   1    -43.0820695 -0.430821E+02  0.453E-05    7.39       0.0  T
   2    -43.0820695 -0.109708E-10  0.266E-05    7.39     587.7  T
   3    -43.0820695 -0.525802E-12  0.121E-05    7.39    1292.3  T
     SCC iter.                  ...        0 min,  0.004 sec
     gradient                   ...        0 min,  0.005 sec
 * total energy  :   -42.4942444 Eh     change       -0.6408385E-10 Eh
   gradient norm :     0.0597192 Eh/α   predicted     0.0000000E+00 (-100.00%)
   displ. norm   :     0.3267349 α      lambda       -0.1146222E-01
   maximum displ.:     0.1618180 α      in ANC's #30, #28, #45, ...

........................................................................
.............................. CYCLE    2 ..............................
........................................................................

 iter      E             dE          RMSdq      gap      omega  full diag
   1    -43.1084703 -0.431085E+02  0.178E-01    8.13       0.0  T
   2    -43.1087123 -0.241976E-03  0.108E-01    8.09       1.0  T
   3    -43.1087195 -0.723709E-05  0.500E-02    8.09       1.0  T
   4    -43.1087212 -0.168637E-05  0.426E-03    8.09       3.7  T
   5    -43.1087213 -0.423208E-07  0.205E-03    8.09       7.6  T
   6    -43.1087213 -0.109132E-07  0.316E-04    8.09      49.5  T
   7    -43.1087213 -0.468233E-09  0.145E-04    8.09     107.7  T
     SCC iter.                  ...        0 min,  0.007 sec
     gradient                   ...        0 min,  0.005 sec
 * total energy  :   -42.5020509 Eh     change       -0.7806487E-02 Eh
   gradient norm :     0.0289438 Eh/α   predicted    -0.6343180E-02 ( -18.74%)
   displ. norm   :     0.2943167 α      lambda       -0.3953051E-02
   maximum displ.:     0.1049590 α      in ANC's #19, #14, #20, ...

........................................................................
.............................. CYCLE    3 ..............................
........................................................................

 iter      E             dE          RMSdq      gap      omega  full diag
   1    -43.1218495 -0.431218E+02  0.113E-01    8.86       0.0  T
   2    -43.1220360 -0.186489E-03  0.721E-02    8.82       1.0  T
   3    -43.1220390 -0.301086E-05  0.401E-02    8.82       1.0  T
   4    -43.1220394 -0.370894E-06  0.295E-03    8.82       5.3  T
   5    -43.1220394 -0.337686E-07  0.148E-03    8.82      10.6  T
   6    -43.1220394 -0.476157E-08  0.227E-04    8.82      68.8  T
   7    -43.1220394 -0.142727E-09  0.954E-05    8.82     163.7  T
     SCC iter.                  ...        0 min,  0.007 sec
     gradient                   ...        0 min,  0.005 sec
 * total energy  :   -42.5041115 Eh     change       -0.2060564E-02 Eh
   gradient norm :     0.0052997 Eh/α   predicted    -0.2149923E-02 (   4.34%)
   displ. norm   :     0.0960895 α      lambda       -0.2120454E-03
   maximum displ.:     0.0455602 α      in ANC's #3, #19, #14, ...

........................................................................
.............................. CYCLE    4 ..............................
........................................................................

 iter      E             dE          RMSdq      gap      omega  full diag
   1    -43.1211065 -0.431211E+02  0.289E-02    8.86       0.0  T
   2    -43.1211074 -0.884253E-06  0.166E-02    8.86       1.0  T
   3    -43.1211074 -0.453034E-07  0.255E-03    8.86       6.1  T
   4    -43.1211075 -0.203272E-07  0.498E-04    8.86      31.3  T
   5    -43.1211075 -0.359613E-09  0.189E-04    8.86      82.5  T
     SCC iter.                  ...        0 min,  0.006 sec
     gradient                   ...        0 min,  0.005 sec
 * total energy  :   -42.5042637 Eh     change       -0.1522168E-03 Eh
   gradient norm :     0.0023095 Eh/α   predicted    -0.1076953E-03 ( -29.25%)
   displ. norm   :     0.1388881 α      lambda       -0.1427146E-03
   maximum displ.:     0.0801041 α      in ANC's #3, #19, #14, ...

........................................................................
.............................. CYCLE    5 ..............................
........................................................................

 iter      E             dE          RMSdq      gap      omega  full diag
   1    -43.1199910 -0.431200E+02  0.276E-02    8.87       0.0  T
   2    -43.1199914 -0.351176E-06  0.162E-02    8.88       1.0  T
   3    -43.1199914 -0.303676E-07  0.134E-03    8.88      11.6  T
   4    -43.1199914 -0.190312E-07  0.458E-04    8.88      34.1  T
   5    -43.1199914 -0.416811E-09  0.149E-04    8.88     104.5  T
     SCC iter.                  ...        0 min,  0.005 sec
     gradient                   ...        0 min,  0.005 sec
 * total energy  :   -42.5043584 Eh     change       -0.9469652E-04 Eh
   gradient norm :     0.0020244 Eh/α   predicted    -0.7273394E-04 ( -23.19%)
   displ. norm   :     0.1228753 α      lambda       -0.6877196E-04
   maximum displ.:     0.0717384 α      in ANC's #3, #4, #8, ...

........................................................................
.............................. CYCLE    6 ..............................
........................................................................

 iter      E             dE          RMSdq      gap      omega  full diag
   1    -43.1197961 -0.431198E+02  0.193E-02    8.88       0.0  T
   2    -43.1197963 -0.127194E-06  0.114E-02    8.88       1.4  T
   3    -43.1197963 -0.260283E-08  0.891E-04    8.88      17.5  T
   4    -43.1197963 -0.168955E-07  0.291E-04    8.88      53.7  T
     SCC iter.                  ...        0 min,  0.004 sec
     gradient                   ...        0 min,  0.005 sec
 * total energy  :   -42.5044126 Eh     change       -0.5417727E-04 Eh
   gradient norm :     0.0022804 Eh/α   predicted    -0.3490527E-04 ( -35.57%)
   displ. norm   :     0.1723498 α      lambda       -0.8105824E-04
   maximum displ.:     0.0940933 α      in ANC's #3, #4, #8, ...

........................................................................
.............................. CYCLE    7 ..............................
........................................................................

 iter      E             dE          RMSdq      gap      omega  full diag
   1    -43.1200273 -0.431200E+02  0.259E-02    8.87       0.0  T
   2    -43.1200275 -0.260313E-06  0.153E-02    8.87       1.0  T
   3    -43.1200275  0.962785E-11  0.125E-03    8.87      12.5  T
   4    -43.1200276 -0.308785E-07  0.360E-04    8.87      43.4  T
   5    -43.1200276 -0.296076E-09  0.151E-04    8.87     103.6  T
     SCC iter.                  ...        0 min,  0.005 sec
     gradient                   ...        0 min,  0.005 sec
 * total energy  :   -42.5044721 Eh     change       -0.5951849E-04 Eh
   gradient norm :     0.0017045 Eh/α   predicted    -0.4173430E-04 ( -29.88%)
   displ. norm   :     0.2480463 α      lambda       -0.5302217E-04
   maximum displ.:     0.1260348 α      in ANC's #3, #4, #8, ...

........................................................................
.............................. CYCLE    8 ..............................
........................................................................

 iter      E             dE          RMSdq      gap      omega  full diag
   1    -43.1204352 -0.431204E+02  0.381E-02    8.86       0.0  T
   2    -43.1204355 -0.302016E-06  0.225E-02    8.86       1.0  T
   3    -43.1204355 -0.335743E-07  0.115E-03    8.86      13.6  T
   4    -43.1204355 -0.166277E-07  0.493E-04    8.86      31.7  T
   5    -43.1204355 -0.432721E-09  0.169E-04    8.86      92.5  T
     SCC iter.                  ...        0 min,  0.005 sec
     gradient                   ...        0 min,  0.005 sec
 * total energy  :   -42.5045161 Eh     change       -0.4397715E-04 Eh
   gradient norm :     0.0014778 Eh/α   predicted    -0.2723662E-04 ( -38.07%)
   displ. norm   :     0.0931010 α      lambda       -0.2219133E-04
   maximum displ.:     0.0517796 α      in ANC's #6, #4, #7, ...

........................................................................
.............................. CYCLE    9 ..............................
........................................................................

 iter      E             dE          RMSdq      gap      omega  full diag
   1    -43.1209724 -0.431210E+02  0.158E-02    8.87       0.0  T
   2    -43.1209725 -0.556612E-07  0.929E-03    8.86       1.7  T
   3    -43.1209725 -0.223530E-08  0.647E-04    8.86      24.1  T
   4    -43.1209725 -0.767695E-08  0.220E-04    8.86      70.9  T
     SCC iter.                  ...        0 min,  0.004 sec
     gradient                   ...        0 min,  0.005 sec
 * total energy  :   -42.5045440 Eh     change       -0.2788582E-04 Eh
   gradient norm :     0.0011155 Eh/α   predicted    -0.1114168E-04 ( -60.05%)
   displ. norm   :     0.2062824 α      lambda       -0.4479841E-04
   maximum displ.:     0.1191937 α      in ANC's #6, #7, #4, ...

........................................................................
.............................. CYCLE   10 ..............................
........................................................................

 iter      E             dE          RMSdq      gap      omega  full diag
   1    -43.1208140 -0.431208E+02  0.347E-02    8.87       0.0  T
   2    -43.1208143 -0.279417E-06  0.205E-02    8.87       1.0  T
   3    -43.1208143 -0.203445E-08  0.150E-03    8.87      10.4  T
   4    -43.1208144 -0.481121E-07  0.489E-04    8.87      31.9  T
   5    -43.1208144 -0.316611E-09  0.983E-05    8.87     158.9  T
     SCC iter.                  ...        0 min,  0.005 sec
     gradient                   ...        0 min,  0.005 sec
 * total energy  :   -42.5045885 Eh     change       -0.4455289E-04 Eh
   gradient norm :     0.0014448 Eh/α   predicted    -0.2282649E-04 ( -48.77%)
   displ. norm   :     0.1611364 α      lambda       -0.2150679E-04
   maximum displ.:     0.0896957 α      in ANC's #6, #7, #4, ...

........................................................................
.............................. CYCLE   11 ..............................
........................................................................

 iter      E             dE          RMSdq      gap      omega  full diag
   1    -43.1202058 -0.431202E+02  0.272E-02    8.87       0.0  T
   2    -43.1202060 -0.138017E-06  0.160E-02    8.87       1.0  T
   3    -43.1202060 -0.185097E-07  0.906E-04    8.87      17.2  T
   4    -43.1202060 -0.983906E-08  0.396E-04    8.87      39.4  T
     SCC iter.                  ...        0 min,  0.005 sec
     gradient                   ...        0 min,  0.005 sec
 * total energy  :   -42.5046075 Eh     change       -0.1900534E-04 Eh
   gradient norm :     0.0014143 Eh/α   predicted    -0.1088512E-04 ( -42.73%)
   displ. norm   :     0.0940658 α      lambda       -0.1073757E-04
   maximum displ.:     0.0514378 α      in ANC's #7, #6, #4, ...

........................................................................
.............................. CYCLE   12 ..............................
........................................................................

 iter      E             dE          RMSdq      gap      omega  full diag
   1    -43.1209170 -0.431209E+02  0.163E-02    8.86       0.0  T
   2    -43.1209170 -0.572378E-07  0.960E-03    8.86       1.6  T
   3    -43.1209170 -0.499294E-08  0.633E-04    8.86      24.7  T
   4    -43.1209170 -0.614545E-08  0.250E-04    8.86      62.5  T
     SCC iter.                  ...        0 min,  0.004 sec
     gradient                   ...        0 min,  0.005 sec
 * total energy  :   -42.5046182 Eh     change       -0.1067973E-04 Eh
   gradient norm :     0.0004960 Eh/α   predicted    -0.5392508E-05 ( -49.51%)
   displ. norm   :     0.0988056 α      lambda       -0.7168489E-05
   maximum displ.:     0.0523944 α      in ANC's #7, #4, #5, ...

........................................................................
.............................. CYCLE   13 ..............................
........................................................................

 iter      E             dE          RMSdq      gap      omega  full diag
   1    -43.1208429 -0.431208E+02  0.170E-02    8.86       0.0  T
   2    -43.1208430 -0.429345E-07  0.101E-02    8.86       1.6  T
   3    -43.1208430 -0.512686E-08  0.522E-04    8.86      29.9  T
   4    -43.1208430 -0.470571E-08  0.226E-04    8.86      69.2  T
     SCC iter.                  ...        0 min,  0.016 sec
     gradient                   ...        0 min,  0.009 sec
 * total energy  :   -42.5046258 Eh     change       -0.7604530E-05 Eh
   gradient norm :     0.0006325 Eh/α   predicted    -0.3600081E-05 ( -52.66%)
   displ. norm   :     0.0732036 α      lambda       -0.5860246E-05
   maximum displ.:     0.0403254 α      in ANC's #7, #5, #4, ...

........................................................................
.............................. CYCLE   14 ..............................
........................................................................

 iter      E             dE          RMSdq      gap      omega  full diag
   1    -43.1211732 -0.431212E+02  0.118E-02    8.86       0.0  T
   2    -43.1211732 -0.175686E-07  0.701E-03    8.86       2.2  T
   3    -43.1211732 -0.321728E-08  0.357E-04    8.86      43.8  T
   4    -43.1211732 -0.175839E-08  0.171E-04    8.86      91.5  T
     SCC iter.                  ...        0 min,  0.010 sec
     gradient                   ...        0 min,  0.007 sec
 * total energy  :   -42.5046322 Eh     change       -0.6441414E-05 Eh
   gradient norm :     0.0006795 Eh/α   predicted    -0.2938696E-05 ( -54.38%)
   displ. norm   :     0.0827608 α      lambda       -0.4827800E-05
   maximum displ.:     0.0452003 α      in ANC's #7, #5, #4, ...

........................................................................
.............................. CYCLE   15 ..............................
........................................................................

 iter      E             dE          RMSdq      gap      omega  full diag
   1    -43.1209716 -0.431210E+02  0.132E-02    8.86       0.0  T
   2    -43.1209716 -0.167033E-07  0.789E-03    8.86       2.0  T
   3    -43.1209716 -0.432199E-08  0.326E-04    8.86      48.0  T
   4    -43.1209716 -0.103250E-08  0.169E-04    8.86      92.4  T
     SCC iter.                  ...        0 min,  0.004 sec
     gradient                   ...        0 min,  0.008 sec
 * total energy  :   -42.5046369 Eh     change       -0.4710885E-05 Eh
   gradient norm :     0.0004351 Eh/α   predicted    -0.2422823E-05 ( -48.57%)
   displ. norm   :     0.0369174 α      lambda       -0.1492038E-05
   maximum displ.:     0.0170796 α      in ANC's #7, #5, #4, ...

   *** GEOMETRY OPTIMIZATION CONVERGED AFTER 15 ITERATIONS ***

------------------------------------------------------------------------
 total energy gain   :        -0.0103925 Eh       -6.5214 kcal/mol
 total RMSD          :         0.2383116 a0        0.1261 Å
 total power (kW/mol):        -1.8190368 (step) -102.8788 (real)
------------------------------------------------------------------------

 ANCopt (total)                0 d,  0 h,  0 min,  0.265 sec
 optimizer setup                ...        0 min,  0.000 sec (  0.030%)
 model hessian                  ...        0 min,  0.057 sec ( 21.567%)
 ANC generation                 ...        0 min,  0.001 sec (  0.408%)
 coordinate transformation      ...        0 min,  0.000 sec (  0.109%)
 single point calculation       ...        0 min,  0.202 sec ( 75.992%)
 optimization log               ...        0 min,  0.002 sec (  0.618%)
 hessian update                 ...        0 min,  0.001 sec (  0.515%)
 rational function              ...        0 min,  0.001 sec (  0.522%)

================
 final structure:
================
41
 xtb: 6.7.1 (edcfbbe)
C            0.30960010508745       -1.16403348057462       -0.40856123768402
C            0.39356323744729       -1.92801908485908        0.90957074594618
C            1.28214310741833       -1.34348922148430        2.01419315814949
N            0.84694200062296       -0.09640849391797        2.71881326570185
C           -0.62986649028832       -0.11783970273488        2.98884076860461
C           -1.17013006362562       -1.33280644968386        3.76300990520767
C           -1.93992354281334       -0.90591624424063        5.01069687450876
C            1.53448504081247        0.03272129987890        4.04829807914519
C            2.97299600266068       -0.47192274459905        4.18098009661690
C            3.52118153981232       -0.04405706525030        5.54062076709650
C            1.08680709376229        1.13048266027153        1.88152611798543
C            2.49869449273086        1.71070876615451        1.74221490070856
C            3.44592383330435        0.99716532877818        0.78230311927396
H           -0.34761880906872       -0.29875371242161       -0.35540272305940
H           -0.10123512124328       -1.82279373160298       -1.16926035089815
H            1.29453081534061       -0.85079364814702       -0.74534370891925
H           -0.61008505805378       -2.13016860289457        1.27889372980692
H            0.84421485209903       -2.89977482087005        0.69366783707494
H            1.37882113828378       -2.11829332927782        2.77495401105771
H            2.26901397369379       -1.15121710530363        1.59949952783911
H           -0.85625095538399        0.78244137819614        3.56477046591191
H           -1.13761877525312       -0.02876410163724        2.02876561599456
H           -1.84557793793166       -1.90426065576829        3.12584082871808
H           -0.36906007193936       -2.01014229415961        4.05743736561272
H           -2.78225331182330       -0.27358216732591        4.74320360354891
H           -2.32783966946714       -1.78110270478770        5.52364660984243
H           -1.30596144308252       -0.35990275743644        5.70597055255154
H            1.50157468266578        1.09068088229899        4.31749766091379
H            0.93951012678444       -0.50934817890265        4.78348565266968
H            3.00788969248820       -1.56015493435251        4.12346330258280
H            3.62034882799022       -0.07468451339495        3.40300210587813
H            2.90619992524231       -0.43283808804898        6.34835948208856
H            4.52897821585959       -0.42663734601029        5.66886157927010
H            3.55679660930057        1.03943424979224        5.62560806582875
H            0.70614856350080        0.92052388519693        0.88425332590984
H            0.46973108335123        1.91840262432600        2.31970743174208
H            2.33669870367904        2.71460404726214        1.34200518072048
H            2.97324196266329        1.84241242475107        2.71289659333192
H            2.95875367359176        0.80346807261731       -0.16987269178395
H            4.30066153576694        1.64010454446342        0.58887085984244
H            3.83595041401335        0.06191501569919        1.17653152466386

 Bond Distances (Angstroems)
 ---------------------------
C1-C2=1.5258         C1-H14=1.0879        C1-H15=1.0869        C1-H16=1.0870        C2-C1=1.5258         C2-C3=1.5334         
C2-H17=1.0884        C2-H18=1.0927        C3-C2=1.5334         C3-N4=1.4970         C3-H19=1.0901        C3-H20=1.0876        
N4-C3=1.4970         N4-C5=1.5014         N4-C8=1.5023         N4-C11=1.5046        C5-N4=1.5014         C5-C6=1.5386         
C5-H21=1.0925        C5-H22=1.0897        C6-C5=1.5386         C6-C7=1.5269         C6-H23=1.0903        C6-H24=1.0896        
C7-C6=1.5269         C7-H25=1.0867        C7-H26=1.0861        C7-H27=1.0879        C8-N4=1.5023         C8-C9=1.5302         
C8-H28=1.0922        C8-H29=1.0901        C9-C8=1.5302         C9-C10=1.5272        C9-H30=1.0903        C9-H31=1.0873        
C10-C9=1.5272        C10-H32=1.0871       C10-H33=1.0856       C10-H34=1.0874       C11-N4=1.5046        C11-C12=1.5328       
C11-H35=1.0879       C11-H36=1.0925       C12-C11=1.5328       C12-C13=1.5257       C12-H37=1.0928       C12-H38=1.0885       
C13-C12=1.5257       C13-H39=1.0870       C13-H40=1.0869       C13-H41=1.0873       H14-C1=1.0879        H15-C1=1.0869        
H16-C1=1.0870        H17-C2=1.0884        H18-C2=1.0927        H19-C3=1.0901        H20-C3=1.0876        H21-C5=1.0925        
H22-C5=1.0897        H23-C6=1.0903        H24-C6=1.0896        H25-C7=1.0867        H26-C7=1.0861        H27-C7=1.0879        
H28-C8=1.0922        H29-C8=1.0901        H30-C9=1.0903        H31-C9=1.0873        H32-C10=1.0871       H33-C10=1.0856       
H34-C10=1.0874       H35-C11=1.0879       H36-C11=1.0925       H37-C12=1.0928       H38-C12=1.0885       H39-C13=1.0870       
H40-C13=1.0869       H41-C13=1.0873       
 C  H  Rav=1.0888 sigma=0.0021  Rmin=1.0856  Rmax=1.0928    28
 C  C  Rav=1.5301 sigma=0.0043  Rmin=1.5257  Rmax=1.5386     8
 N  C  Rav=1.5013 sigma=0.0027  Rmin=1.4970  Rmax=1.5046     4

 selected bond angles (degree)
 --------------------
H14-C1-C2=112.91               H15-C1-C2=108.78               H15-C1-H14=106.73              H16-C1-C2=111.23               
H16-C1-H14=109.47              H16-C1-H15=107.48              C3-C2-C1=117.60                H17-C2-C1=109.60               
H17-C2-C3=111.14               H18-C2-C1=107.29               H18-C2-C3=104.02               H18-C2-H17=106.39              
N4-C3-C2=119.22                H19-C3-C2=106.45               H19-C3-N4=106.82               H20-C3-C2=108.57               
H20-C3-N4=107.22               H20-C3-H19=108.14              C5-N4-C3=111.02                C8-N4-C3=110.80                
C8-N4-C5=106.99                C11-N4-C3=111.78               C11-N4-C5=105.58               C11-N4-C8=110.45               
C6-C5-N4=116.56                H21-C5-N4=106.67               H21-C5-C6=108.22               H22-C5-N4=107.38               
H22-C5-C6=110.13               H22-C5-H21=107.49              C7-C6-C5=111.56                H23-C6-C5=109.72               
H23-C6-C7=108.16               H24-C6-C5=111.63               H24-C6-C7=108.88               H24-C6-H23=106.71              
H25-C7-C6=110.63               H26-C7-C6=109.92               H26-C7-H25=107.96              H27-C7-C6=111.64               
H27-C7-H25=108.48              H27-C7-H26=108.10              C9-C8-N4=118.60                H28-C8-N4=106.71               
H28-C8-C9=109.05               H29-C8-N4=107.72               H29-C8-C9=106.89               H29-C8-H28=107.40              
C10-C9-C8=108.80               H30-C9-C8=110.77               H30-C9-C10=108.37              H31-C9-C8=112.16               
H31-C9-C10=108.72              H31-C9-H30=107.93              H32-C10-C9=110.99              H33-C10-C9=109.86              
H33-C10-H32=108.14             H34-C10-C9=111.13              H34-C10-H32=108.47             H34-C10-H33=108.15             

 selected dihedral angles (degree)
 ---------------------------------
C3-C2-C1-H14=281.93           C3-C2-C1-H15=163.64           C3-C2-C1-H16= 45.45           H17-C2-C1-H14= 50.11          
H17-C2-C1-H15=291.83          H17-C2-C1-H16=173.64          H18-C2-C1-H14=165.23          H18-C2-C1-H15= 46.95          
H18-C2-C1-H16=288.76          N4-C3-C2-C1= 70.93            N4-C3-C2-H17=303.49           N4-C3-C2-H18=189.38           
H19-C3-C2-C1=191.65           H19-C3-C2-H17= 64.21          H19-C3-C2-H18=310.10          H20-C3-C2-C1=307.86           
H20-C3-C2-H17=180.42          H20-C3-C2-H18= 66.31          C5-N4-C3-C2= 40.34            C5-N4-C3-H19=279.81           
C5-N4-C3-H20=164.08           C8-N4-C3-C2=159.08            C8-N4-C3-H19= 38.55           C8-N4-C3-H20=282.82           
C11-N4-C3-C2=282.74           C11-N4-C3-H19=162.21          C11-N4-C3-H20= 46.48          C6-C5-N4-C3= 54.97            
C6-C5-N4-C8=293.96            C6-C5-N4-C11=176.28           H21-C5-N4-C3=175.94           H21-C5-N4-C8= 54.93           
H21-C5-N4-C11=297.26          H22-C5-N4-C3=290.93           H22-C5-N4-C8=169.92           H22-C5-N4-C11= 52.25          
C7-C6-C5-N4=124.78            C7-C6-C5-H21=  4.63           C7-C6-C5-H22=247.39           H23-C6-C5-N4=244.62           
H23-C6-C5-H21=124.47          H23-C6-C5-H22=  7.23          H24-C6-C5-N4=  2.71           H24-C6-C5-H21=242.56          
H24-C6-C5-H22=125.32          H25-C7-C6-C5= 59.59           H25-C7-C6-H23=298.84          H25-C7-C6-H24=183.24          
H26-C7-C6-C5=178.72           H26-C7-C6-H23= 57.97          H26-C7-C6-H24=302.37          H27-C7-C6-C5=298.68           
H27-C7-C6-H23=177.92          H27-C7-C6-H24= 62.32          C9-C8-N4-C3= 34.41            C9-C8-N4-C5=155.56            
C9-C8-N4-C11=270.00           H28-C8-N4-C3=157.91           H28-C8-N4-C5=279.06           H28-C8-N4-C11= 33.49          
H29-C8-N4-C3=272.97           H29-C8-N4-C5= 34.12           H29-C8-N4-C11=148.56          C10-C9-C8-N4=171.48           
C10-C9-C8-H28= 49.16          C10-C9-C8-H29=293.34          H30-C9-C8-N4=290.51           H30-C9-C8-H28=168.18          
H30-C9-C8-H29= 52.36          H31-C9-C8-N4= 51.17           H31-C9-C8-H28=288.84          H31-C9-C8-H29=173.03          
H32-C10-C9-C8= 58.27          H32-C10-C9-H30=297.75         H32-C10-C9-H31=180.68         H33-C10-C9-C8=177.81          
H33-C10-C9-H30= 57.30         H33-C10-C9-H31=300.23         H34-C10-C9-C8=297.46          H34-C10-C9-H30=176.95         
H34-C10-C9-H31= 59.88         
           -------------------------------------------------
          |                Final Singlepoint                |
           -------------------------------------------------

          ...................................................
          :                      SETUP                      :
          :.................................................:
          :  # basis functions                  80          :
          :  # atomic orbitals                  80          :
          :  # shells                           54          :
          :  # electrons                        80          :
          :  max. iterations                   250          :
          :  Hamiltonian                  GFN2-xTB          :
          :  restarted?                      false          :
          :  GBSA solvation                  false          :
          :  PC potential                    false          :
          :  electronic temp.          300.0000000     K    :
          :  accuracy                    1.0000000          :
          :  -> integral cutoff          0.2500000E+02      :
          :  -> integral neglect         0.1000000E-07      :
          :  -> SCF convergence          0.1000000E-05 Eh   :
          :  -> wf. convergence          0.1000000E-03 e    :
          :  Broyden damping             0.4000000          :
          :  net charge                          1          :
          :  unpaired electrons                  0          :
          ...................................................

 iter      E             dE          RMSdq      gap      omega  full diag
   1    -43.1209716 -0.431210E+02  0.296E-05    8.86       0.0  T
   2    -43.1209716 -0.292744E-11  0.168E-05    8.86     930.1  T
   3    -43.1209716  0.000000E+00  0.601E-06    8.86    2596.5  T

   *** convergence criteria satisfied after 3 iterations ***

         #    Occupation            Energy/Eh            Energy/eV
      -------------------------------------------------------------
         1        2.0000           -0.8449717             -22.9929
       ...           ...                  ...                  ...
        34        2.0000           -0.5750358             -15.6475
        35        2.0000           -0.5732974             -15.6002
        36        2.0000           -0.5695639             -15.4986
        37        2.0000           -0.5678733             -15.4526
        38        2.0000           -0.5676545             -15.4467
        39        2.0000           -0.5651849             -15.3795
        40        2.0000           -0.5621823             -15.2978 (HOMO)
        41                         -0.2366012              -6.4382 (LUMO)
        42                         -0.1788223              -4.8660
        43                         -0.1617106              -4.4004
        44                         -0.1501485              -4.0857
        45                         -0.0730839              -1.9887
       ...                                ...                  ...
        80                          0.1975673               5.3761
      -------------------------------------------------------------
                  HL-Gap            0.3255811 Eh            8.8595 eV
             Fermi-level           -0.3993917 Eh          -10.8680 eV

 SCC (total)                   0 d,  0 h,  0 min,  0.011 sec
 SCC setup                      ...        0 min,  0.000 sec (  0.775%)
 Dispersion                     ...        0 min,  0.000 sec (  1.978%)
 classical contributions        ...        0 min,  0.000 sec (  0.347%)
 integral evaluation            ...        0 min,  0.001 sec ( 12.465%)
 iterations                     ...        0 min,  0.003 sec ( 32.520%)
 molecular gradient             ...        0 min,  0.005 sec ( 50.715%)
 printout                       ...        0 min,  0.000 sec (  1.050%)

         :::::::::::::::::::::::::::::::::::::::::::::::::::::
         ::                     SUMMARY                     ::
         :::::::::::::::::::::::::::::::::::::::::::::::::::::
         :: total energy             -42.504636946611 Eh    ::
         :: gradient norm              0.000435150710 Eh/a0 ::
         :: HOMO-LUMO gap              8.859512278442 eV    ::
         ::.................................................::
         :: SCC energy               -43.120244649907 Eh    ::
         :: -> isotropic ES            0.075907209753 Eh    ::
         :: -> anisotropic ES         -0.002947718911 Eh    ::
         :: -> anisotropic XC          0.027698138759 Eh    ::
         :: -> dispersion             -0.032901466229 Eh    ::
         :: repulsion energy           0.615607703296 Eh    ::
         :: add. restraining           0.000000000000 Eh    ::
         :: total charge               1.000000000000 e     ::
         :::::::::::::::::::::::::::::::::::::::::::::::::::::

           -------------------------------------------------
          |                Property Printout                |
           -------------------------------------------------

    * Orbital Energies and Occupations

         #    Occupation            Energy/Eh            Energy/eV
      -------------------------------------------------------------
         1        2.0000           -0.8449717             -22.9929
       ...           ...                  ...                  ...
        28        2.0000           -0.6025702             -16.3968
        29        2.0000           -0.5943616             -16.1734
        30        2.0000           -0.5929068             -16.1338
        31        2.0000           -0.5902792             -16.0623
        32        2.0000           -0.5886868             -16.0190
        33        2.0000           -0.5830238             -15.8649
        34        2.0000           -0.5750358             -15.6475
        35        2.0000           -0.5732974             -15.6002
        36        2.0000           -0.5695639             -15.4986
        37        2.0000           -0.5678733             -15.4526
        38        2.0000           -0.5676545             -15.4467
        39        2.0000           -0.5651849             -15.3795
        40        2.0000           -0.5621823             -15.2978 (HOMO)
        41                         -0.2366012              -6.4382 (LUMO)
        42                         -0.1788223              -4.8660
        43                         -0.1617106              -4.4004
        44                         -0.1501485              -4.0857
        45                         -0.0730839              -1.9887
        46                         -0.0682239              -1.8565
        47                         -0.0541175              -1.4726
        48                         -0.0527831              -1.4363
        49                         -0.0417161              -1.1352
        50                         -0.0355272              -0.9667
        51                         -0.0262695              -0.7148
       ...                                ...                  ...
        80                          0.1975673               5.3761
      -------------------------------------------------------------
                  HL-Gap            0.3255811 Eh            8.8595 eV
             Fermi-level           -0.3993917 Eh          -10.8680 eV

     #   Z          covCN         q      C6AA      α(0)
     1   6 C        3.750    -0.115    22.771     6.806
     2   6 C        3.798    -0.070    21.849     6.655
     3   6 C        3.746    -0.037    21.313     6.585
     4   7 N        3.615     0.101    19.500     6.559
     5   6 C        3.766    -0.038    21.292     6.577
     6   6 C        3.798    -0.066    21.761     6.642
     7   6 C        3.752    -0.118    22.821     6.812
     8   6 C        3.758    -0.039    21.322     6.583
     9   6 C        3.799    -0.067    21.779     6.645
    10   6 C        3.755    -0.116    22.783     6.806
    11   6 C        3.756    -0.041    21.355     6.589
    12   6 C        3.798    -0.068    21.812     6.650
    13   6 C        3.750    -0.115    22.757     6.803
    14   1 H        0.925     0.038     2.475     2.460
    15   1 H        0.925     0.065     2.141     2.288
    16   1 H        0.925     0.050     2.314     2.379
    17   1 H        0.925     0.059     2.213     2.326
    18   1 H        0.924     0.071     2.073     2.251
    19   1 H        0.925     0.077     2.014     2.219
    20   1 H        0.925     0.093     1.851     2.128
    21   1 H        0.924     0.081     1.972     2.196
    22   1 H        0.925     0.082     1.955     2.187
    23   1 H        0.924     0.062     2.178     2.308
    24   1 H        0.925     0.055     2.258     2.350
    25   1 H        0.925     0.055     2.263     2.353
    26   1 H        0.925     0.065     2.144     2.290
    27   1 H        0.925     0.044     2.390     2.418
    28   1 H        0.924     0.080     1.978     2.200
    29   1 H        0.925     0.087     1.904     2.158
    30   1 H        0.924     0.051     2.311     2.377
    31   1 H        0.925     0.060     2.201     2.320
    32   1 H        0.925     0.051     2.309     2.376
    33   1 H        0.925     0.066     2.131     2.283
    34   1 H        0.925     0.049     2.329     2.386
    35   1 H        0.925     0.093     1.851     2.128
    36   1 H        0.924     0.071     2.079     2.255
    37   1 H        0.924     0.071     2.077     2.254
    38   1 H        0.925     0.061     2.184     2.311
    39   1 H        0.925     0.050     2.323     2.383
    40   1 H        0.925     0.064     2.153     2.295
    41   1 H        0.925     0.039     2.457     2.451

 Mol. C6AA /au·bohr⁶  :      10329.409745
 Mol. C8AA /au·bohr⁸  :     216758.965136
 Mol. α(0) /au        :        151.041316


Wiberg/Mayer (AO) data.
largest (>0.10) Wiberg bond orders for each atom

 ---------------------------------------------------------------------------
     #   Z sym  total        # sym  WBO       # sym  WBO       # sym  WBO
 ---------------------------------------------------------------------------
     1   6 C    3.992 --     2 C    1.020    16 H    0.983    15 H    0.981
                            14 H    0.979
     2   6 C    3.986 --     1 C    1.020     3 C    1.005    17 H    0.969
                            18 H    0.966
     3   6 C    3.934 --     2 C    1.005    19 H    0.964    20 H    0.957
                             4 N    0.931
     4   7 N    3.797 --     5 C    0.932     3 C    0.931     8 C    0.928
                            11 C    0.928
     5   6 C    3.934 --     6 C    1.000    22 H    0.969    21 H    0.967
                             4 N    0.932
     6   6 C    3.988 --     7 C    1.018     5 C    1.000    23 H    0.973
                            24 H    0.966
     7   6 C    3.989 --     6 C    1.018    25 H    0.986    27 H    0.985
                            26 H    0.983
     8   6 C    3.932 --     9 C    1.006    28 H    0.966    29 H    0.962
                             4 N    0.928
     9   6 C    3.988 --    10 C    1.012     8 C    1.006    30 H    0.974
                            31 H    0.968
    10   6 C    3.989 --     9 C    1.012    32 H    0.986    34 H    0.986
                            33 H    0.983
    11   6 C    3.932 --    12 C    1.006    36 H    0.969    35 H    0.957
                             4 N    0.928
    12   6 C    3.986 --    13 C    1.020    11 C    1.006    38 H    0.968
                            37 H    0.965
    13   6 C    3.992 --    12 C    1.020    39 H    0.983    40 H    0.982
                            41 H    0.976
    14   1 H    0.999 --     1 C    0.979
    15   1 H    0.995 --     1 C    0.981
    16   1 H    0.997 --     1 C    0.983
    17   1 H    0.996 --     2 C    0.969
    18   1 H    0.995 --     2 C    0.966
    19   1 H    0.994 --     3 C    0.964
    20   1 H    0.991 --     3 C    0.957
    21   1 H    0.993 --     5 C    0.967
    22   1 H    0.993 --     5 C    0.969
    23   1 H    0.996 --     6 C    0.973
    24   1 H    0.997 --     6 C    0.966
    25   1 H    0.997 --     7 C    0.986
    26   1 H    0.995 --     7 C    0.983
    27   1 H    0.998 --     7 C    0.985
    28   1 H    0.993 --     8 C    0.966
    29   1 H    0.992 --     8 C    0.962
    30   1 H    0.997 --     9 C    0.974
    31   1 H    0.996 --     9 C    0.968
    32   1 H    0.997 --    10 C    0.986
    33   1 H    0.995 --    10 C    0.983
    34   1 H    0.998 --    10 C    0.986
    35   1 H    0.991 --    11 C    0.957
    36   1 H    0.995 --    11 C    0.969
    37   1 H    0.995 --    12 C    0.965
    38   1 H    0.996 --    12 C    0.968
    39   1 H    0.997 --    13 C    0.983
    40   1 H    0.995 --    13 C    0.982
    41   1 H    0.998 --    13 C    0.976
 ---------------------------------------------------------------------------

Topologies differ in total number of bonds
Writing topology from bond orders to xtbtopo.mol

molecular dipole:
                 x           y           z       tot (Debye)
 q only:        1.828      -0.353       5.098
   full:        1.764      -0.311       5.101      13.740
molecular quadrupole (traceless):
                xx          xy          yy          xz          yz          zz
 q only:       -8.218       2.461     -17.784      13.361      -2.819      26.002
  q+dip:       -9.065       2.135     -15.931      13.157      -2.703      24.997
   full:       -8.973       2.102     -16.440      13.056      -2.626      25.413

           -------------------------------------------------
          |                Geometry Summary                 |
           -------------------------------------------------

      molecular mass/u    :      186.3578750
   center of mass at/Å    :        1.0928922      -0.2710519       2.7067749
  moments of inertia/u·Å² :        0.7106096E+03   0.7882953E+03   0.1197826E+04
rotational constants/cm⁻¹ :        0.2372277E-01   0.2138492E-01   0.1407352E-01

 * 40 selected distances

     #   Z          #   Z                                           value/Å
     1   6 C        2   6 C                                       1.5258428
     2   6 C        3   6 C                                       1.5334407
     3   6 C        4   7 N                                       1.4970305
     4   7 N        5   6 C                                       1.5014453
     5   6 C        6   6 C                                       1.5386251 (max)
     6   6 C        7   6 C                                       1.5269383
     4   7 N        8   6 C                                       1.5023050
     8   6 C        9   6 C                                       1.5302236
     9   6 C       10   6 C                                       1.5271541
     4   7 N       11   6 C                                       1.5046087
    11   6 C       12   6 C                                       1.5328067
    12   6 C       13   6 C                                       1.5257191
     1   6 C       14   1 H                                       1.0878749
     1   6 C       15   1 H                                       1.0869287
     1   6 C       16   1 H                                       1.0870282
     2   6 C       17   1 H                                       1.0883814
     2   6 C       18   1 H                                       1.0927078
     3   6 C       19   1 H                                       1.0901492
     3   6 C       20   1 H                                       1.0875908
     5   6 C       21   1 H                                       1.0924519
     5   6 C       22   1 H                                       1.0897208
     6   6 C       23   1 H                                       1.0903093
     6   6 C       24   1 H                                       1.0895801
     7   6 C       25   1 H                                       1.0867008
     7   6 C       26   1 H                                       1.0860699
     7   6 C       27   1 H                                       1.0878623
     8   6 C       28   1 H                                       1.0921677
     8   6 C       29   1 H                                       1.0901080
     9   6 C       30   1 H                                       1.0903097
     9   6 C       31   1 H                                       1.0872506
    10   6 C       32   1 H                                       1.0871040
    10   6 C       33   1 H                                       1.0855725 (min)
    10   6 C       34   1 H                                       1.0874028
    11   6 C       35   1 H                                       1.0879048
    11   6 C       36   1 H                                       1.0925217
    12   6 C       37   1 H                                       1.0928021
    12   6 C       38   1 H                                       1.0884688
    13   6 C       39   1 H                                       1.0869648
    13   6 C       40   1 H                                       1.0869055
    13   6 C       41   1 H                                       1.0873041

 * 3 distinct bonds (by element types)

   Z      Z             #   av. dist./Å        max./Å        min./Å
   1 H    6 C          28     1.0887908     1.0928021     1.0855725
   6 C    6 C           8     1.5300938     1.5386251     1.5257191
   6 C    7 N           4     1.5013474     1.5046087     1.4970305


optimized geometry written to: xtbopt.xyz


           -------------------------------------------------
          | TOTAL ENERGY              -42.504636946611 Eh   |
          | GRADIENT NORM               0.000435150710 Eh/α |
          | HOMO-LUMO GAP               8.859512278442 eV   |
           -------------------------------------------------

------------------------------------------------------------------------
 * finished run on 2024/12/20 at 06:50:00.070     
------------------------------------------------------------------------
 total:
 * wall-time:     0 d,  0 h,  0 min,  0.314 sec
 *  cpu-time:     0 d,  0 h,  0 min,  2.397 sec
 * ratio c/w:     7.636 speedup
 SCF:
 * wall-time:     0 d,  0 h,  0 min,  0.020 sec
 *  cpu-time:     0 d,  0 h,  0 min,  0.157 sec
 * ratio c/w:     7.939 speedup
 ANC optimizer:
 * wall-time:     0 d,  0 h,  0 min,  0.277 sec
 *  cpu-time:     0 d,  0 h,  0 min,  2.118 sec
 * ratio c/w:     7.642 speedup

