      -----------------------------------------------------------      
     |                   =====================                   |     
     |                           x T B                           |     
     |                   =====================                   |     
     |                         S. Grimme                         |     
     |          Mulliken Center for Theoretical Chemistry        |     
     |                    University of Bonn                     |     
      -----------------------------------------------------------      

   * xtb version 6.7.1 (edcfbbe) compiled by 'conda@3ef47c1a292c' on 2024-11-25

   xtb is free software: you can redistribute it and/or modify it under
   the terms of the GNU Lesser General Public License as published by
   the Free Software Foundation, either version 3 of the License, or
   (at your option) any later version.
   
   xtb is distributed in the hope that it will be useful,
   but WITHOUT ANY WARRANTY; without even the implied warranty of
   MERCHANTABILITY or FITNESS FOR A PARTICULAR PURPOSE.  See the
   GNU Lesser General Public License for more details.
   
   Cite this work as:
   * C. Bannwarth, E. Caldeweyher, S. Ehlert, A. Hansen, P. Pracht,
     J. Seibert, S. Spicher, S. Grimme, WIREs Comput. Mol. Sci., 2020, 11,
     e01493. DOI: 10.1002/wcms.1493
   
   for GFN2-xTB:
   * C. Bannwarth, S. Ehlert and S. Grimme., J. Chem. Theory Comput., 2019,
     15, 1652-1671. DOI: 10.1021/acs.jctc.8b01176
   for GFN1-xTB:
   * S. Grimme, C. Bannwarth, P. Shushkov, J. Chem. Theory Comput., 2017,
     13, 1989-2009. DOI: 10.1021/acs.jctc.7b00118
   for GFN0-xTB:
   * P. Pracht, E. Caldeweyher, S. Ehlert, S. Grimme, ChemRxiv, 2019, preprint.
     DOI: 10.26434/chemrxiv.8326202.v1
   for GFN-FF:
   * S. Spicher and S. Grimme, Angew. Chem. Int. Ed., 2020, 59, 15665-15673.
     DOI: 10.1002/anie.202004239
   
   for ALPB and GBSA implicit solvation:
   * S. Ehlert, M. Stahn, S. Spicher, S. Grimme, J. Chem. Theory Comput.,
     2021, 17, 4250-4261. DOI: 10.1021/acs.jctc.1c00471
   
   for ddCOSMO and CPCM-X implicit solvation:
   * M. Stahn, S. Ehlert, S. Grimme, J. Phys. Chem. A,
     2023, XX, XXXX-XXXX. DOI: 10.1021/acs.jpca.3c04382
   
   for DFT-D4:
   * E. Caldeweyher, C. Bannwarth and S. Grimme, J. Chem. Phys., 2017,
     147, 034112. DOI: 10.1063/1.4993215
   * E. Caldeweyher, S. Ehlert, A. Hansen, H. Neugebauer, S. Spicher,
     C. Bannwarth and S. Grimme, J. Chem. Phys., 2019, 150, 154122.
     DOI: 10.1063/1.5090222
   * E. Caldeweyher, J.-M. Mewes, S. Ehlert and S. Grimme, Phys. Chem. Chem. Phys.
     2020, 22, 8499-8512. DOI: 10.1039/D0CP00502A
   
   for sTDA-xTB:
   * S. Grimme and C. Bannwarth, J. Chem. Phys., 2016, 145, 054103.
     DOI: 10.1063/1.4959605
   
   in the mass-spec context:
   * V. Asgeirsson, C. Bauer and S. Grimme, Chem. Sci., 2017, 8, 4879.
     DOI: 10.1039/c7sc00601b
   * J. Koopman and S. Grimme, ACS Omega 2019, 4, 12, 15120-15133.
     DOI: 10.1021/acsomega.9b02011
   
   for metadynamics refer to:
   * S. Grimme, J. Chem. Theory Comput., 2019, 155, 2847-2862
     DOI: 10.1021/acs.jctc.9b00143
   
   for SPH calculations refer to:
   * S. Spicher and S. Grimme, J. Chem. Theory Comput., 2021, 17, 1701-1714
     DOI: 10.1021/acs.jctc.0c01306
   
   for ONIOM refer to:
   * C. Plett, A. Katbashev, S. Ehlert, S. Grimme, M. Bursch,
     Phys. Chem. Chem. Phys., 2023, 25, 17860-17868. DOI: 10.1039/D3CP02178E
   
   for DIPRO refer to:
   * J. Kohn, N. Gildemeister, S. Grimme, D. Fazzi, A. Hansen,
     J. Chem. Phys., 2023, just accepted.
   
   for PTB refer to:
   * S. Grimme, M. Mueller, A. Hansen, J. Chem. Phys., 2023, 158, 124111.
     DOI: 10.1063/5.0137838
   
   with help from (in alphabetical order)
   P. Atkinson, C. Bannwarth, F. Bohle, G. Brandenburg, E. Caldeweyher
   M. Checinski, S. Dohm, S. Ehlert, S. Ehrlich, I. Gerasimov, C. Hölzer
   A. Katbashev, J. Kohn, J. Koopman, C. Lavigne, S. Lehtola, F. März, M. Müller,
   F. Musil, H. Neugebauer, J. Pisarek, C. Plett, P. Pracht, F. Pultar,
   J. Seibert, P. Shushkov, S. Spicher, M. Stahn, M. Steiner, T. Strunk,
   J. Stückrath, T. Rose, and J. Unsleber
   
 * started run on 2024/12/20 at 06:50:13.647     
   ID    Z sym.   atoms
    1    6 C      1-6, 8, 10, 12, 13, 15-17, 20-25
    2    7 N      7, 11, 14, 19
    3    8 O      9, 18
    4    1 H      26-60

           -------------------------------------------------
          |                Calculation Setup                |
           -------------------------------------------------

          program call               : xtb C0606.xyz --opt --namespace C0606 --charge +1
          calculation namespace      : C0606
          coordinate file            : C0606.xyz
          omp threads                :                     8


           -------------------------------------------------
          |                 G F N 2 - x T B                 |
           -------------------------------------------------

        Reference                      10.1021/acs.jctc.8b01176
      * Hamiltonian:
        H0-scaling (s, p, d)           1.850000    2.230000    2.230000
        zeta-weighting                 0.500000
      * Dispersion:
        s8                             2.700000
        a1                             0.520000
        a2                             5.000000
        s9                             5.000000
      * Repulsion:
        kExp                           1.500000    1.000000
        rExp                           1.000000
      * Coulomb:
        alpha                          2.000000
        third order                    shell-resolved
        anisotropic                    true
        a3                             3.000000
        a5                             4.000000
        cn-shift                       1.200000
        cn-exp                         4.000000
        max-rad                        5.000000


          ...................................................
          :                      SETUP                      :
          :.................................................:
          :  # basis functions                 135          :
          :  # atomic orbitals                 135          :
          :  # shells                           85          :
          :  # electrons                       142          :
          :  max. iterations                   250          :
          :  Hamiltonian                  GFN2-xTB          :
          :  restarted?                      false          :
          :  GBSA solvation                  false          :
          :  PC potential                    false          :
          :  electronic temp.          300.0000000     K    :
          :  accuracy                    1.0000000          :
          :  -> integral cutoff          0.2500000E+02      :
          :  -> integral neglect         0.1000000E-07      :
          :  -> SCF convergence          0.1000000E-05 Eh   :
          :  -> wf. convergence          0.1000000E-03 e    :
          :  Broyden damping             0.4000000          :
          :  net charge                          1          :
          :  unpaired electrons                  0          :
          ...................................................

 iter      E             dE          RMSdq      gap      omega  full diag
   1    -78.7901428 -0.787901E+02  0.334E+00    4.57       0.0  T
   2    -79.0108067 -0.220664E+00  0.194E+00    3.23       1.0  T
   3    -79.0245505 -0.137438E-01  0.109E+00    3.09       1.0  T
   4    -79.0261311 -0.158057E-02  0.208E-01    2.29       1.0  T
   5    -79.0273402 -0.120910E-02  0.967E-02    2.45       1.0  T
   6    -79.0274863 -0.146065E-03  0.422E-02    2.47       1.0  T
   7    -79.0274865 -0.226479E-06  0.183E-02    2.49       1.0  T
   8    -79.0274962 -0.972514E-05  0.626E-03    2.49       2.1  T
   9    -79.0274970 -0.811693E-06  0.247E-03    2.49       5.2  T
  10    -79.0274971 -0.756708E-07  0.105E-03    2.49      12.3  T
  11    -79.0274971 -0.123329E-07  0.490E-04    2.49      26.4  T
  12    -79.0274971 -0.469886E-08  0.169E-04    2.49      76.4  T

   *** convergence criteria satisfied after 12 iterations ***

         #    Occupation            Energy/Eh            Energy/eV
      -------------------------------------------------------------
         1        2.0000           -0.8956283             -24.3713
       ...           ...                  ...                  ...
        65        2.0000           -0.5252449             -14.2926
        66        2.0000           -0.5201025             -14.1527
        67        2.0000           -0.5182627             -14.1026
        68        2.0000           -0.5155214             -14.0281
        69        2.0000           -0.5140018             -13.9867
        70        2.0000           -0.5122979             -13.9403
        71        2.0000           -0.5087863             -13.8448 (HOMO)
        72                         -0.4171541             -11.3513 (LUMO)
        73                         -0.3799568             -10.3392
        74                         -0.3669259              -9.9846
        75                         -0.3568262              -9.7097
        76                         -0.2064824              -5.6187
       ...                                ...                  ...
       135                          0.4460664              12.1381
      -------------------------------------------------------------
                  HL-Gap            0.0916323 Eh            2.4934 eV
             Fermi-level           -0.4629702 Eh          -12.5981 eV

 SCC (total)                   0 d,  0 h,  0 min,  0.052 sec
 SCC setup                      ...        0 min,  0.000 sec (  0.412%)
 Dispersion                     ...        0 min,  0.001 sec (  1.748%)
 classical contributions        ...        0 min,  0.000 sec (  0.187%)
 integral evaluation            ...        0 min,  0.004 sec (  6.840%)
 iterations                     ...        0 min,  0.035 sec ( 67.562%)
 molecular gradient             ...        0 min,  0.012 sec ( 22.868%)
 printout                       ...        0 min,  0.000 sec (  0.349%)

         :::::::::::::::::::::::::::::::::::::::::::::::::::::
         ::                     SUMMARY                     ::
         :::::::::::::::::::::::::::::::::::::::::::::::::::::
         :: total energy             -78.018448964467 Eh    ::
         :: gradient norm              0.090922190745 Eh/a0 ::
         :: HOMO-LUMO gap              2.493441095499 eV    ::
         ::.................................................::
         :: SCC energy               -79.025585034967 Eh    ::
         :: -> isotropic ES            0.152025021025 Eh    ::
         :: -> anisotropic ES          0.003679231543 Eh    ::
         :: -> anisotropic XC          0.039290360727 Eh    ::
         :: -> dispersion             -0.055561629712 Eh    ::
         :: repulsion energy           1.007136070500 Eh    ::
         :: add. restraining           0.000000000000 Eh    ::
         :: total charge               1.000000000000 e     ::
         :::::::::::::::::::::::::::::::::::::::::::::::::::::

      ----------------------------------------------------------- 
     |                   =====================                   |
     |                        A N C O P T                        |
     |                   =====================                   |
     |               Approximate Normal Coordinate               |
     |                Rational Function Optimizer                |
      ----------------------------------------------------------- 
      ----------------------------------------------------------- 
     |                   =====================                   |
     |                        A N C O P T                        |
     |                   =====================                   |
     |               Approximate Normal Coordinate               |
     |                Rational Function Optimizer                |
      ----------------------------------------------------------- 

          ...................................................
          :                      SETUP                      :
          :.................................................:
          :   optimization level            normal          :
          :   max. optcycles                   200          :
          :   ANC micro-cycles                  20          :
          :   degrees of freedom               174          :
          :.................................................:
          :   RF solver                   davidson          :
          :   write xtbopt.log                true          :
          :   linear?                        false          :
          :   energy convergence         0.5000000E-05 Eh   :
          :   grad. convergence          0.1000000E-02 Eh/α :
          :   maxmium RF displ.          1.0000000          :
          :   Hlow (freq-cutoff)         0.1000000E-01      :
          :   Hmax (freq-cutoff)         5.0000000          :
          :   S6 in model hess.         20.0000000          :
          ...................................................

generating ANC from exact Hessian ...
Using Lindh-Hessian (1995)
 Shifting diagonal of input Hessian by    9.8774009121857295E-003
 Lowest  eigenvalues of input Hessian
    0.000000    0.000000    0.000000    0.000000    0.000000    0.000000
    0.010000    0.010078    0.010238    0.010457    0.010474    0.010530
    0.010701    0.010871    0.010970    0.011586    0.012065    0.012300
 Highest eigenvalues
    1.881096    1.962382    2.050448    2.098954    2.212348    2.219272


........................................................................
.............................. CYCLE    1 ..............................
........................................................................

 iter      E             dE          RMSdq      gap      omega  full diag
   1    -79.0274971 -0.790275E+02  0.482E-05    2.49       0.0  T
   2    -79.0274971 -0.105018E-10  0.265E-05    2.49     487.5  T
   3    -79.0274971  0.170530E-11  0.125E-05    2.49    1034.6  T
     SCC iter.                  ...        0 min,  0.010 sec
     gradient                   ...        0 min,  0.012 sec
 * total energy  :   -78.0184490 Eh     change       -0.6715624E-09 Eh
   gradient norm :     0.0909237 Eh/α   predicted     0.0000000E+00 (-100.00%)
   displ. norm   :     0.2843628 α      lambda       -0.1274017E-01
   maximum displ.:     0.0820618 α      in ANC's #110, #34, #69, ...

........................................................................
.............................. CYCLE    2 ..............................
........................................................................

 iter      E             dE          RMSdq      gap      omega  full diag
   1    -79.0709273 -0.790709E+02  0.164E-01    2.63       0.0  T
   2    -79.0710797 -0.152372E-03  0.915E-02    2.63       1.0  T
   3    -79.0710777  0.200421E-05  0.398E-02    2.62       1.0  T
   4    -79.0710915 -0.138156E-04  0.792E-03    2.64       1.6  T
   5    -79.0710947 -0.327006E-05  0.289E-03    2.63       4.5  T
   6    -79.0710949 -0.128326E-06  0.124E-03    2.63      10.4  T
   7    -79.0710949 -0.251522E-07  0.336E-04    2.63      38.4  T
   8    -79.0710949 -0.107178E-08  0.114E-04    2.63     112.8  T
     SCC iter.                  ...        0 min,  0.021 sec
     gradient                   ...        0 min,  0.012 sec
 * total energy  :   -78.0267901 Eh     change       -0.8341136E-02 Eh
   gradient norm :     0.0429576 Eh/α   predicted    -0.6890417E-02 ( -17.39%)
   displ. norm   :     0.2406866 α      lambda       -0.4014294E-02
   maximum displ.:     0.0967244 α      in ANC's #16, #20, #11, ...

........................................................................
.............................. CYCLE    3 ..............................
........................................................................

 iter      E             dE          RMSdq      gap      omega  full diag
   1    -79.0972851 -0.790973E+02  0.117E-01    2.75       0.0  T
   2    -79.0974059 -0.120841E-03  0.622E-02    2.76       1.0  T
   3    -79.0974094 -0.346140E-05  0.299E-02    2.75       1.0  T
   4    -79.0974136 -0.423663E-05  0.562E-03    2.76       2.3  T
   5    -79.0974149 -0.123661E-05  0.213E-03    2.76       6.1  T
   6    -79.0974149 -0.640512E-07  0.989E-04    2.76      13.1  T
   7    -79.0974150 -0.233794E-07  0.259E-04    2.76      49.8  T
     SCC iter.                  ...        0 min,  0.018 sec
     gradient                   ...        0 min,  0.012 sec
 * total energy  :   -78.0289848 Eh     change       -0.2194666E-02 Eh
   gradient norm :     0.0135335 Eh/α   predicted    -0.2130318E-02 (  -2.93%)
   displ. norm   :     0.1455116 α      lambda       -0.5895479E-03
   maximum displ.:     0.0686890 α      in ANC's #16, #11, #6, ...

........................................................................
.............................. CYCLE    4 ..............................
........................................................................

 iter      E             dE          RMSdq      gap      omega  full diag
   1    -79.0963579 -0.790964E+02  0.402E-02    2.78       0.0  T
   2    -79.0963643 -0.636475E-05  0.234E-02    2.78       1.0  T
   3    -79.0963641  0.155602E-06  0.742E-03    2.79       1.7  T
   4    -79.0963649 -0.767542E-06  0.155E-03    2.79       8.3  T
   5    -79.0963649 -0.693410E-07  0.746E-04    2.79      17.3  T
   6    -79.0963649 -0.417687E-08  0.338E-04    2.79      38.2  T
     SCC iter.                  ...        0 min,  0.016 sec
     gradient                   ...        0 min,  0.012 sec
 * total energy  :   -78.0293963 Eh     change       -0.4115262E-03 Eh
   gradient norm :     0.0056591 Eh/α   predicted    -0.3010675E-03 ( -26.84%)
   displ. norm   :     0.1882537 α      lambda       -0.3450395E-03
   maximum displ.:     0.0819812 α      in ANC's #6, #11, #16, ...

........................................................................
.............................. CYCLE    5 ..............................
........................................................................

 iter      E             dE          RMSdq      gap      omega  full diag
   1    -79.0940718 -0.790941E+02  0.367E-02    2.79       0.0  T
   2    -79.0940737 -0.195758E-05  0.217E-02    2.79       1.0  T
   3    -79.0940736  0.102487E-06  0.349E-03    2.80       3.7  T
   4    -79.0940740 -0.365655E-06  0.108E-03    2.80      11.9  T
   5    -79.0940740 -0.218728E-07  0.584E-04    2.80      22.1  T
   6    -79.0940740 -0.461419E-08  0.178E-04    2.80      72.5  T
     SCC iter.                  ...        0 min,  0.017 sec
     gradient                   ...        0 min,  0.012 sec
 * total energy  :   -78.0296199 Eh     change       -0.2235895E-03 Eh
   gradient norm :     0.0042702 Eh/α   predicted    -0.1786345E-03 ( -20.11%)
   displ. norm   :     0.1435881 α      lambda       -0.1213860E-03
   maximum displ.:     0.0799118 α      in ANC's #6, #11, #16, ...

........................................................................
.............................. CYCLE    6 ..............................
........................................................................

 iter      E             dE          RMSdq      gap      omega  full diag
   1    -79.0935492 -0.790935E+02  0.205E-02    2.79       0.0  T
   2    -79.0935497 -0.434462E-06  0.120E-02    2.80       1.1  T
   3    -79.0935496  0.102751E-06  0.216E-03    2.80       6.0  T
   4    -79.0935498 -0.181682E-06  0.530E-04    2.80      24.4  T
   5    -79.0935498 -0.629764E-08  0.293E-04    2.80      44.1  T
     SCC iter.                  ...        0 min,  0.013 sec
     gradient                   ...        0 min,  0.012 sec
 * total energy  :   -78.0297115 Eh     change       -0.9161327E-04 Eh
   gradient norm :     0.0041419 Eh/α   predicted    -0.6194557E-04 ( -32.38%)
   displ. norm   :     0.1785116 α      lambda       -0.1172798E-03
   maximum displ.:     0.1074147 α      in ANC's #6, #11, #9, ...

........................................................................
.............................. CYCLE    7 ..............................
........................................................................

 iter      E             dE          RMSdq      gap      omega  full diag
   1    -79.0939716 -0.790940E+02  0.212E-02    2.79       0.0  T
   2    -79.0939722 -0.677823E-06  0.124E-02    2.79       1.0  T
   3    -79.0939721  0.106092E-06  0.257E-03    2.79       5.0  T
   4    -79.0939723 -0.204829E-06  0.514E-04    2.79      25.1  T
   5    -79.0939723 -0.602870E-08  0.288E-04    2.79      44.8  T
     SCC iter.                  ...        0 min,  0.013 sec
     gradient                   ...        0 min,  0.012 sec
 * total energy  :   -78.0298023 Eh     change       -0.9076699E-04 Eh
   gradient norm :     0.0030946 Eh/α   predicted    -0.6050915E-04 ( -33.34%)
   displ. norm   :     0.2033252 α      lambda       -0.1090443E-03
   maximum displ.:     0.1281298 α      in ANC's #6, #9, #11, ...

........................................................................
.............................. CYCLE    8 ..............................
........................................................................

 iter      E             dE          RMSdq      gap      omega  full diag
   1    -79.0948529 -0.790949E+02  0.223E-02    2.79       0.0  T
   2    -79.0948534 -0.583391E-06  0.131E-02    2.79       1.0  T
   3    -79.0948534  0.741711E-07  0.216E-03    2.79       6.0  T
   4    -79.0948535 -0.158599E-06  0.496E-04    2.79      26.0  T
   5    -79.0948535 -0.391650E-08  0.274E-04    2.79      47.2  T
     SCC iter.                  ...        0 min,  0.015 sec
     gradient                   ...        0 min,  0.012 sec
 * total energy  :   -78.0298898 Eh     change       -0.8752310E-04 Eh
   gradient norm :     0.0028817 Eh/α   predicted    -0.5677783E-04 ( -35.13%)
   displ. norm   :     0.2322777 α      lambda       -0.1108018E-03
   maximum displ.:     0.1488017 α      in ANC's #6, #9, #7, ...

........................................................................
.............................. CYCLE    9 ..............................
........................................................................

 iter      E             dE          RMSdq      gap      omega  full diag
   1    -79.0956738 -0.790957E+02  0.255E-02    2.79       0.0  T
   2    -79.0956743 -0.506379E-06  0.150E-02    2.79       1.0  T
   3    -79.0956742  0.949525E-07  0.210E-03    2.79       6.1  T
   4    -79.0956744 -0.179750E-06  0.547E-04    2.79      23.6  T
   5    -79.0956744 -0.516856E-08  0.300E-04    2.79      43.0  T
     SCC iter.                  ...        0 min,  0.013 sec
     gradient                   ...        0 min,  0.012 sec
 * total energy  :   -78.0299838 Eh     change       -0.9401430E-04 Eh
   gradient norm :     0.0037776 Eh/α   predicted    -0.5839131E-04 ( -37.89%)
   displ. norm   :     0.2906707 α      lambda       -0.1360727E-03
   maximum displ.:     0.1854598 α      in ANC's #6, #9, #7, ...

........................................................................
.............................. CYCLE   10 ..............................
........................................................................

 iter      E             dE          RMSdq      gap      omega  full diag
   1    -79.0960541 -0.790961E+02  0.332E-02    2.79       0.0  T
   2    -79.0960549 -0.806904E-06  0.196E-02    2.79       1.0  T
   3    -79.0960547  0.246314E-06  0.306E-03    2.79       4.2  T
   4    -79.0960551 -0.396965E-06  0.720E-04    2.79      17.9  T
   5    -79.0960551 -0.108541E-07  0.395E-04    2.79      32.7  T
     SCC iter.                  ...        0 min,  0.014 sec
     gradient                   ...        0 min,  0.012 sec
 * total energy  :   -78.0301046 Eh     change       -0.1208164E-03 Eh
   gradient norm :     0.0046458 Eh/α   predicted    -0.7378593E-04 ( -38.93%)
   displ. norm   :     0.4059515 α      lambda       -0.1939593E-03
   maximum displ.:     0.2561230 α      in ANC's #6, #9, #7, ...

........................................................................
.............................. CYCLE   11 ..............................
........................................................................

 iter      E             dE          RMSdq      gap      omega  full diag
   1    -79.0955420 -0.790955E+02  0.491E-02    2.80       0.0  T
   2    -79.0955439 -0.190182E-05  0.288E-02    2.79       1.0  T
   3    -79.0955432  0.685083E-06  0.503E-03    2.80       2.6  T
   4    -79.0955442 -0.105615E-05  0.111E-03    2.79      11.6  T
   5    -79.0955443 -0.295932E-07  0.613E-04    2.79      21.1  T
   6    -79.0955443 -0.335143E-08  0.126E-04    2.79     102.8  T
     SCC iter.                  ...        0 min,  0.016 sec
     gradient                   ...        0 min,  0.012 sec
 * total energy  :   -78.0302781 Eh     change       -0.1735299E-03 Eh
   gradient norm :     0.0051669 Eh/α   predicted    -0.1129618E-03 ( -34.90%)
   displ. norm   :     0.5418117 α      lambda       -0.2634365E-03
   maximum displ.:     0.3402914 α      in ANC's #6, #9, #7, ...

........................................................................
.............................. CYCLE   12 ..............................
........................................................................

 iter      E             dE          RMSdq      gap      omega  full diag
   1    -79.0937044 -0.790937E+02  0.698E-02    2.80       0.0  T
   2    -79.0937086 -0.412094E-05  0.409E-02    2.80       1.0  T
   3    -79.0937072  0.140223E-05  0.741E-03    2.81       1.7  T
   4    -79.0937094 -0.220299E-05  0.163E-03    2.80       7.9  T
   5    -79.0937094 -0.639683E-07  0.911E-04    2.80      14.2  T
   6    -79.0937094 -0.670424E-08  0.191E-04    2.80      67.6  T
     SCC iter.                  ...        0 min,  0.016 sec
     gradient                   ...        0 min,  0.012 sec
 * total energy  :   -78.0305041 Eh     change       -0.2259185E-03 Eh
   gradient norm :     0.0058887 Eh/α   predicted    -0.1703871E-03 ( -24.58%)
   displ. norm   :     0.6237498 α      lambda       -0.3103278E-03
   maximum displ.:     0.3944104 α      in ANC's #6, #9, #7, ...

........................................................................
.............................. CYCLE   13 ..............................
........................................................................

 iter      E             dE          RMSdq      gap      omega  full diag
   1    -79.0913263 -0.790913E+02  0.864E-02    2.82       0.0  T
   2    -79.0913331 -0.682060E-05  0.506E-02    2.82       1.0  T
   3    -79.0913311  0.201360E-05  0.933E-03    2.82       1.4  T
   4    -79.0913344 -0.330250E-05  0.203E-03    2.82       6.4  T
   5    -79.0913345 -0.960563E-07  0.116E-03    2.82      11.1  T
   6    -79.0913345 -0.110599E-07  0.256E-04    2.82      50.4  T
   7    -79.0913345 -0.829374E-09  0.123E-04    2.82     104.6  T
     SCC iter.                  ...        0 min,  0.018 sec
     gradient                   ...        0 min,  0.012 sec
 * total energy  :   -78.0307461 Eh     change       -0.2420390E-03 Eh
   gradient norm :     0.0078745 Eh/α   predicted    -0.2155315E-03 ( -10.95%)
   displ. norm   :     0.4491808 α      lambda       -0.3079874E-03
   maximum displ.:     0.2839712 α      in ANC's #6, #9, #3, ...

........................................................................
.............................. CYCLE   14 ..............................
........................................................................

 iter      E             dE          RMSdq      gap      omega  full diag
   1    -79.0930991 -0.790931E+02  0.727E-02    2.83       0.0  T
   2    -79.0931054 -0.625582E-05  0.425E-02    2.83       1.0  T
   3    -79.0931040  0.130858E-05  0.868E-03    2.84       1.5  T
   4    -79.0931064 -0.235658E-05  0.176E-03    2.84       7.3  T
   5    -79.0931065 -0.689904E-07  0.101E-03    2.84      12.8  T
   6    -79.0931065 -0.787352E-08  0.311E-04    2.84      41.5  T
   7    -79.0931065 -0.178578E-08  0.116E-04    2.84     111.4  T
     SCC iter.                  ...        0 min,  0.018 sec
     gradient                   ...        0 min,  0.012 sec
 * total energy  :   -78.0309782 Eh     change       -0.2320575E-03 Eh
   gradient norm :     0.0085807 Eh/α   predicted    -0.1850720E-03 ( -20.25%)
   displ. norm   :     0.4991489 α      lambda       -0.2973709E-03
   maximum displ.:     0.3179416 α      in ANC's #6, #9, #7, ...

........................................................................
.............................. CYCLE   15 ..............................
........................................................................

 iter      E             dE          RMSdq      gap      omega  full diag
   1    -79.0921182 -0.790921E+02  0.745E-02    2.85       0.0  T
   2    -79.0921230 -0.477554E-05  0.435E-02    2.85       1.0  T
   3    -79.0921214  0.163770E-05  0.852E-03    2.85       1.5  T
   4    -79.0921240 -0.265954E-05  0.168E-03    2.85       7.7  T
   5    -79.0921241 -0.548700E-07  0.994E-04    2.85      13.0  T
   6    -79.0921241 -0.798754E-08  0.272E-04    2.85      47.4  T
     SCC iter.                  ...        0 min,  0.016 sec
     gradient                   ...        0 min,  0.012 sec
 * total energy  :   -78.0312178 Eh     change       -0.2395978E-03 Eh
   gradient norm :     0.0084956 Eh/α   predicted    -0.1857293E-03 ( -22.48%)
   displ. norm   :     0.3890844 α      lambda       -0.4560832E-03
   maximum displ.:     0.2202953 α      in ANC's #6, #9, #8, ...

........................................................................
.............................. CYCLE   16 ..............................
........................................................................

 iter      E             dE          RMSdq      gap      omega  full diag
   1    -79.1011275 -0.791011E+02  0.751E-02    2.87       0.0  T
   2    -79.1011373 -0.982629E-05  0.432E-02    2.87       1.0  T
   3    -79.1011349  0.239904E-05  0.122E-02    2.87       1.1  T
   4    -79.1011393 -0.438093E-05  0.185E-03    2.87       7.0  T
   5    -79.1011393 -0.359897E-07  0.110E-03    2.87      11.7  T
   6    -79.1011393 -0.586026E-08  0.503E-04    2.87      25.7  T
   7    -79.1011393 -0.598141E-08  0.143E-04    2.87      90.2  T
     SCC iter.                  ...        0 min,  0.049 sec
     gradient                   ...        0 min,  0.012 sec
 * total energy  :   -78.0313931 Eh     change       -0.1753452E-03 Eh
   gradient norm :     0.0100779 Eh/α   predicted    -0.2625629E-03 (  49.74%)
   displ. norm   :     0.6118082 α      lambda       -0.4289590E-03
   maximum displ.:     0.3852052 α      in ANC's #6, #9, #7, ...

........................................................................
.............................. CYCLE   17 ..............................
........................................................................

 iter      E             dE          RMSdq      gap      omega  full diag
   1    -79.0910483 -0.790910E+02  0.887E-02    2.88       0.0  T
   2    -79.0910575 -0.914915E-05  0.521E-02    2.88       1.0  T
   3    -79.0910561  0.138490E-05  0.906E-03    2.89       1.4  T
   4    -79.0910588 -0.269829E-05  0.221E-03    2.88       5.8  T
   5    -79.0910589 -0.101246E-06  0.129E-03    2.88      10.0  T
   6    -79.0910589 -0.197088E-07  0.507E-04    2.88      25.4  T
   7    -79.0910589 -0.224745E-08  0.152E-04    2.88      84.8  T
     SCC iter.                  ...        0 min,  0.018 sec
     gradient                   ...        0 min,  0.012 sec
 * total energy  :   -78.0316161 Eh     change       -0.2229855E-03 Eh
   gradient norm :     0.0098112 Eh/α   predicted    -0.2947631E-03 (  32.19%)
   displ. norm   :     0.0796008 α      lambda       -0.1527529E-03
   maximum displ.:     0.0297509 α      in ANC's #8, #6, #2, ...

........................................................................
.............................. CYCLE   18 ..............................
........................................................................

 iter      E             dE          RMSdq      gap      omega  full diag
   1    -79.0927424 -0.790927E+02  0.164E-02    2.89       0.0  T
   2    -79.0927456 -0.318935E-05  0.992E-03    2.89       1.3  T
   3    -79.0927458 -0.252874E-06  0.481E-03    2.89       2.7  T
   4    -79.0927460 -0.140209E-06  0.877E-04    2.88      14.7  T
   5    -79.0927460 -0.287303E-07  0.378E-04    2.88      34.1  T
     SCC iter.                  ...        0 min,  0.013 sec
     gradient                   ...        0 min,  0.012 sec
 * total energy  :   -78.0317287 Eh     change       -0.1126286E-03 Eh
   gradient norm :     0.0052891 Eh/α   predicted    -0.7686086E-04 ( -31.76%)
   displ. norm   :     0.3611642 α      lambda       -0.2557400E-03
   maximum displ.:     0.1914824 α      in ANC's #6, #8, #7, ...

........................................................................
.............................. CYCLE   19 ..............................
........................................................................

 iter      E             dE          RMSdq      gap      omega  full diag
   1    -79.0961792 -0.790962E+02  0.529E-02    2.91       0.0  T
   2    -79.0961829 -0.376897E-05  0.313E-02    2.90       1.0  T
   3    -79.0961818  0.111304E-05  0.651E-03    2.90       2.0  T
   4    -79.0961835 -0.169361E-05  0.144E-03    2.90       9.0  T
   5    -79.0961836 -0.682149E-07  0.691E-04    2.90      18.7  T
   6    -79.0961836 -0.444236E-08  0.319E-04    2.90      40.5  T
     SCC iter.                  ...        0 min,  0.016 sec
     gradient                   ...        0 min,  0.012 sec
 * total energy  :   -78.0319002 Eh     change       -0.1714587E-03 Eh
   gradient norm :     0.0042717 Eh/α   predicted    -0.1445602E-03 ( -15.69%)
   displ. norm   :     0.4906699 α      lambda       -0.1592711E-03
   maximum displ.:     0.2831117 α      in ANC's #6, #9, #7, ...

........................................................................
.............................. CYCLE   20 ..............................
........................................................................

 iter      E             dE          RMSdq      gap      omega  full diag
   1    -79.0946953 -0.790947E+02  0.634E-02    2.92       0.0  T
   2    -79.0946981 -0.274522E-05  0.373E-02    2.92       1.0  T
   3    -79.0946965  0.156081E-05  0.690E-03    2.92       1.9  T
   4    -79.0946987 -0.220758E-05  0.153E-03    2.92       8.4  T
   5    -79.0946988 -0.631602E-07  0.809E-04    2.92      16.0  T
   6    -79.0946988 -0.300811E-08  0.263E-04    2.92      49.0  T
     SCC iter.                  ...        0 min,  0.016 sec
     gradient                   ...        0 min,  0.012 sec
 * total energy  :   -78.0320118 Eh     change       -0.1116562E-03 Eh
   gradient norm :     0.0057978 Eh/α   predicted    -0.9881032E-04 ( -11.50%)
   displ. norm   :     0.3705273 α      lambda       -0.1818182E-03
   maximum displ.:     0.1735910 α      in ANC's #6, #7, #2, ...
 * RMSD in coord.:     0.7293117 α      energy gain  -0.1356287E-01 Eh

generating ANC from exact Hessian ...
Using Lindh-Hessian (1995)
 Shifting diagonal of input Hessian by    9.8779455959624694E-003
 Lowest  eigenvalues of input Hessian
    0.000000    0.000000    0.000000    0.000000    0.000000    0.000000
    0.010000    0.010081    0.010389    0.010436    0.010518    0.010664
    0.010768    0.010937    0.011090    0.011790    0.012043    0.012486
 Highest eigenvalues
    2.019975    2.055277    2.179008    2.256917    2.360789    2.385462


........................................................................
.............................. CYCLE   21 ..............................
........................................................................

 iter      E             dE          RMSdq      gap      omega  full diag
   1    -79.0980186 -0.790980E+02  0.472E-02    2.93       0.0  T
   2    -79.0980233 -0.471185E-05  0.276E-02    2.93       1.0  T
   3    -79.0980222  0.102993E-05  0.824E-03    2.93       1.6  T
   4    -79.0980239 -0.168722E-05  0.155E-03    2.93       8.3  T
   5    -79.0980240 -0.102585E-06  0.602E-04    2.93      21.4  T
   6    -79.0980240 -0.156311E-08  0.256E-04    2.93      50.5  T
     SCC iter.                  ...        0 min,  0.016 sec
     gradient                   ...        0 min,  0.012 sec
 * total energy  :   -78.0321433 Eh     change       -0.1314367E-03 Eh
   gradient norm :     0.0045506 Eh/α   predicted     0.0000000E+00 (-100.00%)
   displ. norm   :     0.0575503 α      lambda       -0.7375886E-04
   maximum displ.:     0.0220129 α      in ANC's #3, #6, #1, ...

........................................................................
.............................. CYCLE   22 ..............................
........................................................................

 iter      E             dE          RMSdq      gap      omega  full diag
   1    -79.0976420 -0.790976E+02  0.111E-02    2.92       0.0  T
   2    -79.0976425 -0.565296E-06  0.672E-03    2.93       1.9  T
   3    -79.0976425  0.568009E-07  0.238E-03    2.93       5.4  T
   4    -79.0976426 -0.143772E-06  0.480E-04    2.93      26.9  T
   5    -79.0976426 -0.733654E-08  0.216E-04    2.93      59.7  T
     SCC iter.                  ...        0 min,  0.013 sec
     gradient                   ...        0 min,  0.016 sec
 * total energy  :   -78.0322045 Eh     change       -0.6122658E-04 Eh
   gradient norm :     0.0021819 Eh/α   predicted    -0.3766650E-04 ( -38.48%)
   displ. norm   :     0.1720235 α      lambda       -0.1339136E-03
   maximum displ.:     0.0697925 α      in ANC's #3, #6, #1, ...

........................................................................
.............................. CYCLE   23 ..............................
........................................................................

 iter      E             dE          RMSdq      gap      omega  full diag
   1    -79.0969818 -0.790970E+02  0.246E-02    2.92       0.0  T
   2    -79.0969834 -0.160823E-05  0.146E-02    2.92       1.0  T
   3    -79.0969831  0.381261E-06  0.411E-03    2.92       3.1  T
   4    -79.0969837 -0.648212E-06  0.102E-03    2.92      12.7  T
   5    -79.0969837 -0.300959E-07  0.472E-04    2.92      27.4  T
   6    -79.0969837 -0.221856E-08  0.168E-04    2.92      76.8  T
     SCC iter.                  ...        0 min,  0.026 sec
     gradient                   ...        0 min,  0.012 sec
 * total energy  :   -78.0322944 Eh     change       -0.8992932E-04 Eh
   gradient norm :     0.0030819 Eh/α   predicted    -0.6893872E-04 ( -23.34%)
   displ. norm   :     0.1610174 α      lambda       -0.6919069E-04
   maximum displ.:     0.0676152 α      in ANC's #3, #6, #1, ...

........................................................................
.............................. CYCLE   24 ..............................
........................................................................

 iter      E             dE          RMSdq      gap      omega  full diag
   1    -79.0967773 -0.790968E+02  0.192E-02    2.92       0.0  T
   2    -79.0967777 -0.422363E-06  0.112E-02    2.92       1.2  T
   3    -79.0967776  0.136306E-06  0.222E-03    2.92       5.8  T
   4    -79.0967778 -0.224275E-06  0.666E-04    2.92      19.4  T
   5    -79.0967778 -0.102068E-07  0.319E-04    2.92      40.5  T
     SCC iter.                  ...        0 min,  0.013 sec
     gradient                   ...        0 min,  0.012 sec
 * total energy  :   -78.0323510 Eh     change       -0.5656512E-04 Eh
   gradient norm :     0.0038792 Eh/α   predicted    -0.3580597E-04 ( -36.70%)
   displ. norm   :     0.2637460 α      lambda       -0.1071831E-03
   maximum displ.:     0.1104164 α      in ANC's #3, #6, #1, ...

........................................................................
.............................. CYCLE   25 ..............................
........................................................................

 iter      E             dE          RMSdq      gap      omega  full diag
   1    -79.0967239 -0.790967E+02  0.297E-02    2.92       0.0  T
   2    -79.0967246 -0.674486E-06  0.172E-02    2.93       1.0  T
   3    -79.0967245  0.118310E-06  0.269E-03    2.92       4.8  T
   4    -79.0967248 -0.270985E-06  0.874E-04    2.93      14.8  T
   5    -79.0967248 -0.118500E-07  0.442E-04    2.93      29.2  T
     SCC iter.                  ...        0 min,  0.013 sec
     gradient                   ...        0 min,  0.012 sec
 * total energy  :   -78.0324378 Eh     change       -0.8680008E-04 Eh
   gradient norm :     0.0035448 Eh/α   predicted    -0.5732034E-04 ( -33.96%)
   displ. norm   :     0.3458492 α      lambda       -0.1262586E-03
   maximum displ.:     0.1441957 α      in ANC's #3, #6, #1, ...

........................................................................
.............................. CYCLE   26 ..............................
........................................................................

 iter      E             dE          RMSdq      gap      omega  full diag
   1    -79.0966494 -0.790966E+02  0.380E-02    2.93       0.0  T
   2    -79.0966506 -0.117148E-05  0.221E-02    2.93       1.0  T
   3    -79.0966505  0.869461E-07  0.324E-03    2.93       4.0  T
   4    -79.0966508 -0.317973E-06  0.977E-04    2.93      13.2  T
   5    -79.0966508 -0.742091E-08  0.528E-04    2.93      24.5  T
     SCC iter.                  ...        0 min,  0.013 sec
     gradient                   ...        0 min,  0.012 sec
 * total energy  :   -78.0325380 Eh     change       -0.1002192E-03 Eh
   gradient norm :     0.0032657 Eh/α   predicted    -0.7068416E-04 ( -29.47%)
   displ. norm   :     0.3822075 α      lambda       -0.1268061E-03
   maximum displ.:     0.1573968 α      in ANC's #6, #3, #1, ...

........................................................................
.............................. CYCLE   27 ..............................
........................................................................

 iter      E             dE          RMSdq      gap      omega  full diag
   1    -79.0965965 -0.790966E+02  0.415E-02    2.93       0.0  T
   2    -79.0965982 -0.170051E-05  0.241E-02    2.93       1.0  T
   3    -79.0965981  0.724820E-07  0.374E-03    2.93       3.5  T
   4    -79.0965985 -0.353178E-06  0.967E-04    2.93      13.3  T
   5    -79.0965985 -0.267221E-08  0.498E-04    2.93      25.9  T
     SCC iter.                  ...        0 min,  0.013 sec
     gradient                   ...        0 min,  0.012 sec
 * total energy  :   -78.0326394 Eh     change       -0.1013415E-03 Eh
   gradient norm :     0.0037265 Eh/α   predicted    -0.7266701E-04 ( -28.29%)
   displ. norm   :     0.4188965 α      lambda       -0.1383937E-03
   maximum displ.:     0.1702684 α      in ANC's #6, #3, #1, ...

........................................................................
.............................. CYCLE   28 ..............................
........................................................................

 iter      E             dE          RMSdq      gap      omega  full diag
   1    -79.0966742 -0.790967E+02  0.460E-02    2.93       0.0  T
   2    -79.0966767 -0.255099E-05  0.267E-02    2.93       1.0  T
   3    -79.0966766  0.110035E-06  0.466E-03    2.93       2.8  T
   4    -79.0966771 -0.474955E-06  0.103E-03    2.93      12.5  T
   5    -79.0966771 -0.242144E-08  0.522E-04    2.93      24.7  T
   6    -79.0966771 -0.357419E-08  0.172E-04    2.93      74.9  T
     SCC iter.                  ...        0 min,  0.016 sec
     gradient                   ...        0 min,  0.012 sec
 * total energy  :   -78.0327497 Eh     change       -0.1103442E-03 Eh
   gradient norm :     0.0040796 Eh/α   predicted    -0.8137830E-04 ( -26.25%)
   displ. norm   :     0.4231038 α      lambda       -0.1405732E-03
   maximum displ.:     0.1736129 α      in ANC's #2, #1, #6, ...

........................................................................
.............................. CYCLE   29 ..............................
........................................................................

 iter      E             dE          RMSdq      gap      omega  full diag
   1    -79.0969095 -0.790969E+02  0.478E-02    2.93       0.0  T
   2    -79.0969125 -0.299642E-05  0.279E-02    2.93       1.0  T
   3    -79.0969123  0.161480E-06  0.517E-03    2.93       2.5  T
   4    -79.0969129 -0.570474E-06  0.107E-03    2.93      12.0  T
   5    -79.0969129 -0.369288E-08  0.595E-04    2.93      21.7  T
   6    -79.0969129 -0.574525E-08  0.194E-04    2.93      66.6  T
     SCC iter.                  ...        0 min,  0.016 sec
     gradient                   ...        0 min,  0.012 sec
 * total energy  :   -78.0328605 Eh     change       -0.1108246E-03 Eh
   gradient norm :     0.0039017 Eh/α   predicted    -0.8286983E-04 ( -25.22%)
   displ. norm   :     0.4340058 α      lambda       -0.1278662E-03
   maximum displ.:     0.1901906 α      in ANC's #2, #1, #6, ...

........................................................................
.............................. CYCLE   30 ..............................
........................................................................

 iter      E             dE          RMSdq      gap      omega  full diag
   1    -79.0966166 -0.790966E+02  0.497E-02    2.94       0.0  T
   2    -79.0966190 -0.245115E-05  0.291E-02    2.94       1.0  T
   3    -79.0966189  0.164877E-06  0.462E-03    2.94       2.8  T
   4    -79.0966194 -0.545621E-06  0.109E-03    2.94      11.9  T
   5    -79.0966194 -0.303844E-08  0.629E-04    2.94      20.5  T
   6    -79.0966194 -0.795913E-08  0.172E-04    2.94      75.1  T
     SCC iter.                  ...        0 min,  0.017 sec
     gradient                   ...        0 min,  0.012 sec
 * total energy  :   -78.0329641 Eh     change       -0.1036225E-03 Eh
   gradient norm :     0.0038094 Eh/α   predicted    -0.7597916E-04 ( -26.68%)
   displ. norm   :     0.4383809 α      lambda       -0.1328892E-03
   maximum displ.:     0.2077303 α      in ANC's #2, #1, #6, ...

........................................................................
.............................. CYCLE   31 ..............................
........................................................................

 iter      E             dE          RMSdq      gap      omega  full diag
   1    -79.0969545 -0.790970E+02  0.511E-02    2.94       0.0  T
   2    -79.0969560 -0.150475E-05  0.301E-02    2.95       1.0  T
   3    -79.0969559  0.101053E-06  0.358E-03    2.95       3.6  T
   4    -79.0969563 -0.415855E-06  0.113E-03    2.95      11.5  T
   5    -79.0969563 -0.661130E-08  0.663E-04    2.95      19.5  T
   6    -79.0969564 -0.904477E-08  0.153E-04    2.95      84.4  T
     SCC iter.                  ...        0 min,  0.016 sec
     gradient                   ...        0 min,  0.012 sec
 * total energy  :   -78.0330738 Eh     change       -0.1096432E-03 Eh
   gradient norm :     0.0035648 Eh/α   predicted    -0.7921463E-04 ( -27.75%)
   displ. norm   :     0.4914779 α      lambda       -0.1416865E-03
   maximum displ.:     0.2419720 α      in ANC's #2, #1, #6, ...

........................................................................
.............................. CYCLE   32 ..............................
........................................................................

 iter      E             dE          RMSdq      gap      omega  full diag
   1    -79.0962460 -0.790962E+02  0.569E-02    2.95       0.0  T
   2    -79.0962471 -0.101569E-05  0.333E-02    2.95       1.0  T
   3    -79.0962470  0.389905E-07  0.315E-03    2.96       4.1  T
   4    -79.0962474 -0.355049E-06  0.127E-03    2.96      10.2  T
   5    -79.0962474 -0.132771E-07  0.682E-04    2.96      18.9  T
   6    -79.0962474 -0.843255E-08  0.159E-04    2.96      81.1  T
     SCC iter.                  ...        0 min,  0.016 sec
     gradient                   ...        0 min,  0.012 sec
 * total energy  :   -78.0331925 Eh     change       -0.1186947E-03 Eh
   gradient norm :     0.0035249 Eh/α   predicted    -0.8795907E-04 ( -25.89%)
   displ. norm   :     0.4358481 α      lambda       -0.1646070E-03
   maximum displ.:     0.2462272 α      in ANC's #2, #1, #6, ...

........................................................................
.............................. CYCLE   33 ..............................
........................................................................

 iter      E             dE          RMSdq      gap      omega  full diag
   1    -79.0999920 -0.791000E+02  0.549E-02    2.96       0.0  T
   2    -79.0999936 -0.159572E-05  0.320E-02    2.96       1.0  T
   3    -79.0999934  0.217050E-06  0.391E-03    2.97       3.3  T
   4    -79.0999939 -0.559936E-06  0.122E-03    2.97      10.6  T
   5    -79.0999940 -0.189853E-07  0.679E-04    2.97      19.0  T
   6    -79.0999940 -0.427829E-08  0.252E-04    2.97      51.2  T
     SCC iter.                  ...        0 min,  0.016 sec
     gradient                   ...        0 min,  0.012 sec
 * total energy  :   -78.0333022 Eh     change       -0.1097531E-03 Eh
   gradient norm :     0.0042059 Eh/α   predicted    -0.9794951E-04 ( -10.75%)
   displ. norm   :     0.5659104 α      lambda       -0.1586722E-03
   maximum displ.:     0.2880890 α      in ANC's #2, #1, #6, ...

........................................................................
.............................. CYCLE   34 ..............................
........................................................................

 iter      E             dE          RMSdq      gap      omega  full diag
   1    -79.0948593 -0.790949E+02  0.653E-02    2.96       0.0  T
   2    -79.0948615 -0.211874E-05  0.380E-02    2.97       1.0  T
   3    -79.0948613  0.180021E-06  0.411E-03    2.97       3.1  T
   4    -79.0948619 -0.600330E-06  0.172E-03    2.97       7.5  T
   5    -79.0948619 -0.690841E-07  0.832E-04    2.97      15.5  T
   6    -79.0948619 -0.385087E-08  0.217E-04    2.97      59.4  T
     SCC iter.                  ...        0 min,  0.016 sec
     gradient                   ...        0 min,  0.012 sec
 * total energy  :   -78.0333991 Eh     change       -0.9691234E-04 Eh
   gradient norm :     0.0046624 Eh/α   predicted    -0.1047444E-03 (   8.08%)
   displ. norm   :     0.2015469 α      lambda       -0.9008734E-04
   maximum displ.:     0.1278912 α      in ANC's #2, #1, #6, ...

........................................................................
.............................. CYCLE   35 ..............................
........................................................................

 iter      E             dE          RMSdq      gap      omega  full diag
   1    -79.0964235 -0.790964E+02  0.231E-02    2.97       0.0  T
   2    -79.0964238 -0.332223E-06  0.134E-02    2.97       1.0  T
   3    -79.0964237  0.133955E-06  0.208E-03    2.97       6.2  T
   4    -79.0964239 -0.218433E-06  0.544E-04    2.97      23.7  T
   5    -79.0964239 -0.394843E-08  0.294E-04    2.97      43.9  T
     SCC iter.                  ...        0 min,  0.013 sec
     gradient                   ...        0 min,  0.012 sec
 * total energy  :   -78.0334777 Eh     change       -0.7854446E-04 Eh
   gradient norm :     0.0036567 Eh/α   predicted    -0.4687527E-04 ( -40.32%)
   displ. norm   :     0.3481015 α      lambda       -0.1686703E-03
   maximum displ.:     0.2273805 α      in ANC's #2, #1, #6, ...

........................................................................
.............................. CYCLE   36 ..............................
........................................................................

 iter      E             dE          RMSdq      gap      omega  full diag
   1    -79.0991959 -0.790992E+02  0.388E-02    2.97       0.0  T
   2    -79.0991973 -0.145626E-05  0.227E-02    2.96       1.0  T
   3    -79.0991968  0.523683E-06  0.423E-03    2.96       3.1  T
   4    -79.0991976 -0.800444E-06  0.105E-03    2.96      12.3  T
   5    -79.0991976 -0.292476E-07  0.522E-04    2.96      24.7  T
   6    -79.0991976 -0.227845E-08  0.166E-04    2.96      78.0  T
     SCC iter.                  ...        0 min,  0.016 sec
     gradient                   ...        0 min,  0.012 sec
 * total energy  :   -78.0336125 Eh     change       -0.1348135E-03 Eh
   gradient norm :     0.0026447 Eh/α   predicted    -0.9455570E-04 ( -29.86%)
   displ. norm   :     0.4985270 α      lambda       -0.1670376E-03
   maximum displ.:     0.3172700 α      in ANC's #2, #1, #6, ...

........................................................................
.............................. CYCLE   37 ..............................
........................................................................

 iter      E             dE          RMSdq      gap      omega  full diag
   1    -79.0988873 -0.790989E+02  0.548E-02    2.96       0.0  T
   2    -79.0988892 -0.193014E-05  0.320E-02    2.96       1.0  T
   3    -79.0988885  0.692068E-06  0.494E-03    2.96       2.6  T
   4    -79.0988896 -0.109815E-05  0.135E-03    2.96       9.6  T
   5    -79.0988896 -0.470020E-07  0.695E-04    2.96      18.6  T
   6    -79.0988896 -0.394577E-08  0.158E-04    2.96      81.5  T
     SCC iter.                  ...        0 min,  0.016 sec
     gradient                   ...        0 min,  0.012 sec
 * total energy  :   -78.0337604 Eh     change       -0.1479416E-03 Eh
   gradient norm :     0.0039306 Eh/α   predicted    -0.1042771E-03 ( -29.51%)
   displ. norm   :     0.5319248 α      lambda       -0.1809876E-03
   maximum displ.:     0.3428617 α      in ANC's #2, #1, #6, ...

........................................................................
.............................. CYCLE   38 ..............................
........................................................................

 iter      E             dE          RMSdq      gap      omega  full diag
   1    -79.0978726 -0.790979E+02  0.576E-02    2.96       0.0  T
   2    -79.0978743 -0.162179E-05  0.337E-02    2.95       1.0  T
   3    -79.0978737  0.551045E-06  0.454E-03    2.96       2.8  T
   4    -79.0978746 -0.930173E-06  0.135E-03    2.95       9.6  T
   5    -79.0978747 -0.422062E-07  0.703E-04    2.96      18.4  T
   6    -79.0978747 -0.407202E-08  0.134E-04    2.96      96.6  T
     SCC iter.                  ...        0 min,  0.021 sec
     gradient                   ...        0 min,  0.012 sec
 * total energy  :   -78.0339254 Eh     change       -0.1649133E-03 Eh
   gradient norm :     0.0048514 Eh/α   predicted    -0.1160997E-03 ( -29.60%)
   displ. norm   :     0.5645674 α      lambda       -0.2143158E-03
   maximum displ.:     0.3716331 α      in ANC's #2, #1, #6, ...

........................................................................
.............................. CYCLE   39 ..............................
........................................................................

 iter      E             dE          RMSdq      gap      omega  full diag
   1    -79.0974732 -0.790975E+02  0.593E-02    2.95       0.0  T
   2    -79.0974745 -0.128314E-05  0.347E-02    2.95       1.0  T
   3    -79.0974742  0.261545E-06  0.379E-03    2.96       3.4  T
   4    -79.0974749 -0.614922E-06  0.128E-03    2.96      10.1  T
   5    -79.0974749 -0.249964E-07  0.683E-04    2.96      18.9  T
   6    -79.0974749 -0.614939E-08  0.112E-04    2.96     115.4  T
     SCC iter.                  ...        0 min,  0.016 sec
     gradient                   ...        0 min,  0.012 sec
 * total energy  :   -78.0341176 Eh     change       -0.1922842E-03 Eh
   gradient norm :     0.0051077 Eh/α   predicted    -0.1413158E-03 ( -26.51%)
   displ. norm   :     0.6113736 α      lambda       -0.2373646E-03
   maximum displ.:     0.4073703 α      in ANC's #2, #1, #7, ...

........................................................................
.............................. CYCLE   40 ..............................
........................................................................

 iter      E             dE          RMSdq      gap      omega  full diag
   1    -79.0968055 -0.790968E+02  0.626E-02    2.95       0.0  T
   2    -79.0968067 -0.125795E-05  0.366E-02    2.96       1.0  T
   3    -79.0968068 -0.793639E-07  0.299E-03    2.96       4.3  T
   4    -79.0968071 -0.288525E-06  0.128E-03    2.96      10.1  T
   5    -79.0968071 -0.954529E-08  0.666E-04    2.96      19.4  T
   6    -79.0968071 -0.106453E-07  0.134E-04    2.96      96.1  T
     SCC iter.                  ...        0 min,  0.016 sec
     gradient                   ...        0 min,  0.012 sec
 * total energy  :   -78.0343264 Eh     change       -0.2087627E-03 Eh
   gradient norm :     0.0051051 Eh/α   predicted    -0.1630446E-03 ( -21.90%)
   displ. norm   :     0.6074157 α      lambda       -0.2415671E-03
   maximum displ.:     0.4122564 α      in ANC's #2, #1, #7, ...

........................................................................
.............................. CYCLE   41 ..............................
........................................................................

 iter      E             dE          RMSdq      gap      omega  full diag
   1    -79.0974832 -0.790975E+02  0.591E-02    2.96       0.0  T
   2    -79.0974846 -0.137917E-05  0.345E-02    2.96       1.0  T
   3    -79.0974848 -0.178061E-06  0.263E-03    2.96       4.9  T
   4    -79.0974850 -0.169624E-06  0.116E-03    2.96      11.1  T
   5    -79.0974850 -0.132722E-08  0.594E-04    2.96      21.7  T
   6    -79.0974850 -0.919488E-08  0.157E-04    2.96      82.3  T
     SCC iter.                  ...        0 min,  0.016 sec
     gradient                   ...        0 min,  0.012 sec
 * total energy  :   -78.0345319 Eh     change       -0.2055149E-03 Eh
   gradient norm :     0.0047876 Eh/α   predicted    -0.1653480E-03 ( -19.54%)
   displ. norm   :     0.6210301 α      lambda       -0.2289792E-03
   maximum displ.:     0.4266461 α      in ANC's #2, #1, #7, ...

........................................................................
.............................. CYCLE   42 ..............................
........................................................................

 iter      E             dE          RMSdq      gap      omega  full diag
   1    -79.0959590 -0.790960E+02  0.608E-02    2.96       0.0  T
   2    -79.0959604 -0.139124E-05  0.356E-02    2.96       1.0  T
   3    -79.0959604  0.344540E-07  0.336E-03    2.96       3.8  T
   4    -79.0959608 -0.399703E-06  0.145E-03    2.96       8.9  T
   5    -79.0959608 -0.361006E-07  0.723E-04    2.96      17.9  T
   6    -79.0959608 -0.631550E-08  0.163E-04    2.96      79.4  T
     SCC iter.                  ...        0 min,  0.016 sec
     gradient                   ...        0 min,  0.012 sec
 * total energy  :   -78.0347231 Eh     change       -0.1911726E-03 Eh
   gradient norm :     0.0054237 Eh/α   predicted    -0.1586471E-03 ( -17.01%)
   displ. norm   :     0.5745119 α      lambda       -0.2657207E-03
   maximum displ.:     0.4016947 α      in ANC's #2, #7, #1, ...
 * RMSD in coord.:     0.9808303 α      energy gain  -0.2711260E-02 Eh

generating ANC from exact Hessian ...
Using Lindh-Hessian (1995)
 Shifting diagonal of input Hessian by    9.8845798518586003E-003
 Lowest  eigenvalues of input Hessian
    0.000000    0.000000    0.000000    0.000000    0.000000    0.000000
    0.010000    0.010111    0.010250    0.010438    0.010547    0.010598
    0.010751    0.010908    0.011025    0.011872    0.012168    0.012543
 Highest eigenvalues
    2.020194    2.059875    2.179741    2.261318    2.362533    2.386686


........................................................................
.............................. CYCLE   43 ..............................
........................................................................

 iter      E             dE          RMSdq      gap      omega  full diag
   1    -79.1010338 -0.791010E+02  0.518E-02    2.96       0.0  T
   2    -79.1010363 -0.241114E-05  0.300E-02    2.96       1.0  T
   3    -79.1010361  0.146460E-06  0.438E-03    2.96       2.9  T
   4    -79.1010366 -0.476118E-06  0.133E-03    2.97       9.7  T
   5    -79.1010366 -0.444827E-07  0.668E-04    2.97      19.3  T
   6    -79.1010366 -0.510619E-08  0.190E-04    2.97      67.9  T
     SCC iter.                  ...        0 min,  0.016 sec
     gradient                   ...        0 min,  0.012 sec
 * total energy  :   -78.0349104 Eh     change       -0.1872946E-03 Eh
   gradient norm :     0.0059382 Eh/α   predicted     0.0000000E+00 (-100.00%)
   displ. norm   :     0.0584718 α      lambda       -0.1045343E-03
   maximum displ.:     0.0264669 α      in ANC's #2, #11, #1, ...

........................................................................
.............................. CYCLE   44 ..............................
........................................................................

 iter      E             dE          RMSdq      gap      omega  full diag
   1    -79.1006622 -0.791007E+02  0.126E-02    2.96       0.0  T
   2    -79.1006628 -0.550379E-06  0.726E-03    2.96       1.8  T
   3    -79.1006628  0.248097E-07  0.233E-03    2.96       5.5  T
   4    -79.1006628 -0.775031E-07  0.532E-04    2.96      24.3  T
   5    -79.1006628 -0.101639E-07  0.235E-04    2.96      55.0  T
     SCC iter.                  ...        0 min,  0.013 sec
     gradient                   ...        0 min,  0.012 sec
 * total energy  :   -78.0349939 Eh     change       -0.8355480E-04 Eh
   gradient norm :     0.0029361 Eh/α   predicted    -0.5265929E-04 ( -36.98%)
   displ. norm   :     0.1509568 α      lambda       -0.1452078E-03
   maximum displ.:     0.0734581 α      in ANC's #2, #11, #1, ...

........................................................................
.............................. CYCLE   45 ..............................
........................................................................

 iter      E             dE          RMSdq      gap      omega  full diag
   1    -79.0999341 -0.790999E+02  0.233E-02    2.96       0.0  T
   2    -79.0999359 -0.178764E-05  0.135E-02    2.95       1.0  T
   3    -79.0999358  0.680943E-07  0.412E-03    2.95       3.1  T
   4    -79.0999360 -0.241092E-06  0.865E-04    2.95      14.9  T
   5    -79.0999360 -0.215226E-07  0.425E-04    2.95      30.4  T
     SCC iter.                  ...        0 min,  0.013 sec
     gradient                   ...        0 min,  0.012 sec
 * total energy  :   -78.0350892 Eh     change       -0.9529513E-04 Eh
   gradient norm :     0.0026207 Eh/α   predicted    -0.7425903E-04 ( -22.07%)
   displ. norm   :     0.1307520 α      lambda       -0.6302870E-04
   maximum displ.:     0.0689647 α      in ANC's #2, #11, #1, ...

........................................................................
.............................. CYCLE   46 ..............................
........................................................................

 iter      E             dE          RMSdq      gap      omega  full diag
   1    -79.0996230 -0.790996E+02  0.166E-02    2.95       0.0  T
   2    -79.0996234 -0.426722E-06  0.972E-03    2.95       1.3  T
   3    -79.0996234  0.201009E-07  0.188E-03    2.95       6.9  T
   4    -79.0996235 -0.752976E-07  0.381E-04    2.95      33.9  T
   5    -79.0996235 -0.553285E-09  0.179E-04    2.95      72.0  T
     SCC iter.                  ...        0 min,  0.013 sec
     gradient                   ...        0 min,  0.012 sec
 * total energy  :   -78.0351401 Eh     change       -0.5083177E-04 Eh
   gradient norm :     0.0035582 Eh/α   predicted    -0.3231088E-04 ( -36.44%)
   displ. norm   :     0.2000914 α      lambda       -0.8718368E-04
   maximum displ.:     0.1083072 α      in ANC's #2, #1, #11, ...

........................................................................
.............................. CYCLE   47 ..............................
........................................................................

 iter      E             dE          RMSdq      gap      omega  full diag
   1    -79.0994543 -0.790995E+02  0.244E-02    2.95       0.0  T
   2    -79.0994547 -0.379076E-06  0.144E-02    2.95       1.0  T
   3    -79.0994546  0.766585E-07  0.203E-03    2.95       6.4  T
   4    -79.0994548 -0.159709E-06  0.556E-04    2.95      23.2  T
   5    -79.0994548 -0.398673E-08  0.324E-04    2.95      39.8  T
     SCC iter.                  ...        0 min,  0.013 sec
     gradient                   ...        0 min,  0.012 sec
 * total energy  :   -78.0352079 Eh     change       -0.6787447E-04 Eh
   gradient norm :     0.0033262 Eh/α   predicted    -0.4533767E-04 ( -33.20%)
   displ. norm   :     0.2166391 α      lambda       -0.7893324E-04
   maximum displ.:     0.1232794 α      in ANC's #2, #1, #11, ...

........................................................................
.............................. CYCLE   48 ..............................
........................................................................

 iter      E             dE          RMSdq      gap      omega  full diag
   1    -79.0995698 -0.790996E+02  0.262E-02    2.95       0.0  T
   2    -79.0995701 -0.325056E-06  0.154E-02    2.95       1.0  T
   3    -79.0995699  0.206997E-06  0.243E-03    2.95       5.3  T
   4    -79.0995702 -0.311627E-06  0.608E-04    2.95      21.2  T
   5    -79.0995702 -0.643246E-08  0.342E-04    2.95      37.7  T
     SCC iter.                  ...        0 min,  0.013 sec
     gradient                   ...        0 min,  0.013 sec
 * total energy  :   -78.0352694 Eh     change       -0.6148959E-04 Eh
   gradient norm :     0.0025191 Eh/α   predicted    -0.4131986E-04 ( -32.80%)
   displ. norm   :     0.2053099 α      lambda       -0.6815395E-04
   maximum displ.:     0.1223005 α      in ANC's #2, #1, #6, ...

........................................................................
.............................. CYCLE   49 ..............................
........................................................................

 iter      E             dE          RMSdq      gap      omega  full diag
   1    -79.1000154 -0.791000E+02  0.252E-02    2.95       0.0  T
   2    -79.1000158 -0.399062E-06  0.148E-02    2.95       1.0  T
   3    -79.1000155  0.282628E-06  0.271E-03    2.95       4.8  T
   4    -79.1000159 -0.397554E-06  0.651E-04    2.96      19.8  T
   5    -79.1000159 -0.101679E-07  0.344E-04    2.95      37.6  T
     SCC iter.                  ...        0 min,  0.013 sec
     gradient                   ...        0 min,  0.012 sec
 * total energy  :   -78.0353258 Eh     change       -0.5640770E-04 Eh
   gradient norm :     0.0021441 Eh/α   predicted    -0.3551642E-04 ( -37.04%)
   displ. norm   :     0.2323090 α      lambda       -0.7804512E-04
   maximum displ.:     0.1406959 α      in ANC's #2, #1, #6, ...

........................................................................
.............................. CYCLE   50 ..............................
........................................................................

 iter      E             dE          RMSdq      gap      omega  full diag
   1    -79.1005807 -0.791006E+02  0.291E-02    2.96       0.0  T
   2    -79.1005812 -0.545684E-06  0.170E-02    2.96       1.0  T
   3    -79.1005809  0.336935E-06  0.301E-03    2.96       4.3  T
   4    -79.1005814 -0.487155E-06  0.783E-04    2.96      16.5  T
   5    -79.1005814 -0.139223E-07  0.404E-04    2.96      31.9  T
     SCC iter.                  ...        0 min,  0.013 sec
     gradient                   ...        0 min,  0.012 sec
 * total energy  :   -78.0353924 Eh     change       -0.6653992E-04 Eh
   gradient norm :     0.0025602 Eh/α   predicted    -0.4112930E-04 ( -38.19%)
   displ. norm   :     0.3005130 α      lambda       -0.9777598E-04
   maximum displ.:     0.1817051 α      in ANC's #2, #1, #6, ...

........................................................................
.............................. CYCLE   51 ..............................
........................................................................

 iter      E             dE          RMSdq      gap      omega  full diag
   1    -79.1008435 -0.791008E+02  0.375E-02    2.96       0.0  T
   2    -79.1008442 -0.642104E-06  0.220E-02    2.97       1.0  T
   3    -79.1008439  0.299776E-06  0.308E-03    2.97       4.2  T
   4    -79.1008444 -0.501312E-06  0.943E-04    2.97      13.7  T
   5    -79.1008444 -0.136709E-07  0.496E-04    2.97      26.0  T
     SCC iter.                  ...        0 min,  0.013 sec
     gradient                   ...        0 min,  0.012 sec
 * total energy  :   -78.0354761 Eh     change       -0.8373406E-04 Eh
   gradient norm :     0.0032048 Eh/α   predicted    -0.5330620E-04 ( -36.34%)
   displ. norm   :     0.3716500 α      lambda       -0.1141482E-03
   maximum displ.:     0.2237419 α      in ANC's #2, #1, #6, ...

........................................................................
.............................. CYCLE   52 ..............................
........................................................................

 iter      E             dE          RMSdq      gap      omega  full diag
   1    -79.1006908 -0.791007E+02  0.454E-02    2.97       0.0  T
   2    -79.1006915 -0.693574E-06  0.265E-02    2.97       1.0  T
   3    -79.1006914  0.109417E-06  0.283E-03    2.97       4.6  T
   4    -79.1006917 -0.345006E-06  0.107E-03    2.97      12.1  T
   5    -79.1006917 -0.119992E-07  0.567E-04    2.97      22.8  T
   6    -79.1006917 -0.446413E-08  0.132E-04    2.97      97.5  T
     SCC iter.                  ...        0 min,  0.016 sec
     gradient                   ...        0 min,  0.012 sec
 * total energy  :   -78.0355740 Eh     change       -0.9785524E-04 Eh
   gradient norm :     0.0034812 Eh/α   predicted    -0.6496228E-04 ( -33.61%)
   displ. norm   :     0.4275904 α      lambda       -0.1270744E-03
   maximum displ.:     0.2565956 α      in ANC's #2, #1, #6, ...

........................................................................
.............................. CYCLE   53 ..............................
........................................................................

 iter      E             dE          RMSdq      gap      omega  full diag
   1    -79.1003066 -0.791003E+02  0.506E-02    2.97       0.0  T
   2    -79.1003074 -0.871625E-06  0.296E-02    2.97       1.0  T
   3    -79.1003074  0.508828E-08  0.287E-03    2.97       4.5  T
   4    -79.1003077 -0.270551E-06  0.114E-03    2.97      11.3  T
   5    -79.1003077 -0.122317E-07  0.638E-04    2.97      20.2  T
   6    -79.1003077 -0.718958E-08  0.136E-04    2.97      94.8  T
     SCC iter.                  ...        0 min,  0.017 sec
     gradient                   ...        0 min,  0.012 sec
 * total energy  :   -78.0356828 Eh     change       -0.1088173E-03 Eh
   gradient norm :     0.0034712 Eh/α   predicted    -0.7515978E-04 ( -30.93%)
   displ. norm   :     0.4725482 α      lambda       -0.1428903E-03
   maximum displ.:     0.2833091 α      in ANC's #2, #1, #6, ...

........................................................................
.............................. CYCLE   54 ..............................
........................................................................

 iter      E             dE          RMSdq      gap      omega  full diag
   1    -79.0999784 -0.791000E+02  0.541E-02    2.97       0.0  T
   2    -79.0999796 -0.120350E-05  0.316E-02    2.97       1.0  T
   3    -79.0999796  0.342145E-07  0.326E-03    2.97       4.0  T
   4    -79.0999799 -0.345610E-06  0.120E-03    2.97      10.8  T
   5    -79.0999799 -0.133698E-07  0.675E-04    2.97      19.1  T
   6    -79.0999800 -0.894015E-08  0.146E-04    2.97      88.6  T
     SCC iter.                  ...        0 min,  0.016 sec
     gradient                   ...        0 min,  0.012 sec
 * total energy  :   -78.0358038 Eh     change       -0.1210051E-03 Eh
   gradient norm :     0.0036280 Eh/α   predicted    -0.8740086E-04 ( -27.77%)
   displ. norm   :     0.5059926 α      lambda       -0.1605971E-03
   maximum displ.:     0.3043468 α      in ANC's #2, #1, #9, ...

........................................................................
.............................. CYCLE   55 ..............................
........................................................................

 iter      E             dE          RMSdq      gap      omega  full diag
   1    -79.0998740 -0.790999E+02  0.563E-02    2.97       0.0  T
   2    -79.0998756 -0.160135E-05  0.330E-02    2.97       1.0  T
   3    -79.0998754  0.143935E-06  0.377E-03    2.97       3.4  T
   4    -79.0998759 -0.508233E-06  0.127E-03    2.97      10.1  T
   5    -79.0998760 -0.181358E-07  0.710E-04    2.97      18.2  T
   6    -79.0998760 -0.974333E-08  0.149E-04    2.97      86.5  T
     SCC iter.                  ...        0 min,  0.016 sec
     gradient                   ...        0 min,  0.012 sec
 * total energy  :   -78.0359367 Eh     change       -0.1328735E-03 Eh
   gradient norm :     0.0040903 Eh/α   predicted    -0.1008590E-03 ( -24.09%)
   displ. norm   :     0.5090408 α      lambda       -0.1675518E-03
   maximum displ.:     0.3079006 α      in ANC's #2, #1, #9, ...

........................................................................
.............................. CYCLE   56 ..............................
........................................................................

 iter      E             dE          RMSdq      gap      omega  full diag
   1    -79.1001705 -0.791002E+02  0.560E-02    2.97       0.0  T
   2    -79.1001721 -0.154187E-05  0.328E-02    2.97       1.0  T
   3    -79.1001719  0.128328E-06  0.361E-03    2.97       3.6  T
   4    -79.1001724 -0.493470E-06  0.127E-03    2.97      10.2  T
   5    -79.1001724 -0.138071E-07  0.697E-04    2.97      18.5  T
   6    -79.1001724 -0.103987E-07  0.149E-04    2.97      86.8  T
     SCC iter.                  ...        0 min,  0.016 sec
     gradient                   ...        0 min,  0.012 sec
 * total energy  :   -78.0360709 Eh     change       -0.1342048E-03 Eh
   gradient norm :     0.0043898 Eh/α   predicted    -0.1054880E-03 ( -21.40%)
   displ. norm   :     0.4971167 α      lambda       -0.1490472E-03
   maximum displ.:     0.3021415 α      in ANC's #2, #1, #9, ...

........................................................................
.............................. CYCLE   57 ..............................
........................................................................

 iter      E             dE          RMSdq      gap      omega  full diag
   1    -79.1000268 -0.791000E+02  0.554E-02    2.97       0.0  T
   2    -79.1000279 -0.115902E-05  0.324E-02    2.97       1.0  T
   3    -79.1000280 -0.560738E-07  0.288E-03    2.97       4.5  T
   4    -79.1000283 -0.277901E-06  0.117E-03    2.97      11.0  T
   5    -79.1000283  0.877236E-10  0.593E-04    2.97      21.8  T
   6    -79.1000283 -0.116104E-07  0.131E-04    2.97      98.7  T
     SCC iter.                  ...        0 min,  0.016 sec
     gradient                   ...        0 min,  0.012 sec
 * total energy  :   -78.0361883 Eh     change       -0.1174605E-03 Eh
   gradient norm :     0.0043475 Eh/α   predicted    -0.9294414E-04 ( -20.87%)
   displ. norm   :     0.4385492 α      lambda       -0.1300449E-03
   maximum displ.:     0.2646055 α      in ANC's #2, #1, #10, ...

........................................................................
.............................. CYCLE   58 ..............................
........................................................................

 iter      E             dE          RMSdq      gap      omega  full diag
   1    -79.1013156 -0.791013E+02  0.514E-02    2.97       0.0  T
   2    -79.1013165 -0.919746E-06  0.300E-02    2.97       1.0  T
   3    -79.1013167 -0.159448E-06  0.239E-03    2.97       5.4  T
   4    -79.1013168 -0.122161E-06  0.108E-03    2.97      12.0  T
   5    -79.1013168 -0.125709E-09  0.562E-04    2.97      23.0  T
   6    -79.1013168 -0.862443E-08  0.137E-04    2.97      94.5  T
     SCC iter.                  ...        0 min,  0.016 sec
     gradient                   ...        0 min,  0.012 sec
 * total energy  :   -78.0362871 Eh     change       -0.9879804E-04 Eh
   gradient norm :     0.0033979 Eh/α   predicted    -0.7752887E-04 ( -21.53%)
   displ. norm   :     0.5754178 α      lambda       -0.1294711E-03
   maximum displ.:     0.3476309 α      in ANC's #2, #1, #9, ...

........................................................................
.............................. CYCLE   59 ..............................
........................................................................

 iter      E             dE          RMSdq      gap      omega  full diag
   1    -79.0971535 -0.790972E+02  0.691E-02    2.97       0.0  T
   2    -79.0971567 -0.322474E-05  0.403E-02    2.97       1.0  T
   3    -79.0971563  0.398948E-06  0.550E-03    2.97       2.3  T
   4    -79.0971574 -0.105740E-05  0.172E-03    2.97       7.5  T
   5    -79.0971574 -0.432094E-07  0.101E-03    2.97      12.7  T
   6    -79.0971575 -0.154016E-07  0.230E-04    2.97      56.2  T
   7    -79.0971575 -0.621839E-09  0.993E-05    2.97     130.0  T
     SCC iter.                  ...        0 min,  0.018 sec
     gradient                   ...        0 min,  0.012 sec
 * total energy  :   -78.0363635 Eh     change       -0.7637463E-04 Eh
   gradient norm :     0.0055888 Eh/α   predicted    -0.8617157E-04 (  12.83%)
   displ. norm   :     0.3298733 α      lambda       -0.1800983E-03
   maximum displ.:     0.1771478 α      in ANC's #1, #2, #10, ...

........................................................................
.............................. CYCLE   60 ..............................
........................................................................

 iter      E             dE          RMSdq      gap      omega  full diag
   1    -79.1022137 -0.791022E+02  0.485E-02    2.97       0.0  T
   2    -79.1022193 -0.552468E-05  0.276E-02    2.98       1.0  T
   3    -79.1022189  0.409220E-06  0.791E-03    2.98       1.6  T
   4    -79.1022199 -0.102864E-05  0.158E-03    2.98       8.2  T
   5    -79.1022200 -0.745959E-07  0.831E-04    2.98      15.5  T
   6    -79.1022200 -0.926362E-08  0.271E-04    2.98      47.7  T
     SCC iter.                  ...        0 min,  0.016 sec
     gradient                   ...        0 min,  0.012 sec
 * total energy  :   -78.0364638 Eh     change       -0.1003159E-03 Eh
   gradient norm :     0.0054418 Eh/α   predicted    -0.9985031E-04 (  -0.46%)
   displ. norm   :     0.3518142 α      lambda       -0.1031437E-03
   maximum displ.:     0.2042514 α      in ANC's #1, #2, #10, ...

........................................................................
.............................. CYCLE   61 ..............................
........................................................................

[...]
        68        2.0000           -0.5012647             -13.6401
        69        2.0000           -0.5001836             -13.6107
        70        2.0000           -0.4963814             -13.5072
        71        2.0000           -0.4951216             -13.4729 (HOMO)
        72                         -0.3789063             -10.3106 (LUMO)
        73                         -0.3469159              -9.4401
        74                         -0.3357919              -9.1374
        75                         -0.3328304              -9.0568
        76                         -0.1600316              -4.3547
       ...                                ...                  ...
       135                          0.5049571              13.7406
      -------------------------------------------------------------
                  HL-Gap            0.1162153 Eh            3.1624 eV
             Fermi-level           -0.4370139 Eh          -11.8918 eV

 SCC (total)                   0 d,  0 h,  0 min,  0.063 sec
 SCC setup                      ...        0 min,  0.000 sec (  0.322%)
 Dispersion                     ...        0 min,  0.001 sec (  0.820%)
 classical contributions        ...        0 min,  0.000 sec (  0.178%)
 integral evaluation            ...        0 min,  0.004 sec (  7.047%)
 iterations                     ...        0 min,  0.044 sec ( 70.647%)
 molecular gradient             ...        0 min,  0.013 sec ( 20.502%)
 printout                       ...        0 min,  0.000 sec (  0.451%)

         :::::::::::::::::::::::::::::::::::::::::::::::::::::
         ::                     SUMMARY                     ::
         :::::::::::::::::::::::::::::::::::::::::::::::::::::
         :: total energy             -78.050987884696 Eh    ::
         :: gradient norm              0.007154894950 Eh/a0 ::
         :: HOMO-LUMO gap              3.162378903748 eV    ::
         ::.................................................::
         :: SCC energy               -79.113458637014 Eh    ::
         :: -> isotropic ES            0.144808153114 Eh    ::
         :: -> anisotropic ES         -0.000077961618 Eh    ::
         :: -> anisotropic XC          0.037938522328 Eh    ::
         :: -> dispersion             -0.051266568343 Eh    ::
         :: repulsion energy           1.062470752319 Eh    ::
         :: add. restraining           0.000000000000 Eh    ::
         :: total charge               1.000000000000 e     ::
         :::::::::::::::::::::::::::::::::::::::::::::::::::::

           -------------------------------------------------
          |                Property Printout                |
           -------------------------------------------------

    * Orbital Energies and Occupations

         #    Occupation            Energy/Eh            Energy/eV
      -------------------------------------------------------------
         1        2.0000           -0.8666388             -23.5824
       ...           ...                  ...                  ...
        59        2.0000           -0.5332333             -14.5100
        60        2.0000           -0.5315485             -14.4642
        61        2.0000           -0.5272858             -14.3482
        62        2.0000           -0.5265492             -14.3281
        63        2.0000           -0.5241679             -14.2633
        64        2.0000           -0.5234842             -14.2447
        65        2.0000           -0.5192658             -14.1299
        66        2.0000           -0.5055577             -13.7569
        67        2.0000           -0.5041946             -13.7198
        68        2.0000           -0.5012647             -13.6401
        69        2.0000           -0.5001836             -13.6107
        70        2.0000           -0.4963814             -13.5072
        71        2.0000           -0.4951216             -13.4729 (HOMO)
        72                         -0.3789063             -10.3106 (LUMO)
        73                         -0.3469159              -9.4401
        74                         -0.3357919              -9.1374
        75                         -0.3328304              -9.0568
        76                         -0.1600316              -4.3547
        77                         -0.1231650              -3.3515
        78                         -0.1094022              -2.9770
        79                         -0.0978309              -2.6621
        80                         -0.0749738              -2.0401
        81                         -0.0692303              -1.8839
        82                         -0.0370133              -1.0072
       ...                                ...                  ...
       135                          0.5049571              13.7406
      -------------------------------------------------------------
                  HL-Gap            0.1162153 Eh            3.1624 eV
             Fermi-level           -0.4370139 Eh          -11.8918 eV

     #   Z          covCN         q      C6AA      α(0)
     1   6 C        3.751    -0.106    22.586     6.778
     2   6 C        3.799    -0.056    21.578     6.614
     3   6 C        3.800    -0.062    21.695     6.632
     4   6 C        3.800    -0.063    21.720     6.636
     5   6 C        3.800    -0.069    21.817     6.650
     6   6 C        3.735    -0.012    20.869     6.520
     7   7 N        2.684    -0.157    24.394     7.335
     8   6 C        2.746     0.271    22.427     7.754
     9   8 O        0.859    -0.435    22.402     6.346
    10   6 C        3.745    -0.053    21.593     6.629
    11   7 N        2.874     0.082    19.809     6.610
    12   6 C        3.068    -0.003    28.026     8.681
    13   6 C        3.067    -0.005    28.089     8.691
    14   7 N        2.874     0.078    19.881     6.622
    15   6 C        3.102     0.074    26.228     8.392
    16   6 C        3.745    -0.051    21.561     6.624
    17   6 C        2.746     0.270    22.433     7.755
    18   8 O        0.859    -0.436    22.421     6.349
    19   7 N        2.684    -0.151    24.271     7.317
    20   6 C        3.735    -0.011    20.864     6.519
    21   6 C        3.800    -0.069    21.824     6.651
    22   6 C        3.800    -0.064    21.729     6.637
    23   6 C        3.800    -0.062    21.690     6.631
    24   6 C        3.799    -0.056    21.579     6.614
    25   6 C        3.751    -0.106    22.595     6.779
    26   1 H        0.925     0.033     2.542     2.493
    27   1 H        0.925     0.041     2.437     2.441
    28   1 H        0.925     0.039     2.459     2.452
    29   1 H        0.924     0.029     2.601     2.522
    30   1 H        0.924     0.038     2.469     2.457
    31   1 H        0.924     0.026     2.644     2.543
    32   1 H        0.924     0.042     2.417     2.431
    33   1 H        0.924     0.029     2.607     2.525
    34   1 H        0.924     0.051     2.309     2.376
    35   1 H        0.924     0.029     2.597     2.520
    36   1 H        0.925     0.063     2.161     2.299
    37   1 H        0.924     0.054     2.274     2.358
    38   1 H        0.924     0.076     2.017     2.221
    39   1 H        0.860     0.211     1.050     1.605
    40   1 H        0.924     0.098     1.801     2.099
    41   1 H        0.924     0.098     1.800     2.098
    42   1 H        0.926     0.104     1.751     2.069
    43   1 H        0.926     0.102     1.763     2.076
    44   1 H        0.926     0.121     1.602     1.979
    45   1 H        0.924     0.097     1.815     2.107
    46   1 H        0.924     0.100     1.789     2.092
    47   1 H        0.860     0.213     1.042     1.599
    48   1 H        0.924     0.077     2.010     2.217
    49   1 H        0.924     0.054     2.276     2.359
    50   1 H        0.925     0.064     2.152     2.294
    51   1 H        0.924     0.032     2.562     2.503
    52   1 H        0.924     0.053     2.283     2.363
    53   1 H        0.924     0.029     2.608     2.525
    54   1 H        0.924     0.043     2.415     2.430
    55   1 H        0.924     0.024     2.674     2.557
    56   1 H        0.924     0.038     2.470     2.458
    57   1 H        0.924     0.029     2.604     2.523
    58   1 H        0.925     0.040     2.449     2.447
    59   1 H        0.925     0.041     2.431     2.438
    60   1 H        0.925     0.034     2.534     2.489

 Mol. C6AA /au·bohr⁶  :      28924.831921
 Mol. C8AA /au·bohr⁸  :     632629.376425
 Mol. α(0) /au        :        255.733409


Wiberg/Mayer (AO) data.
largest (>0.10) Wiberg bond orders for each atom

 ---------------------------------------------------------------------------
     #   Z sym  total        # sym  WBO       # sym  WBO       # sym  WBO
 ---------------------------------------------------------------------------
     1   6 C    3.996 --     2 C    1.020    28 H    0.987    27 H    0.987
                            26 H    0.986
     2   6 C    3.997 --     1 C    1.020     3 C    1.008    30 H    0.977
                            29 H    0.976
     3   6 C    3.996 --     2 C    1.008     4 C    1.008    32 H    0.976
                            31 H    0.975
     4   6 C    3.995 --     3 C    1.008     5 C    1.007    33 H    0.975
                            34 H    0.972
     5   6 C    3.992 --     4 C    1.007     6 C    0.990    35 H    0.976
                            36 H    0.968
     6   6 C    3.956 --     5 C    0.990     7 N    0.984    37 H    0.969
                            38 H    0.968
     7   7 N    3.479 --     8 C    1.313     6 C    0.984    39 H    0.921
                             9 O    0.208
     8   6 C    3.962 --     9 O    1.672     7 N    1.313    10 C    0.910
     9   8 O    2.016 --     8 C    1.672     7 N    0.208
    10   6 C    3.947 --    11 N    0.993    41 H    0.957    40 H    0.950
                             8 C    0.910
    11   7 N    3.714 --    15 C    1.355    12 C    1.213    10 C    0.993
    12   6 C    3.947 --    13 C    1.605    11 N    1.213    42 H    0.962
    13   6 C    3.946 --    12 C    1.605    14 N    1.209    43 H    0.962
    14   7 N    3.709 --    15 C    1.350    13 C    1.209    16 C    0.997
    15   6 C    3.948 --    11 N    1.355    14 N    1.350    44 H    0.953
    16   6 C    3.949 --    14 N    0.997    45 H    0.958    46 H    0.947
                            17 C    0.909
    17   6 C    3.962 --    18 O    1.660    19 N    1.325    16 C    0.909
    18   8 O    2.025 --    17 C    1.660    19 N    0.207
    19   7 N    3.491 --    17 C    1.325    20 C    0.984    47 H    0.920
                            18 O    0.207
    20   6 C    3.955 --    21 C    0.989    19 N    0.984    49 H    0.968
                            48 H    0.968
    21   6 C    3.991 --    22 C    1.007    20 C    0.989    51 H    0.976
                            50 H    0.969
    22   6 C    3.995 --    23 C    1.008    21 C    1.007    53 H    0.976
                            52 H    0.972
    23   6 C    3.996 --    22 C    1.008    24 C    1.007    54 H    0.976
                            55 H    0.975
    24   6 C    3.997 --    25 C    1.020    23 C    1.007    56 H    0.978
                            57 H    0.976
    25   6 C    3.996 --    24 C    1.020    58 H    0.987    59 H    0.986
                            60 H    0.986
    26   1 H    0.999 --     1 C    0.986
    27   1 H    0.998 --     1 C    0.987
    28   1 H    0.998 --     1 C    0.987
    29   1 H    0.999 --     2 C    0.976
    30   1 H    0.998 --     2 C    0.977
    31   1 H    0.999 --     3 C    0.975
    32   1 H    0.998 --     3 C    0.976
    33   1 H    0.999 --     4 C    0.975
    34   1 H    0.997 --     4 C    0.972
    35   1 H    0.999 --     5 C    0.976
    36   1 H    0.996 --     5 C    0.968
    37   1 H    0.997 --     6 C    0.969
    38   1 H    0.994 --     6 C    0.968
    39   1 H    0.954 --     7 N    0.921
    40   1 H    0.990 --    10 C    0.950
    41   1 H    0.990 --    10 C    0.957
    42   1 H    0.989 --    12 C    0.962
    43   1 H    0.989 --    13 C    0.962
    44   1 H    0.985 --    15 C    0.953
    45   1 H    0.990 --    16 C    0.958
    46   1 H    0.990 --    16 C    0.947
    47   1 H    0.954 --    19 N    0.920
    48   1 H    0.994 --    20 C    0.968
    49   1 H    0.997 --    20 C    0.968
    50   1 H    0.995 --    21 C    0.969
    51   1 H    0.999 --    21 C    0.976
    52   1 H    0.997 --    22 C    0.972
    53   1 H    0.999 --    22 C    0.976
    54   1 H    0.998 --    23 C    0.976
    55   1 H    0.999 --    23 C    0.975
    56   1 H    0.998 --    24 C    0.978
    57   1 H    0.999 --    24 C    0.976
    58   1 H    0.998 --    25 C    0.987
    59   1 H    0.998 --    25 C    0.986
    60   1 H    0.999 --    25 C    0.986
 ---------------------------------------------------------------------------

Topologies differ in total number of bonds
Writing topology from bond orders to xtbtopo.mol

molecular dipole:
                 x           y           z       tot (Debye)
 q only:       -7.734      -3.736       5.603
   full:       -7.765      -3.757       5.607      26.151
molecular quadrupole (traceless):
                xx          xy          yy          xz          yz          zz
 q only:       68.503      11.048     -50.685     -50.403     -56.758     -17.818
  q+dip:       70.059      12.407     -52.275     -50.227     -57.313     -17.784
   full:       69.660      12.840     -52.075     -50.228     -57.120     -17.585

           -------------------------------------------------
          |                Geometry Summary                 |
           -------------------------------------------------

      molecular mass/u    :      351.5075310
   center of mass at/Å    :       -3.3021271      -1.5150436       1.9900246
  moments of inertia/u·Å² :        0.2052273E+04   0.6934990E+04   0.8500857E+04
rotational constants/cm⁻¹ :        0.8214128E-02   0.2430808E-02   0.1983051E-02

 * 58 selected distances

     #   Z          #   Z                                           value/Å
     1   6 C        2   6 C                                       1.5268797
     2   6 C        3   6 C                                       1.5310569
     3   6 C        4   6 C                                       1.5310214
     4   6 C        5   6 C                                       1.5313231
     5   6 C        6   6 C                                       1.5364313 (max)
     6   6 C        7   7 N                                       1.4514604
     7   7 N        8   6 C                                       1.3335147
     8   6 C        9   8 O                                       1.2157073
    10   6 C       11   7 N                                       1.4341784
    11   7 N       12   6 C                                       1.3635177
    12   6 C       13   6 C                                       1.3603122
    13   6 C       14   7 N                                       1.3652685
    11   7 N       15   6 C                                       1.3290048
    14   7 N       15   6 C                                       1.3304118
    14   7 N       16   6 C                                       1.4330158
    17   6 C       18   8 O                                       1.2140443
    17   6 C       19   7 N                                       1.3294692
    19   7 N       20   6 C                                       1.4486287
    20   6 C       21   6 C                                       1.5348597
    21   6 C       22   6 C                                       1.5307184
    22   6 C       23   6 C                                       1.5305096
    23   6 C       24   6 C                                       1.5310491
    24   6 C       25   6 C                                       1.5250365
     1   6 C       26   1 H                                       1.0873518
     1   6 C       27   1 H                                       1.0884995
     1   6 C       28   1 H                                       1.0900680
     2   6 C       29   1 H                                       1.0927521
     2   6 C       30   1 H                                       1.0919164
     3   6 C       31   1 H                                       1.0919857
     3   6 C       32   1 H                                       1.0919208
     4   6 C       33   1 H                                       1.0941482
     4   6 C       34   1 H                                       1.0915261
     5   6 C       35   1 H                                       1.0933311
     5   6 C       36   1 H                                       1.0897609
     6   6 C       37   1 H                                       1.0915796
     6   6 C       38   1 H                                       1.0909939
     7   7 N       39   1 H                                       1.0132011
    10   6 C       40   1 H                                       1.0916592
    10   6 C       41   1 H                                       1.0907372
    12   6 C       42   1 H                                       1.0715199
    13   6 C       43   1 H                                       1.0715103
    15   6 C       44   1 H                                       1.0727819
    16   6 C       45   1 H                                       1.0903661
    16   6 C       46   1 H                                       1.0928025
    19   7 N       47   1 H                                       1.0126933 (min)
    20   6 C       48   1 H                                       1.0905310
    20   6 C       49   1 H                                       1.0920577
    21   6 C       50   1 H                                       1.0896005
    21   6 C       51   1 H                                       1.0926563
    22   6 C       52   1 H                                       1.0904437
    22   6 C       53   1 H                                       1.0935873
    23   6 C       54   1 H                                       1.0923993
    23   6 C       55   1 H                                       1.0932324
    24   6 C       56   1 H                                       1.0916231
    24   6 C       57   1 H                                       1.0921203
    25   6 C       58   1 H                                       1.0881070
    25   6 C       59   1 H                                       1.0878543
    25   6 C       60   1 H                                       1.0868950

 * 5 distinct bonds (by element types)

   Z      Z             #   av. dist./Å        max./Å        min./Å
   1 H    6 C          33     1.0893430     1.0941482     1.0715103
   6 C    6 C          11     1.5153816     1.5364313     1.3603122
   1 H    7 N           2     1.0129472     1.0132011     1.0126933
   6 C    7 N          10     1.3818470     1.4514604     1.3290048
   6 C    8 O           2     1.2148758     1.2157073     1.2140443


optimized geometry written to: xtbopt.xyz


           -------------------------------------------------
          | TOTAL ENERGY              -78.050987884696 Eh   |
          | GRADIENT NORM               0.007154894950 Eh/α |
          | HOMO-LUMO GAP               3.162378903748 eV   |
           -------------------------------------------------

------------------------------------------------------------------------
 * finished run on 2024/12/20 at 06:50:21.265     
------------------------------------------------------------------------
 total:
 * wall-time:     0 d,  0 h,  0 min,  7.618 sec
 *  cpu-time:     0 d,  0 h,  0 min, 59.820 sec
 * ratio c/w:     7.852 speedup
 SCF:
 * wall-time:     0 d,  0 h,  0 min,  0.052 sec
 *  cpu-time:     0 d,  0 h,  0 min,  0.414 sec
 * ratio c/w:     7.964 speedup
 ANC optimizer:
 * wall-time:     0 d,  0 h,  0 min,  7.545 sec
 *  cpu-time:     0 d,  0 h,  0 min, 59.260 sec
 * ratio c/w:     7.854 speedup

