79
 energy: -86.678564893209 gnorm: 0.059406410405 xtb: 6.7.1 (edcfbbe)
C            9.29776000000000        8.15785000000000       13.34140000000000
C            8.27504000000000        7.94624000000000       14.44677000000000
C            6.98086000000000        8.73989000000000       14.24708000000000
C            6.20920000000000        8.44179000000000       12.95693000000000
C            5.85942000000000        6.97002000000000       12.72084000000000
C            5.01549000000000        6.31254000000000       13.81656000000000
C            3.60970000000000        6.89403000000000       14.00432000000000
C            2.69855000000000        6.85210000000000       12.77029000000000
C            2.58616000000000        5.49323000000000       12.06846000000000
C            2.08167000000000        4.34553000000000       12.94687000000000
C            0.60274000000000        4.41382000000000       13.32715000000000
C           -0.44184000000000        4.41853000000000       12.20180000000000
N           -0.53963000000000        3.14082000000000       11.34569000000000
C           -1.91988000000000        3.14805000000000       10.68153000000000
O           -2.09240000000000        4.26700000000000        9.84230000000000
C           -3.32443000000000        4.28173000000000        9.09222000000000
C           -3.57734000000000        5.75787000000000        8.77338000000000
C           -2.76336000000000        6.29824000000000        7.58058000000000
C           -2.19446000000000        7.68165000000000        7.90239000000000
C           -1.64445000000000        5.35284000000000        7.13706000000000
C           -2.14681000000000        3.94125000000000        6.83346000000000
C           -3.19240000000000        3.39460000000000        7.83061000000000
C           -4.56474000000000        3.01200000000000        7.19013000000000
C           -5.21568000000000        4.06784000000000        6.29292000000000
C           -4.43449000000000        1.70373000000000        6.39380000000000
C            0.48237000000000        3.14434000000000       10.21469000000000
C           -0.41962000000000        1.86767000000000       12.15706000000000
H            8.94145000000000        7.76772000000000       12.38356000000000
H           10.22776000000000        7.63438000000000       13.58589000000000
H            9.52927000000000        9.22035000000000       13.21828000000000
H            8.05681000000000        6.87697000000000       14.54172000000000
H            8.72359000000000        8.25361000000000       15.39927000000000
H            6.32707000000000        8.56401000000000       15.10956000000000
H            7.21781000000000        9.81129000000000       14.26435000000000
H            5.29014000000000        9.03991000000000       12.95509000000000
H            6.79386000000000        8.79830000000000       12.10002000000000
H            5.34410000000000        6.88754000000000       11.75709000000000
H            6.78439000000000        6.39276000000000       12.60552000000000
H            4.93765000000000        5.24197000000000       13.59372000000000
H            5.54548000000000        6.36879000000000       14.77439000000000
H            3.12201000000000        6.35391000000000       14.82505000000000
H            3.68707000000000        7.93364000000000       14.34487000000000
H            1.69898000000000        7.19385000000000       13.06494000000000
H            3.05921000000000        7.58656000000000       12.03965000000000
H            1.94177000000000        5.60765000000000       11.19025000000000
H            3.56889000000000        5.21437000000000       11.67127000000000
H            2.29419000000000        3.39593000000000       12.45045000000000
H            2.66861000000000        4.30467000000000       13.87163000000000
H            0.38578000000000        3.59579000000000       14.02403000000000
H            0.44758000000000        5.32798000000000       13.91511000000000
H           -1.42291000000000        4.54257000000000       12.67863000000000
H           -0.30183000000000        5.26747000000000       11.52472000000000
H           -2.00735000000000        2.21114000000000       10.11967000000000
H           -2.67243000000000        3.14977000000000       11.47981000000000
H           -4.12751000000000        3.91882000000000        9.74605000000000
H           -3.35976000000000        6.35032000000000        9.67253000000000
H           -4.64238000000000        5.91890000000000        8.57536000000000
H           -3.44890000000000        6.42146000000000        6.73225000000000
H           -1.66185000000000        8.09538000000000        7.03993000000000
H           -2.99542000000000        8.37880000000000        8.16986000000000
H           -1.49143000000000        7.63390000000000        8.74173000000000
H           -1.15047000000000        5.75144000000000        6.24204000000000
H           -0.86475000000000        5.30676000000000        7.90704000000000
H           -1.27657000000000        3.27097000000000        6.83404000000000
H           -2.52120000000000        3.90864000000000        5.80587000000000
H           -2.77460000000000        2.43989000000000        8.17530000000000
H           -5.26734000000000        2.80547000000000        8.00865000000000
H           -4.60167000000000        4.31206000000000        5.42149000000000
H           -6.17592000000000        3.70028000000000        5.91221000000000
H           -5.43028000000000        4.99003000000000        6.83258000000000
H           -4.07407000000000        0.89230000000000        7.03528000000000
H           -5.40597000000000        1.39426000000000        5.99279000000000
H           -3.74060000000000        1.80833000000000        5.55384000000000
H            1.47446000000000        2.94997000000000       10.62022000000000
H            0.22565000000000        2.34605000000000        9.50994000000000
H            0.46123000000000        4.11392000000000        9.71122000000000
H            0.59430000000000        1.78943000000000       12.55536000000000
H           -1.15491000000000        1.89950000000000       12.96588000000000
H           -0.61351000000000        1.01415000000000       11.49894000000000
79
 energy: -86.686494000939 gnorm: 0.027337178376 xtb: 6.7.1 (edcfbbe)
C            9.29615458559770        8.15837016196395       13.33939595079666
C            8.27113947513881        7.94518445231232       14.44445471780917
C            6.97632955803285        8.73634764279581       14.24994985506421
C            6.20839184485984        8.44075315060791       12.95903967184122
C            5.85853297283749        6.97069378929839       12.72230498501655
C            5.01246620983336        6.30955912765579       13.81172617022285
C            3.60743993111279        6.88585324309164       14.00409824083879
C            2.69883771378391        6.84896333095387       12.77045810641729
C            2.59008779735508        5.49239365263190       12.06763458281034
C            2.08222813256291        4.34047835188129       12.93700356177824
C            0.60176229949874        4.40164854955559       13.31853530599886
C           -0.44043493093289        4.39912331978367       12.19688065222062
N           -0.55658461299534        3.15572656500673       11.32792791678532
C           -1.92687960990311        3.13929653608014       10.68450008071452
O           -2.06991186101830        4.25114434044080        9.85447760514802
C           -3.29308804825894        4.28356467478088        9.07725191165202
C           -3.56108943221347        5.75654058033275        8.76743351010355
C           -2.76378857353891        6.30548050698735        7.56976041527262
C           -2.19523742209068        7.68433869262651        7.89856547512633
C           -1.64767251204615        5.35155012802699        7.15203529260353
C           -2.14506959415217        3.93994368960526        6.83432157749071
C           -3.18647306626907        3.38299797558157        7.82791535271296
C           -4.56047916182844        3.01603791427577        7.19613585388713
C           -5.20563354375987        4.07378861804193        6.30278728388824
C           -4.42429120162737        1.71001856641393        6.40371247024532
C            0.46319636965102        3.14614624289650       10.23050370932749
C           -0.42778374117612        1.90629437400044       12.13517717607429
H            8.93903726342956        7.77409626613921       12.38525513848861
H           10.22366934041049        7.64015321151648       13.58226314581690
H            9.52130841000272        9.21734556162892       13.22042732186833
H            8.04837719780262        6.87857088871452       14.53200921925460
H            8.71389109537021        8.25563660791354       15.39593881243074
H            6.32455573137127        8.55474117582433       15.10975382197123
H            7.21772264200827        9.80395858622157       14.25776941355334
H            5.28984536670682        9.03531530967997       12.96476482822214
H            6.79828595346689        8.78879102084308       12.10606787835399
H            5.33875551146745        6.89423379647963       11.76245581892136
H            6.78427597359854        6.39751259340181       12.61967574429481
H            4.93576454536044        5.24146764671417       13.58478853544630
H            5.53975981571992        6.38344464273345       14.76632135309008
H            3.12581991212989        6.34466886340770       14.82505925909953
H            3.68836328466093        7.92654040693293       14.32853607434064
H            1.70191851762674        7.18792076777213       13.06953464863308
H            3.06601687986400        7.57289267139826       12.03792452230841
H            1.94290298794878        5.61156971538352       11.19389975869825
H            3.57612715781505        5.21684191370129       11.68586302663416
H            2.30391527239809        3.39198873174901       12.44033687910374
H            2.65628730396630        4.32530809263680       13.86674698714361
H            0.38405581999520        3.59175467203109       14.02012126262083
H            0.43507963860362        5.32932076068063       13.87574540101551
H           -1.41859040064583        4.53100761655835       12.66719803173542
H           -0.29029433363677        5.23691302530723       11.51574021026693
H           -2.01126124767714        2.20284567233055       10.11694799681277
H           -2.68169027806519        3.14548334438264       11.48475512892787
H           -4.10355635793593        3.91160066661295        9.72085393425962
H           -3.32830463141066        6.33152619332283        9.66919855502088
H           -4.62942375113377        5.89153611087549        8.58563067735360
H           -3.44365002002574        6.41455475814048        6.71866310981796
H           -1.66538358578783        8.09376541749012        7.04011236786094
H           -2.99395453863965        8.37508923384869        8.16505555699446
H           -1.49696197993780        7.62917712850887        8.73461345476081
H           -1.15987673736092        5.75485411580286        6.26014838718415
H           -0.88746523530549        5.31324855545852        7.93810221232835
H           -1.27733081188851        3.27198321957400        6.82005255918065
H           -2.55380087938456        3.92248723171687        5.82284292669790
H           -2.79738463386533        2.42185915342973        8.18909623304752
H           -5.25303778470037        2.81993189874346        8.02463664311970
H           -4.58957939504585        4.30790506798931        5.43697309089374
H           -6.15702994713101        3.69321430775880        5.92891674297408
H           -5.41508051445301        4.99368329836858        6.84117976218319
H           -4.06521864194094        0.89757176732820        7.03617057031482
H           -5.39268308560132        1.41290190223065        6.00355838847280
H           -3.73752723147086        1.82196143343495        5.56636805247100
H            1.45622070162171        2.97161262990812       10.63545475758370
H            0.22164668042892        2.35215139513357        9.52520018161086
H            0.43447244025835        4.10173506405645        9.71433343922151
H            0.57798888669945        1.82429447440530       12.54050438995670
H           -1.15038799075015        1.91583390920855       12.94894710315454
H           -0.61582989539187        1.04208932694082       11.49872925263591
79
 energy: -86.688698776026 gnorm: 0.007038358480 xtb: 6.7.1 (edcfbbe)
C            9.29036870499055        8.16244106824759       13.33734216265561
C            8.26603993915582        7.94093482523849       14.44357496428397
C            6.97137716064349        8.73309931465553       14.25220426667719
C            6.20343750706307        8.43944998924917       12.96125149898888
C            5.85566909057083        6.96951862395002       12.72131918187388
C            5.01101518586204        6.30562075042578       13.81002510138196
C            3.60536937965225        6.87940173779723       14.00179149176479
C            2.69700218780920        6.84237900892579       12.76863627210198
C            2.59103662286142        5.48831437903892       12.06117597720194
C            2.08120539481231        4.33544404937537       12.92874640808530
C            0.59572611273557        4.39302628773681       13.29742055845063
C           -0.44705380230437        4.38774041583639       12.17712364942997
N           -0.56782087370388        3.15603211079720       11.31971782812481
C           -1.92638497785745        3.13744141580784       10.68648162952503
O           -2.05764711396647        4.23927376479729        9.86260956026396
C           -3.28017408834442        4.28120355202893        9.07591800966613
C           -3.54926136996849        5.75259119670505        8.76904387781297
C           -2.76432781396709        6.30238840452978        7.56448369093330
C           -2.19833021617980        7.68254168280950        7.88824917545523
C           -1.64274196521828        5.34930188189850        7.16226171008375
C           -2.13923187411730        3.94089149113270        6.82970205365537
C           -3.16914111094728        3.38093863332175        7.83201537519626
C           -4.54568611877392        3.02227413841888        7.21133831312683
C           -5.19205118238292        4.07839366226781        6.31887662892012
C           -4.41515312926999        1.72075909252960        6.41462665726310
C            0.43690452188267        3.15102000706168       10.23864116367941
C           -0.43429377581009        1.92729690358659       12.12333466593116
H            8.93216343659616        7.78200936908792       12.38482606933656
H           10.21686484069849        7.64757726646726       13.57891551395457
H            9.50907347204496        9.22117313935094       13.22460003804428
H            8.04214409770003        6.87529584398582       14.52241935112203
H            8.70642855717217        8.24997751951555       15.39463283558644
H            6.32224175669933        8.54599427464248       15.11042633250467
H            7.21351815680858        9.79860779316144       14.25726783663131
H            5.28606326293799        9.03266304470521       12.97082798966277
H            6.79689345903553        8.78297066407976       12.11191499569529
H            5.33648296856233        6.89729589924173       11.76239704468921
H            6.78202185954260        6.40006640237721       12.62693421854535
H            4.93780254606214        5.23944205709510       13.58037220155828
H            5.53569606346357        6.38918925685849       14.76286462433962
H            3.12793093363318        6.33709127582445       14.82209584746069
H            3.68701864188821        7.91999009550744       14.31849651484553
H            1.70213820744695        7.18109900083624       13.06910101509391
H            3.06970964401746        7.56066123475645       12.03713740153429
H            1.94842447974786        5.61226343104786       11.18601247671825
H            3.58071258543111        5.21514007943944       11.69418033929694
H            2.31585424532449        3.38772193026818       12.43713126538151
H            2.64155313822544        4.33805283851707       13.86469620162146
H            0.38088086173266        3.59411216889792       14.00940208316080
H            0.42291165861453        5.33141306083168       13.83026745429782
H           -1.42070826722267        4.52794684507885       12.64956522375484
H           -0.28733390644180        5.22493553119526       11.49945257389166
H           -2.01545141799411        2.19743201832377       10.12149400712737
H           -2.68337991605551        3.14124020799062       11.48807724649348
H           -4.09003419517729        3.90304392747913        9.71954443726875
H           -3.29439112622560        6.31826412748854        9.66741286295874
H           -4.61964244429842        5.87395779379201        8.60656773687008
H           -3.44156493265341        6.40218678621952        6.71257325218233
H           -1.67106121293655        8.09112885988331        7.03121842943063
H           -2.99677127056990        8.36864843759748        8.15573126918123
H           -1.50179350976832        7.62367323811932        8.72176971641748
H           -1.14240757332696        5.75232607453415        6.28002767243267
H           -0.90819370340713        5.30871826404689        7.96981427365799
H           -1.27306673626764        3.27591413776416        6.79321743828405
H           -2.57448626924179        3.94430969380438        5.83096541766635
H           -2.79394115309089        2.41602310492679        8.19871268854472
H           -5.23101021856145        2.83134476564841        8.04687404057388
H           -4.57616560493866        4.30727455437620        5.45509271099653
H           -6.13937863449229        3.69187823354195        5.95052452268978
H           -5.39703835841912        4.99700955821442        6.85637276375402
H           -4.05520554426851        0.90747357201644        7.04046920420728
H           -5.38219241363005        1.43046447604356        6.01403308272194
H           -3.72975845138479        1.84193993912656        5.58082337426484
H            1.43263732679061        3.00706052596426       10.64670367234844
H            0.21921438574506        2.34707428991815        9.53943163411471
H            0.39596133436360        4.09369339392453        9.70041678193808
H            0.56846501492671        1.85236020164437       12.53361441953804
H           -1.15257667795170        1.92849512944353       12.93961593487988
H           -0.61619579211643        1.05378627722969       11.50028208819333
79
 energy: -86.689310370646 gnorm: 0.005995513317 xtb: 6.7.1 (edcfbbe)
C            9.28393728904354        8.16771640775689       13.33615806550044
C            8.26067879401645        7.93723928613934       14.44243753912542
C            6.96501905312948        8.72938190404193       14.25528177808463
C            6.19811351569307        8.43836983476927       12.96275390955723
C            5.85344971693889        6.96774279486665       12.72012714511931
C            5.00918332183389        6.30147730719919       13.80824979841297
C            3.60241648354749        6.87373053987958       13.99864630502577
C            2.69651728826050        6.83767563506790       12.76330654446969
C            2.59324200580029        5.48358885740699       12.05467105213792
C            2.07733652686359        4.33344258156930       12.92286420713911
C            0.59008109760515        4.39711526410281       13.28582789674489
C           -0.45187948648902        4.38566962186096       12.16348301823971
N           -0.57327394438305        3.15200540531037       11.31596547951778
C           -1.92943192613394        3.13494728546065       10.68669946236600
O           -2.05286606902999        4.23550690399584        9.86673748612491
C           -3.27364749639372        4.28054682203363        9.07595426364821
C           -3.53976285491680        5.75300545389369        8.77395107843985
C           -2.76203608231170        6.29836639890633        7.56339145074722
C           -2.20216531734472        7.68314518773196        7.87887095474939
C           -1.63379930297750        5.34757610654092        7.17295115711478
C           -2.13538822534776        3.94445996147680        6.82825541042110
C           -3.15734003932303        3.38058620470644        7.83508328714653
C           -4.53606979803721        3.02300973839895        7.22198450393578
C           -5.18466906463889        4.08301568425070        6.33516410823412
C           -4.40745364574605        1.72445898501635        6.42127108549417
C            0.42635352838418        3.14952543598744       10.23592198126314
C           -0.43605039988707        1.93131762213336       12.12288688239057
H            8.92545730739759        7.79044220035371       12.38237541910761
H           10.21242846120449        7.65502266666362       13.57469794670487
H            9.49753482704802        9.22829285433805       13.22913499718327
H            8.03820938329029        6.87100448007869       14.51415513753087
H            8.70103550419905        8.24105359953628       15.39482829984635
H            6.31671722867179        8.53897526632185       15.11318089989044
H            7.20641202878829        9.79470202934666       14.26303089121824
H            5.28033633571314        9.03037407283971       12.97325208746261
H            6.79199425337163        8.78386233007983       12.11495249201631
H            5.33574300033210        6.89627248560276       11.76079671222636
H            6.78080433872523        6.40061368920143       12.62640011748062
H            4.93887000443615        5.23538314008513       13.57878996536527
H            5.53267527863094        6.38697363534561       14.76106756447979
H            3.12498471619590        6.33107111808892       14.81844147742654
H            3.68317911832112        7.91411937241195       14.31501379139475
H            1.70142310429109        7.17571114129178       13.06276929093248
H            3.07092603329424        7.55649404502781       12.03359817541729
H            1.95570327393800        5.60852923463245       11.17636598856189
H            3.58466562235189        5.20974131147501       11.69398964955202
H            2.31791837630959        3.38354727099629       12.43859908500585
H            2.62990307764347        4.34219425580864       13.86260126444004
H            0.37291435942998        3.60515809982928       14.00423828006801
H            0.41930609271346        5.34081834625956       13.80840030535176
H           -1.42401730298716        4.53382260770356       12.63733928479711
H           -0.28767435016649        5.22159712745497       11.48470979696505
H           -2.02362415969782        2.19203739633785       10.12430359823863
H           -2.68818612063728        3.13698012359007       11.48875119851287
H           -4.08178892193209        3.90037229857857        9.71991690625130
H           -3.26965280164824        6.31630189229137        9.66901241316874
H           -4.61054523135987        5.87780889958570        8.62379196636326
H           -3.43996648913058        6.38891143264934        6.71106032389577
H           -1.67884184058236        8.08975925093912        7.01827423972390
H           -3.00308254577354        8.36693428896824        8.14566214463917
H           -1.50288116250063        7.62931543392612        8.71054894144633
H           -1.11576289063393        5.75131251204522        6.30151238920293
H           -0.91655285129562        5.30015189908762        7.99527060901743
H           -1.27228056358736        3.27734518176616        6.77188738082767
H           -2.58266061223541        3.96474645510367        5.83564401948068
H           -2.77753035331489        2.41726823837652        8.20003930806353
H           -5.21666731853407        2.83209543508596        8.06136612719797
H           -4.57110570142229        4.31164371398664        5.46955055629554
H           -6.13319598038001        3.69770150517163        5.97019201325953
H           -5.38572482435662        5.00145776987102        6.87440152522936
H           -4.04586731526075        0.90912543442992        7.04360957929184
H           -5.37486010975190        1.43673193927834        6.02013406112017
H           -3.72140832194786        1.85233770740456        5.58860644104487
H            1.42748960130282        3.03874409558890       10.64502051879360
H            0.22873035782610        2.32776975112318        9.54897366210348
H            0.36372186332490        4.08197313173157        9.67778445522294
H            0.56701791542796        1.86332769748739       12.53519130873339
H           -1.15601327101601        1.93350702949110       12.93881945341015
H           -0.61379539218583        1.05306987483022       11.50428008788571
79
 energy: -86.690035513138 gnorm: 0.010626138196 xtb: 6.7.1 (edcfbbe)
C            9.27125204781495        8.17908677617070       13.33473296674485
C            8.25051115905883        7.93085608579467       14.44024056029913
C            6.95264088320509        8.72170402550549       14.26106229200158
C            6.18720797396119        8.43577704764455       12.96613655091648
C            5.84866230871596        6.96427663425839       12.71748084172693
C            5.00544064115795        6.29372284849231       13.80426336105312
C            3.59710717134172        6.86402658003046       13.99121379922877
C            2.69647749971722        6.82919124961008       12.75152912969555
C            2.59698192869893        5.47411599066551       12.04348355088431
C            2.07076358647448        4.33120182962844       12.91562259357715
C            0.58185256253568        4.40875295885539       13.27029153974561
C           -0.45716158379417        4.38736642637550       12.14348163682494
N           -0.57815980066124        3.14460194034095       11.31320980963389
C           -1.93417098461173        3.12867305895530       10.68853767400237
O           -2.04971809496817        4.23105593109078        9.87605436723606
C           -3.26571607127432        4.28114327258923        9.07825422622198
C           -3.52126287385472        5.75678320984776        8.78310311265997
C           -2.75288640129723        6.29435165701234        7.56392318815362
C           -2.20830930011584        7.69014199618307        7.85944249854610
C           -1.61534616544339        5.34590107335208        7.19430181391968
C           -2.12925547522635        3.95446921756773        6.82565041166858
C           -3.13988495437162        3.38420170510080        7.83914034550908
C           -4.52072711813660        3.02123978787302        7.23717132829016
C           -5.17778471224611        4.08769644979070        6.36360485055587
C           -4.39387041452281        1.72844056299140        6.42826853258730
C            0.41535748564790        3.14144481703461       10.22806958421824
C           -0.43540581834883        1.93216661912615       12.12841371479825
H            8.91370839740698        7.80796517794577       12.37751868396628
H           10.20431056213985        7.67067296234062       13.56680057233550
H            9.47622886347007        9.24303831599027       13.23788750609798
H            8.03163577983625        6.86295494693899       14.49894720929428
H            8.69100371311157        8.22380654392342       15.39602363926421
H            6.30507788058508        8.52444144669349       15.11819308115866
H            7.19133705165076        9.78762877736391       14.27641494064063
H            5.26755043487471        9.02484153142498       12.97794725900922
H            6.78064824499300        8.78779603082241       12.12060929695964
H            5.33310402093252        6.89321703520497       11.75712775299048
H            6.77815840273537        6.40091711915399       12.62262615385513
H            4.93899502027602        5.22733103523190       13.57512741839569
H            5.52715192610002        6.37980480586713       14.75794144997188
H            3.11731835541026        6.32012440634877       14.80893449043357
H            3.67564906235515        7.90388983602062       14.31019495924073
H            1.69988748124372        7.16626056073351       13.04705247001050
H            3.07328778139145        7.54980228358831       12.02458448130722
H            1.96776676906383        5.59815120548110       11.15906530650643
H            3.59075266508584        5.19699684415118       11.69168988470866
H            2.31408305244502        3.37609522303285       12.44353981287768
H            2.61458849484912        4.34602228025878       13.85980225929402
H            0.35657585449454        3.62878766229171       13.99929523755955
H            0.41689704371550        5.36116588091348       13.77749177082999
H           -1.42950582422716        4.54761866731451       12.61494859522510
H           -0.28695789847545        5.21721246066440       11.45753938107105
H           -2.03548431796439        2.18318569918218       10.12786899452233
H           -2.69411153680044        3.12781707774256       11.49189168104218
H           -4.07449648748989        3.90004204267938        9.71934523202340
H           -3.22562429337629        6.31460771370569        9.67403047240239
H           -4.59217104693515        5.89807411815686        8.65310933676914
H           -3.43158726871248        6.36408827031096        6.70971697249304
H           -1.69455998609412        8.09278484607420        6.99028318737616
H           -3.01583417823012        8.36822157021048        8.12382444442643
H           -1.50262520637219        7.65248720424940        8.68759358184664
H           -1.06496779759734        5.75175925683935        6.34297180636562
H           -0.92605948801822        5.28408880189575        8.03967916234945
H           -1.27397091121366        3.27989907384339        6.73552812236292