      -----------------------------------------------------------      
     |                   =====================                   |     
     |                           x T B                           |     
     |                   =====================                   |     
     |                         S. Grimme                         |     
     |          Mulliken Center for Theoretical Chemistry        |     
     |                    University of Bonn                     |     
      -----------------------------------------------------------      

   * xtb version 6.7.1 (edcfbbe) compiled by 'conda@3ef47c1a292c' on 2024-11-25

   xtb is free software: you can redistribute it and/or modify it under
   the terms of the GNU Lesser General Public License as published by
   the Free Software Foundation, either version 3 of the License, or
   (at your option) any later version.
   
   xtb is distributed in the hope that it will be useful,
   but WITHOUT ANY WARRANTY; without even the implied warranty of
   MERCHANTABILITY or FITNESS FOR A PARTICULAR PURPOSE.  See the
   GNU Lesser General Public License for more details.
   
   Cite this work as:
   * C. Bannwarth, E. Caldeweyher, S. Ehlert, A. Hansen, P. Pracht,
     J. Seibert, S. Spicher, S. Grimme, WIREs Comput. Mol. Sci., 2020, 11,
     e01493. DOI: 10.1002/wcms.1493
   
   for GFN2-xTB:
   * C. Bannwarth, S. Ehlert and S. Grimme., J. Chem. Theory Comput., 2019,
     15, 1652-1671. DOI: 10.1021/acs.jctc.8b01176
   for GFN1-xTB:
   * S. Grimme, C. Bannwarth, P. Shushkov, J. Chem. Theory Comput., 2017,
     13, 1989-2009. DOI: 10.1021/acs.jctc.7b00118
   for GFN0-xTB:
   * P. Pracht, E. Caldeweyher, S. Ehlert, S. Grimme, ChemRxiv, 2019, preprint.
     DOI: 10.26434/chemrxiv.8326202.v1
   for GFN-FF:
   * S. Spicher and S. Grimme, Angew. Chem. Int. Ed., 2020, 59, 15665-15673.
     DOI: 10.1002/anie.202004239
   
   for ALPB and GBSA implicit solvation:
   * S. Ehlert, M. Stahn, S. Spicher, S. Grimme, J. Chem. Theory Comput.,
     2021, 17, 4250-4261. DOI: 10.1021/acs.jctc.1c00471
   
   for ddCOSMO and CPCM-X implicit solvation:
   * M. Stahn, S. Ehlert, S. Grimme, J. Phys. Chem. A,
     2023, XX, XXXX-XXXX. DOI: 10.1021/acs.jpca.3c04382
   
   for DFT-D4:
   * E. Caldeweyher, C. Bannwarth and S. Grimme, J. Chem. Phys., 2017,
     147, 034112. DOI: 10.1063/1.4993215
   * E. Caldeweyher, S. Ehlert, A. Hansen, H. Neugebauer, S. Spicher,
     C. Bannwarth and S. Grimme, J. Chem. Phys., 2019, 150, 154122.
     DOI: 10.1063/1.5090222
   * E. Caldeweyher, J.-M. Mewes, S. Ehlert and S. Grimme, Phys. Chem. Chem. Phys.
     2020, 22, 8499-8512. DOI: 10.1039/D0CP00502A
   
   for sTDA-xTB:
   * S. Grimme and C. Bannwarth, J. Chem. Phys., 2016, 145, 054103.
     DOI: 10.1063/1.4959605
   
   in the mass-spec context:
   * V. Asgeirsson, C. Bauer and S. Grimme, Chem. Sci., 2017, 8, 4879.
     DOI: 10.1039/c7sc00601b
   * J. Koopman and S. Grimme, ACS Omega 2019, 4, 12, 15120-15133.
     DOI: 10.1021/acsomega.9b02011
   
   for metadynamics refer to:
   * S. Grimme, J. Chem. Theory Comput., 2019, 155, 2847-2862
     DOI: 10.1021/acs.jctc.9b00143
   
   for SPH calculations refer to:
   * S. Spicher and S. Grimme, J. Chem. Theory Comput., 2021, 17, 1701-1714
     DOI: 10.1021/acs.jctc.0c01306
   
   for ONIOM refer to:
   * C. Plett, A. Katbashev, S. Ehlert, S. Grimme, M. Bursch,
     Phys. Chem. Chem. Phys., 2023, 25, 17860-17868. DOI: 10.1039/D3CP02178E
   
   for DIPRO refer to:
   * J. Kohn, N. Gildemeister, S. Grimme, D. Fazzi, A. Hansen,
     J. Chem. Phys., 2023, just accepted.
   
   for PTB refer to:
   * S. Grimme, M. Mueller, A. Hansen, J. Chem. Phys., 2023, 158, 124111.
     DOI: 10.1063/5.0137838
   
   with help from (in alphabetical order)
   P. Atkinson, C. Bannwarth, F. Bohle, G. Brandenburg, E. Caldeweyher
   M. Checinski, S. Dohm, S. Ehlert, S. Ehrlich, I. Gerasimov, C. Hölzer
   A. Katbashev, J. Kohn, J. Koopman, C. Lavigne, S. Lehtola, F. März, M. Müller,
   F. Musil, H. Neugebauer, J. Pisarek, C. Plett, P. Pracht, F. Pultar,
   J. Seibert, P. Shushkov, S. Spicher, M. Stahn, M. Steiner, T. Strunk,
   J. Stückrath, T. Rose, and J. Unsleber
   
 * started run on 2024/12/20 at 06:51:27.990     
   ID    Z sym.   atoms
    1   17 Cl     1
    2    6 C      2-8, 10, 12, 13, 15-23
    3    8 O      9
    4    7 N      11, 14
    5    1 H      24-41

           -------------------------------------------------
          |                Calculation Setup                |
           -------------------------------------------------

          program call               : xtb C0638.xyz --opt --namespace C0638 --charge +1
          calculation namespace      : C0638
          coordinate file            : C0638.xyz
          omp threads                :                     8


           -------------------------------------------------
          |                 G F N 2 - x T B                 |
           -------------------------------------------------

        Reference                      10.1021/acs.jctc.8b01176
      * Hamiltonian:
        H0-scaling (s, p, d)           1.850000    2.230000    2.230000
        zeta-weighting                 0.500000
      * Dispersion:
        s8                             2.700000
        a1                             0.520000
        a2                             5.000000
        s9                             5.000000
      * Repulsion:
        kExp                           1.500000    1.000000
        rExp                           1.000000
      * Coulomb:
        alpha                          2.000000
        third order                    shell-resolved
        anisotropic                    true
        a3                             3.000000
        a5                             4.000000
        cn-shift                       1.200000
        cn-exp                         4.000000
        max-rad                        5.000000


          ...................................................
          :                      SETUP                      :
          :.................................................:
          :  # basis functions                 116          :
          :  # atomic orbitals                 115          :
          :  # shells                           65          :
          :  # electrons                       116          :
          :  max. iterations                   250          :
          :  Hamiltonian                  GFN2-xTB          :
          :  restarted?                      false          :
          :  GBSA solvation                  false          :
          :  PC potential                    false          :
          :  electronic temp.          300.0000000     K    :
          :  accuracy                    1.0000000          :
          :  -> integral cutoff          0.2500000E+02      :
          :  -> integral neglect         0.1000000E-07      :
          :  -> SCF convergence          0.1000000E-05 Eh   :
          :  -> wf. convergence          0.1000000E-03 e    :
          :  Broyden damping             0.4000000          :
          :  net charge                          1          :
          :  unpaired electrons                  0          :
          ...................................................

 iter      E             dE          RMSdq      gap      omega  full diag
   1    -64.7342293 -0.647342E+02  0.439E+00    3.08       0.0  T
   2    -64.8487616 -0.114532E+00  0.269E+00    2.56       1.0  T
   3    -64.8491304 -0.368741E-03  0.138E+00    2.57       1.0  T
   4    -64.8617670 -0.126367E-01  0.350E-01    2.35       1.0  T
   5    -64.8653847 -0.361763E-02  0.113E-01    2.44       1.0  T
   6    -64.8655952 -0.210586E-03  0.637E-02    2.46       1.0  T
   7    -64.8656277 -0.324547E-04  0.437E-02    2.45       1.0  T
   8    -64.8656501 -0.223715E-04  0.284E-02    2.45       1.0  T
   9    -64.8656590 -0.895668E-05  0.205E-02    2.45       1.0  T
  10    -64.8656668 -0.777275E-05  0.905E-03    2.45       1.7  T
  11    -64.8656686 -0.176821E-05  0.393E-03    2.45       4.0  T
  12    -64.8656687 -0.184874E-06  0.166E-03    2.45       9.4  T
  13    -64.8656688 -0.496029E-07  0.708E-04    2.45      22.1  T
  14    -64.8656688 -0.627412E-08  0.404E-04    2.45      38.7  T

   *** convergence criteria satisfied after 14 iterations ***

         #    Occupation            Energy/Eh            Energy/eV
      -------------------------------------------------------------
         1        2.0000           -1.1460441             -31.1854
       ...           ...                  ...                  ...
        52        2.0000           -0.5356829             -14.5767
        53        2.0000           -0.5278575             -14.3637
        54        2.0000           -0.5248570             -14.2821
        55        2.0000           -0.5187602             -14.1162
        56        2.0000           -0.5179809             -14.0950
        57        2.0000           -0.5115406             -13.9197
        58        2.0000           -0.5017764             -13.6540 (HOMO)
        59                         -0.4117231             -11.2036 (LUMO)
        60                         -0.3983584             -10.8399
        61                         -0.3634464              -9.8899
        62                         -0.3517489              -9.5716
        63                         -0.3470790              -9.4445
       ...                                ...                  ...
       115                          0.5144578              13.9991
      -------------------------------------------------------------
                  HL-Gap            0.0900533 Eh            2.4505 eV
             Fermi-level           -0.4567497 Eh          -12.4288 eV

 SCC (total)                   0 d,  0 h,  0 min,  0.038 sec
 SCC setup                      ...        0 min,  0.000 sec (  0.382%)
 Dispersion                     ...        0 min,  0.001 sec (  1.504%)
 classical contributions        ...        0 min,  0.000 sec (  0.159%)
 integral evaluation            ...        0 min,  0.003 sec (  9.157%)
 iterations                     ...        0 min,  0.028 sec ( 72.068%)
 molecular gradient             ...        0 min,  0.006 sec ( 16.365%)
 printout                       ...        0 min,  0.000 sec (  0.322%)

         :::::::::::::::::::::::::::::::::::::::::::::::::::::
         ::                     SUMMARY                     ::
         :::::::::::::::::::::::::::::::::::::::::::::::::::::
         :: total energy             -63.932116691813 Eh    ::
         :: gradient norm              0.084126335354 Eh/a0 ::
         :: HOMO-LUMO gap              2.450475722869 eV    ::
         ::.................................................::
         :: SCC energy               -64.864878308619 Eh    ::
         :: -> isotropic ES            0.101378820608 Eh    ::
         :: -> anisotropic ES         -0.011615870545 Eh    ::
         :: -> anisotropic XC          0.035120757607 Eh    ::
         :: -> dispersion             -0.043314920924 Eh    ::
         :: repulsion energy           0.932761616806 Eh    ::
         :: add. restraining           0.000000000000 Eh    ::
         :: total charge               1.000000000000 e     ::
         :::::::::::::::::::::::::::::::::::::::::::::::::::::

      ----------------------------------------------------------- 
     |                   =====================                   |
     |                        A N C O P T                        |
     |                   =====================                   |
     |               Approximate Normal Coordinate               |
     |                Rational Function Optimizer                |
      ----------------------------------------------------------- 
      ----------------------------------------------------------- 
     |                   =====================                   |
     |                        A N C O P T                        |
     |                   =====================                   |
     |               Approximate Normal Coordinate               |
     |                Rational Function Optimizer                |
      ----------------------------------------------------------- 

          ...................................................
          :                      SETUP                      :
          :.................................................:
          :   optimization level            normal          :
          :   max. optcycles                   200          :
          :   ANC micro-cycles                  20          :
          :   degrees of freedom               117          :
          :.................................................:
          :   RF solver                   davidson          :
          :   write xtbopt.log                true          :
          :   linear?                        false          :
          :   energy convergence         0.5000000E-05 Eh   :
          :   grad. convergence          0.1000000E-02 Eh/α :
          :   maxmium RF displ.          1.0000000          :
          :   Hlow (freq-cutoff)         0.1000000E-01      :
          :   Hmax (freq-cutoff)         5.0000000          :
          :   S6 in model hess.         20.0000000          :
          ...................................................

generating ANC from exact Hessian ...
Using Lindh-Hessian (1995)
 Shifting diagonal of input Hessian by    9.8313706055873883E-003
 Lowest  eigenvalues of input Hessian
    0.000000    0.000000    0.000000    0.000000    0.000000    0.000000
    0.010000    0.010249    0.010563    0.010803    0.010949    0.011400
    0.012891    0.013891    0.017037    0.017824    0.018908    0.019753
 Highest eigenvalues
    1.944194    1.954692    1.969261    2.041567    2.045951    2.090366


........................................................................
.............................. CYCLE    1 ..............................
........................................................................

 iter      E             dE          RMSdq      gap      omega  full diag
   1    -64.8656688 -0.648657E+02  0.232E-04    2.45       0.0  T
   2    -64.8656688 -0.419448E-09  0.185E-04    2.45      84.6  T
   3    -64.8656688 -0.418609E-09  0.144E-04    2.45     108.5  T
     SCC iter.                  ...        0 min,  0.006 sec
     gradient                   ...        0 min,  0.007 sec
 * total energy  :   -63.9321167 Eh     change       -0.1737121E-08 Eh
   gradient norm :     0.0841232 Eh/α   predicted     0.0000000E+00 (-100.00%)
   displ. norm   :     0.2638011 α      lambda       -0.1221453E-01
   maximum displ.:     0.0974127 α      in ANC's #70, #27, #7, ...

........................................................................
.............................. CYCLE    2 ..............................
........................................................................

 iter      E             dE          RMSdq      gap      omega  full diag
   1    -64.9190972 -0.649191E+02  0.191E-01    2.56       0.0  T
   2    -64.9192106 -0.113410E-03  0.110E-01    2.54       1.0  T
   3    -64.9192024  0.816719E-05  0.403E-02    2.54       1.0  T
   4    -64.9192151 -0.127320E-04  0.103E-02    2.54       1.5  T
   5    -64.9192196 -0.447653E-05  0.309E-03    2.54       5.0  T
   6    -64.9192197 -0.879371E-07  0.166E-03    2.54       9.4  T
   7    -64.9192197 -0.395061E-07  0.561E-04    2.54      27.8  T
   8    -64.9192197 -0.280029E-08  0.328E-04    2.54      47.6  T
     SCC iter.                  ...        0 min,  0.015 sec
     gradient                   ...        0 min,  0.006 sec
 * total energy  :   -63.9401640 Eh     change       -0.8047319E-02 Eh
   gradient norm :     0.0358553 Eh/α   predicted    -0.6536004E-02 ( -18.78%)
   displ. norm   :     0.2373058 α      lambda       -0.3339770E-02
   maximum displ.:     0.1169816 α      in ANC's #8, #7, #9, ...

........................................................................
.............................. CYCLE    3 ..............................
........................................................................

 iter      E             dE          RMSdq      gap      omega  full diag
   1    -64.9441232 -0.649441E+02  0.136E-01    2.59       0.0  T
   2    -64.9441936 -0.704712E-04  0.756E-02    2.58       1.0  T
   3    -64.9441909  0.277740E-05  0.314E-02    2.58       1.0  T
   4    -64.9441966 -0.574233E-05  0.779E-03    2.59       2.0  T
   5    -64.9441991 -0.244415E-05  0.223E-03    2.58       7.0  T
   6    -64.9441991 -0.611964E-07  0.123E-03    2.59      12.7  T
   7    -64.9441991 -0.204325E-07  0.452E-04    2.58      34.5  T
   8    -64.9441991 -0.214432E-08  0.306E-04    2.58      51.0  T
     SCC iter.                  ...        0 min,  0.014 sec
     gradient                   ...        0 min,  0.006 sec
 * total energy  :   -63.9419415 Eh     change       -0.1777446E-02 Eh
   gradient norm :     0.0120985 Eh/α   predicted    -0.1767303E-02 (  -0.57%)
   displ. norm   :     0.1461036 α      lambda       -0.5470574E-03
   maximum displ.:     0.0899097 α      in ANC's #8, #7, #9, ...

........................................................................
.............................. CYCLE    4 ..............................
........................................................................

 iter      E             dE          RMSdq      gap      omega  full diag
   1    -64.9429660 -0.649430E+02  0.580E-02    2.58       0.0  T
   2    -64.9429702 -0.419839E-05  0.331E-02    2.59       1.0  T
   3    -64.9429642  0.602826E-05  0.145E-02    2.58       1.1  T
   4    -64.9429715 -0.737367E-05  0.258E-03    2.59       6.0  T
   5    -64.9429718 -0.215941E-06  0.982E-04    2.59      15.9  T
   6    -64.9429718 -0.610787E-08  0.607E-04    2.59      25.7  T
     SCC iter.                  ...        0 min,  0.011 sec
     gradient                   ...        0 min,  0.006 sec
 * total energy  :   -63.9422977 Eh     change       -0.3562769E-03 Eh
   gradient norm :     0.0054015 Eh/α   predicted    -0.2793703E-03 ( -21.59%)
   displ. norm   :     0.1730244 α      lambda       -0.2881777E-03
   maximum displ.:     0.1135606 α      in ANC's #8, #7, #5, ...

........................................................................
.............................. CYCLE    5 ..............................
........................................................................

 iter      E             dE          RMSdq      gap      omega  full diag
   1    -64.9401983 -0.649402E+02  0.542E-02    2.58       0.0  T
   2    -64.9401999 -0.158612E-05  0.314E-02    2.59       1.0  T
   3    -64.9401962  0.370015E-05  0.970E-03    2.59       1.6  T
   4    -64.9402005 -0.432453E-05  0.163E-03    2.59       9.6  T
   5    -64.9402006 -0.776364E-07  0.696E-04    2.59      22.4  T
   6    -64.9402006 -0.234817E-08  0.404E-04    2.59      38.7  T
     SCC iter.                  ...        0 min,  0.011 sec
     gradient                   ...        0 min,  0.006 sec
 * total energy  :   -63.9424943 Eh     change       -0.1965994E-03 Eh
   gradient norm :     0.0038046 Eh/α   predicted    -0.1485268E-03 ( -24.45%)
   displ. norm   :     0.1624448 α      lambda       -0.1453095E-03
   maximum displ.:     0.1007120 α      in ANC's #8, #7, #5, ...

........................................................................
.............................. CYCLE    6 ..............................
........................................................................

 iter      E             dE          RMSdq      gap      omega  full diag
   1    -64.9393320 -0.649393E+02  0.458E-02    2.59       0.0  T
   2    -64.9393327 -0.724059E-06  0.268E-02    2.59       1.0  T
   3    -64.9393308  0.187731E-05  0.684E-03    2.59       2.3  T
   4    -64.9393331 -0.222270E-05  0.123E-03    2.59      12.7  T
   5    -64.9393331 -0.260283E-07  0.789E-04    2.59      19.8  T
   6    -64.9393331 -0.233487E-08  0.534E-04    2.59      29.3  T
     SCC iter.                  ...        0 min,  0.012 sec
     gradient                   ...        0 min,  0.006 sec
 * total energy  :   -63.9425976 Eh     change       -0.1033129E-03 Eh
   gradient norm :     0.0041275 Eh/α   predicted    -0.7457508E-04 ( -27.82%)
   displ. norm   :     0.1661429 α      lambda       -0.1038219E-03
   maximum displ.:     0.0887180 α      in ANC's #8, #7, #5, ...

........................................................................
.............................. CYCLE    7 ..............................
........................................................................

 iter      E             dE          RMSdq      gap      omega  full diag
   1    -64.9397284 -0.649397E+02  0.473E-02    2.60       0.0  T
   2    -64.9397294 -0.101345E-05  0.277E-02    2.60       1.0  T
   3    -64.9397275  0.184272E-05  0.714E-03    2.59       2.2  T
   4    -64.9397297 -0.220378E-05  0.128E-03    2.60      12.2  T
   5    -64.9397298 -0.325263E-07  0.769E-04    2.59      20.3  T
   6    -64.9397298 -0.177486E-08  0.531E-04    2.60      29.4  T
     SCC iter.                  ...        0 min,  0.011 sec
     gradient                   ...        0 min,  0.006 sec
 * total energy  :   -63.9426714 Eh     change       -0.7379892E-04 Eh
   gradient norm :     0.0032724 Eh/α   predicted    -0.5334521E-04 ( -27.72%)
   displ. norm   :     0.1414820 α      lambda       -0.6969512E-04
   maximum displ.:     0.0690805 α      in ANC's #5, #7, #8, ...

........................................................................
.............................. CYCLE    8 ..............................
........................................................................

 iter      E             dE          RMSdq      gap      omega  full diag
   1    -64.9408155 -0.649408E+02  0.440E-02    2.60       0.0  T
   2    -64.9408163 -0.880378E-06  0.257E-02    2.60       1.0  T
   3    -64.9408149  0.143994E-05  0.641E-03    2.60       2.4  T
   4    -64.9408166 -0.173634E-05  0.118E-03    2.60      13.3  T
   5    -64.9408167 -0.270027E-07  0.705E-04    2.60      22.1  T
   6    -64.9408167 -0.202866E-08  0.459E-04    2.60      34.0  T
     SCC iter.                  ...        0 min,  0.011 sec
     gradient                   ...        0 min,  0.006 sec
 * total energy  :   -63.9427215 Eh     change       -0.5006163E-04 Eh
   gradient norm :     0.0019780 Eh/α   predicted    -0.3554557E-04 ( -29.00%)
   displ. norm   :     0.1828477 α      lambda       -0.4857153E-04
   maximum displ.:     0.0935124 α      in ANC's #5, #6, #3, ...

........................................................................
.............................. CYCLE    9 ..............................
........................................................................

 iter      E             dE          RMSdq      gap      omega  full diag
   1    -64.9421187 -0.649421E+02  0.638E-02    2.60       0.0  T
   2    -64.9421198 -0.111072E-05  0.373E-02    2.60       1.0  T
   3    -64.9421173  0.249846E-05  0.800E-03    2.60       2.0  T
   4    -64.9421203 -0.298129E-05  0.120E-03    2.60      13.0  T
   5    -64.9421204 -0.270432E-07  0.684E-04    2.60      22.8  T
   6    -64.9421204 -0.893323E-09  0.404E-04    2.60      38.7  T
     SCC iter.                  ...        0 min,  0.011 sec
     gradient                   ...        0 min,  0.006 sec
 * total energy  :   -63.9427659 Eh     change       -0.4438812E-04 Eh
   gradient norm :     0.0026382 Eh/α   predicted    -0.2464802E-04 ( -44.47%)
   displ. norm   :     0.0728834 α      lambda       -0.2787687E-04
   maximum displ.:     0.0374014 α      in ANC's #6, #3, #5, ...

........................................................................
.............................. CYCLE   10 ..............................
........................................................................

 iter      E             dE          RMSdq      gap      omega  full diag
   1    -64.9422254 -0.649422E+02  0.268E-02    2.60       0.0  T
   2    -64.9422255 -0.984743E-07  0.158E-02    2.60       1.0  T
   3    -64.9422252  0.288410E-06  0.258E-03    2.60       6.1  T
   4    -64.9422256 -0.342505E-06  0.348E-04    2.60      44.9  T
   5    -64.9422256 -0.168259E-08  0.204E-04    2.60      76.7  T
     SCC iter.                  ...        0 min,  0.009 sec
     gradient                   ...        0 min,  0.007 sec
 * total energy  :   -63.9427910 Eh     change       -0.2508093E-04 Eh
   gradient norm :     0.0023602 Eh/α   predicted    -0.1401857E-04 ( -44.11%)
   displ. norm   :     0.2053410 α      lambda       -0.7322440E-04
   maximum displ.:     0.1046150 α      in ANC's #3, #6, #5, ...

........................................................................
.............................. CYCLE   11 ..............................
........................................................................

 iter      E             dE          RMSdq      gap      omega  full diag
   1    -64.9415972 -0.649416E+02  0.747E-02    2.60       0.0  T
   2    -64.9415979 -0.760161E-06  0.439E-02    2.60       1.0  T
   3    -64.9415959  0.202570E-05  0.684E-03    2.60       2.3  T
   4    -64.9415983 -0.241586E-05  0.932E-04    2.60      16.8  T
   5    -64.9415983 -0.101921E-07  0.567E-04    2.60      27.5  T
   6    -64.9415983 -0.167444E-08  0.326E-04    2.60      48.0  T
     SCC iter.                  ...        0 min,  0.011 sec
     gradient                   ...        0 min,  0.006 sec
 * total energy  :   -63.9428475 Eh     change       -0.5654290E-04 Eh
   gradient norm :     0.0018232 Eh/α   predicted    -0.3815679E-04 ( -32.52%)
   displ. norm   :     0.3697864 α      lambda       -0.5834644E-04
   maximum displ.:     0.1938744 α      in ANC's #3, #5, #6, ...

........................................................................
.............................. CYCLE   12 ..............................
........................................................................

 iter      E             dE          RMSdq      gap      omega  full diag
   1    -64.9397384 -0.649397E+02  0.133E-01    2.60       0.0  T
   2    -64.9397402 -0.181361E-05  0.778E-02    2.60       1.0  T
   3    -64.9397352  0.503406E-05  0.106E-02    2.60       1.5  T
   4    -64.9397412 -0.607822E-05  0.150E-03    2.60      10.4  T
   5    -64.9397413 -0.149725E-07  0.961E-04    2.60      16.2  T
   6    -64.9397413 -0.608287E-08  0.515E-04    2.60      30.3  T
     SCC iter.                  ...        0 min,  0.011 sec
     gradient                   ...        0 min,  0.006 sec
 * total energy  :   -63.9429002 Eh     change       -0.5268255E-04 Eh
   gradient norm :     0.0034030 Eh/α   predicted    -0.3095381E-04 ( -41.24%)
   displ. norm   :     0.1056354 α      lambda       -0.3174939E-04
   maximum displ.:     0.0589058 α      in ANC's #3, #5, #2, ...

........................................................................
.............................. CYCLE   13 ..............................
........................................................................

 iter      E             dE          RMSdq      gap      omega  full diag
   1    -64.9404446 -0.649404E+02  0.374E-02    2.61       0.0  T
   2    -64.9404447 -0.123502E-06  0.219E-02    2.60       1.0  T
   3    -64.9404445  0.220923E-06  0.232E-03    2.60       6.7  T
   4    -64.9404448 -0.281653E-06  0.501E-04    2.60      31.2  T
   5    -64.9404448 -0.193174E-08  0.348E-04    2.60      44.8  T
     SCC iter.                  ...        0 min,  0.010 sec
     gradient                   ...        0 min,  0.006 sec
 * total energy  :   -63.9429281 Eh     change       -0.2790848E-04 Eh
   gradient norm :     0.0028574 Eh/α   predicted    -0.1605238E-04 ( -42.48%)
   displ. norm   :     0.2780299 α      lambda       -0.7616314E-04
   maximum displ.:     0.1524504 α      in ANC's #3, #5, #2, ...

........................................................................
.............................. CYCLE   14 ..............................
........................................................................

 iter      E             dE          RMSdq      gap      omega  full diag
   1    -64.9410324 -0.649410E+02  0.969E-02    2.61       0.0  T
   2    -64.9410332 -0.806396E-06  0.569E-02    2.61       1.0  T
   3    -64.9410314  0.175173E-05  0.646E-03    2.61       2.4  T
   4    -64.9410336 -0.217244E-05  0.104E-03    2.61      15.0  T
   5    -64.9410336 -0.775063E-08  0.650E-04    2.61      24.0  T
   6    -64.9410336 -0.211199E-08  0.352E-04    2.61      44.3  T
     SCC iter.                  ...        0 min,  0.011 sec
     gradient                   ...        0 min,  0.006 sec
 * total energy  :   -63.9429864 Eh     change       -0.5830467E-04 Eh
   gradient norm :     0.0015883 Eh/α   predicted    -0.4102557E-04 ( -29.64%)
   displ. norm   :     0.4474972 α      lambda       -0.5219694E-04
   maximum displ.:     0.2471559 α      in ANC's #5, #3, #2, ...

........................................................................
.............................. CYCLE   15 ..............................
........................................................................

 iter      E             dE          RMSdq      gap      omega  full diag
   1    -64.9399884 -0.649400E+02  0.153E-01    2.61       0.0  T
   2    -64.9399904 -0.192574E-05  0.899E-02    2.61       1.0  T
   3    -64.9399858  0.456550E-05  0.104E-02    2.61       1.5  T
   4    -64.9399914 -0.561675E-05  0.170E-03    2.61       9.2  T
   5    -64.9399914 -0.214633E-07  0.110E-03    2.61      14.3  T
   6    -64.9399914 -0.585001E-08  0.616E-04    2.61      25.4  T
   7    -64.9399915 -0.607866E-08  0.412E-04    2.61      37.9  T
     SCC iter.                  ...        0 min,  0.013 sec
     gradient                   ...        0 min,  0.006 sec
 * total energy  :   -63.9430368 Eh     change       -0.5035394E-04 Eh
   gradient norm :     0.0026228 Eh/α   predicted    -0.2842232E-04 ( -43.55%)
   displ. norm   :     0.1621423 α      lambda       -0.3526665E-04
   maximum displ.:     0.0871542 α      in ANC's #5, #3, #2, ...

........................................................................
.............................. CYCLE   16 ..............................
........................................................................

 iter      E             dE          RMSdq      gap      omega  full diag
   1    -64.9409957 -0.649410E+02  0.513E-02    2.61       0.0  T
   2    -64.9409959 -0.184207E-06  0.301E-02    2.61       1.0  T
   3    -64.9409956  0.310785E-06  0.278E-03    2.61       5.6  T
   4    -64.9409960 -0.401708E-06  0.626E-04    2.61      25.0  T
   5    -64.9409960 -0.428963E-08  0.411E-04    2.61      38.0  T
     SCC iter.                  ...        0 min,  0.010 sec
     gradient                   ...        0 min,  0.006 sec
 * total energy  :   -63.9430669 Eh     change       -0.3009716E-04 Eh
   gradient norm :     0.0024073 Eh/α   predicted    -0.1810141E-04 ( -39.86%)
   displ. norm   :     0.3964980 α      lambda       -0.7715954E-04
   maximum displ.:     0.2190081 α      in ANC's #5, #3, #2, ...

........................................................................
.............................. CYCLE   17 ..............................
........................................................................

 iter      E             dE          RMSdq      gap      omega  full diag
   1    -64.9411107 -0.649411E+02  0.126E-01    2.61       0.0  T
   2    -64.9411117 -0.102421E-05  0.737E-02    2.61       1.0  T
   3    -64.9411099  0.185554E-05  0.668E-03    2.61       2.3  T
   4    -64.9411122 -0.239909E-05  0.134E-03    2.61      11.6  T
   5    -64.9411123 -0.151294E-07  0.842E-04    2.61      18.5  T
   6    -64.9411123 -0.298932E-08  0.419E-04    2.61      37.3  T
     SCC iter.                  ...        0 min,  0.011 sec
     gradient                   ...        0 min,  0.006 sec
 * total energy  :   -63.9431327 Eh     change       -0.6586219E-04 Eh
   gradient norm :     0.0025784 Eh/α   predicted    -0.4464943E-04 ( -32.21%)
   displ. norm   :     0.5233376 α      lambda       -0.9861810E-04
   maximum displ.:     0.2855074 α      in ANC's #5, #2, #3, ...

........................................................................
.............................. CYCLE   18 ..............................
........................................................................

 iter      E             dE          RMSdq      gap      omega  full diag
   1    -64.9400221 -0.649400E+02  0.160E-01    2.61       0.0  T
   2    -64.9400237 -0.162496E-05  0.941E-02    2.61       1.0  T
   3    -64.9400211  0.261610E-05  0.816E-03    2.61       1.9  T
   4    -64.9400246 -0.346713E-05  0.173E-03    2.61       9.0  T
   5    -64.9400246 -0.230959E-07  0.105E-03    2.61      14.9  T
   6    -64.9400246 -0.402089E-08  0.507E-04    2.61      30.8  T
   7    -64.9400246 -0.396078E-08  0.342E-04    2.61      45.6  T
     SCC iter.                  ...        0 min,  0.013 sec
     gradient                   ...        0 min,  0.006 sec
 * total energy  :   -63.9432093 Eh     change       -0.7654645E-04 Eh
   gradient norm :     0.0031302 Eh/α   predicted    -0.6281915E-04 ( -17.93%)
   displ. norm   :     0.4063587 α      lambda       -0.9185902E-04
   maximum displ.:     0.2018272 α      in ANC's #5, #1, #2, ...

........................................................................
.............................. CYCLE   19 ..............................
........................................................................

 iter      E             dE          RMSdq      gap      omega  full diag
   1    -64.9413485 -0.649413E+02  0.110E-01    2.61       0.0  T
   2    -64.9413494 -0.939905E-06  0.645E-02    2.61       1.0  T
   3    -64.9413485  0.930781E-06  0.559E-03    2.61       2.8  T
   4    -64.9413498 -0.132072E-05  0.136E-03    2.61      11.5  T
   5    -64.9413499 -0.220600E-07  0.777E-04    2.61      20.1  T
   6    -64.9413499 -0.237102E-08  0.369E-04    2.61      42.3  T
     SCC iter.                  ...        0 min,  0.011 sec
     gradient                   ...        0 min,  0.006 sec
 * total energy  :   -63.9432762 Eh     change       -0.6697398E-04 Eh
   gradient norm :     0.0030350 Eh/α   predicted    -0.5351718E-04 ( -20.09%)
   displ. norm   :     0.4440072 α      lambda       -0.7534233E-04
   maximum displ.:     0.2296083 α      in ANC's #5, #1, #2, ...

........................................................................
.............................. CYCLE   20 ..............................
........................................................................

 iter      E             dE          RMSdq      gap      omega  full diag
   1    -64.9395165 -0.649395E+02  0.127E-01    2.61       0.0  T
   2    -64.9395174 -0.952303E-06  0.745E-02    2.61       1.0  T
   3    -64.9395164  0.104374E-05  0.564E-03    2.61       2.8  T
   4    -64.9395179 -0.154590E-05  0.138E-03    2.61      11.3  T
   5    -64.9395179 -0.915075E-08  0.752E-04    2.61      20.8  T
   6    -64.9395179 -0.318154E-08  0.348E-04    2.61      44.9  T
     SCC iter.                  ...        0 min,  0.011 sec
     gradient                   ...        0 min,  0.006 sec
 * total energy  :   -63.9433371 Eh     change       -0.6084408E-04 Eh
   gradient norm :     0.0040105 Eh/α   predicted    -0.4510193E-04 ( -25.87%)
   displ. norm   :     0.4992835 α      lambda       -0.1477500E-03
   maximum displ.:     0.2600650 α      in ANC's #1, #2, #4, ...
 * RMSD in coord.:     0.6574823 α      energy gain  -0.1122040E-01 Eh

generating ANC from exact Hessian ...
Using Lindh-Hessian (1995)
 Shifting diagonal of input Hessian by    9.8083544370990913E-003
 Lowest  eigenvalues of input Hessian
    0.000000    0.000000    0.000000    0.000000    0.000000    0.000000
    0.010000    0.010246    0.010547    0.010874    0.011032    0.011336
    0.013391    0.014360    0.017350    0.018718    0.019710    0.020673
 Highest eigenvalues
    2.020998    2.040058    2.058078    2.160928    2.181363    2.219723


........................................................................
.............................. CYCLE   21 ..............................
........................................................................

 iter      E             dE          RMSdq      gap      omega  full diag
   1    -64.9414438 -0.649414E+02  0.123E-01    2.61       0.0  T
   2    -64.9414450 -0.121235E-05  0.722E-02    2.62       1.0  T
   3    -64.9414439  0.108125E-05  0.633E-03    2.61       2.5  T
   4    -64.9414456 -0.163661E-05  0.172E-03    2.62       9.1  T
   5    -64.9414456 -0.272924E-07  0.979E-04    2.62      16.0  T
   6    -64.9414456 -0.790763E-08  0.443E-04    2.62      35.3  T
     SCC iter.                  ...        0 min,  0.011 sec
     gradient                   ...        0 min,  0.006 sec
 * total energy  :   -63.9434526 Eh     change       -0.1154896E-03 Eh
   gradient norm :     0.0043743 Eh/α   predicted     0.0000000E+00 (-100.00%)
   displ. norm   :     0.0491557 α      lambda       -0.5076805E-04
   maximum displ.:     0.0252139 α      in ANC's #3, #4, #8, ...

........................................................................
.............................. CYCLE   22 ..............................
........................................................................

 iter      E             dE          RMSdq      gap      omega  full diag
   1    -64.9422707 -0.649423E+02  0.188E-02    2.62       0.0  T
   2    -64.9422710 -0.284804E-06  0.111E-02    2.62       1.4  T
   3    -64.9422705  0.504952E-06  0.387E-03    2.62       4.0  T
   4    -64.9422711 -0.604685E-06  0.600E-04    2.62      26.0  T
   5    -64.9422711 -0.898905E-08  0.266E-04    2.62      58.7  T
     SCC iter.                  ...        0 min,  0.009 sec
     gradient                   ...        0 min,  0.006 sec
 * total energy  :   -63.9435026 Eh     change       -0.5002350E-04 Eh
   gradient norm :     0.0022139 Eh/α   predicted    -0.3044062E-04 ( -39.15%)
   displ. norm   :     0.1515609 α      lambda       -0.1157146E-03
   maximum displ.:     0.0784504 α      in ANC's #3, #4, #1, ...

........................................................................
.............................. CYCLE   23 ..............................
........................................................................

 iter      E             dE          RMSdq      gap      omega  full diag
   1    -64.9429086 -0.649429E+02  0.523E-02    2.62       0.0  T
   2    -64.9429096 -0.105801E-05  0.306E-02    2.62       1.0  T
   3    -64.9429074  0.225605E-05  0.792E-03    2.62       2.0  T
   4    -64.9429101 -0.269464E-05  0.136E-03    2.62      11.5  T
   5    -64.9429101 -0.353432E-07  0.735E-04    2.62      21.2  T
   6    -64.9429101 -0.255724E-08  0.463E-04    2.62      33.7  T
     SCC iter.                  ...        0 min,  0.011 sec
     gradient                   ...        0 min,  0.006 sec
 * total energy  :   -63.9435802 Eh     change       -0.7756614E-04 Eh
   gradient norm :     0.0024098 Eh/α   predicted    -0.5918732E-04 ( -23.69%)
   displ. norm   :     0.1250298 α      lambda       -0.4949124E-04
   maximum displ.:     0.0644548 α      in ANC's #3, #4, #1, ...

........................................................................
.............................. CYCLE   24 ..............................
........................................................................

 iter      E             dE          RMSdq      gap      omega  full diag
   1    -64.9425923 -0.649426E+02  0.405E-02    2.62       0.0  T
   2    -64.9425926 -0.354730E-06  0.238E-02    2.62       1.0  T
   3    -64.9425920  0.652119E-06  0.420E-03    2.62       3.7  T
   4    -64.9425928 -0.808363E-06  0.833E-04    2.62      18.7  T
   5    -64.9425928 -0.965332E-08  0.516E-04    2.62      30.3  T
     SCC iter.                  ...        0 min,  0.009 sec
     gradient                   ...        0 min,  0.010 sec
 * total energy  :   -63.9436189 Eh     change       -0.3877746E-04 Eh
   gradient norm :     0.0028259 Eh/α   predicted    -0.2513259E-04 ( -35.19%)
   displ. norm   :     0.1559488 α      lambda       -0.5285221E-04
   maximum displ.:     0.0809797 α      in ANC's #4, #3, #1, ...

........................................................................
.............................. CYCLE   25 ..............................
........................................................................

 iter      E             dE          RMSdq      gap      omega  full diag
   1    -64.9420197 -0.649420E+02  0.482E-02    2.62       0.0  T
   2    -64.9420201 -0.367368E-06  0.284E-02    2.62       1.0  T
   3    -64.9420194  0.710685E-06  0.436E-03    2.62       3.6  T
   4    -64.9420202 -0.887516E-06  0.768E-04    2.62      20.3  T
   5    -64.9420202 -0.575200E-08  0.483E-04    2.62      32.4  T
     SCC iter.                  ...        0 min,  0.010 sec
     gradient                   ...        0 min,  0.006 sec
 * total energy  :   -63.9436613 Eh     change       -0.4239010E-04 Eh
   gradient norm :     0.0026041 Eh/α   predicted    -0.2708412E-04 ( -36.11%)
   displ. norm   :     0.1947715 α      lambda       -0.5835094E-04
   maximum displ.:     0.1004530 α      in ANC's #4, #3, #1, ...

........................................................................
.............................. CYCLE   26 ..............................
........................................................................

 iter      E             dE          RMSdq      gap      omega  full diag
   1    -64.9414816 -0.649415E+02  0.571E-02    2.62       0.0  T
   2    -64.9414820 -0.380987E-06  0.336E-02    2.62       1.0  T
   3    -64.9414812  0.853148E-06  0.471E-03    2.62       3.3  T
   4    -64.9414822 -0.106360E-05  0.794E-04    2.62      19.7  T
   5    -64.9414822 -0.430882E-08  0.489E-04    2.62      31.9  T
   6    -64.9414822 -0.174194E-08  0.197E-04    2.62      79.2  T
     SCC iter.                  ...        0 min,  0.011 sec
     gradient                   ...        0 min,  0.006 sec
 * total energy  :   -63.9437081 Eh     change       -0.4673678E-04 Eh
   gradient norm :     0.0025163 Eh/α   predicted    -0.3028552E-04 ( -35.20%)
   displ. norm   :     0.2350244 α      lambda       -0.6521856E-04
   maximum displ.:     0.1191348 α      in ANC's #4, #1, #3, ...

........................................................................
.............................. CYCLE   27 ..............................
........................................................................

 iter      E             dE          RMSdq      gap      omega  full diag
   1    -64.9411621 -0.649412E+02  0.657E-02    2.62       0.0  T
   2    -64.9411626 -0.438031E-06  0.386E-02    2.62       1.0  T
   3    -64.9411615  0.107113E-05  0.521E-03    2.62       3.0  T
   4    -64.9411628 -0.132254E-05  0.878E-04    2.62      17.8  T
   5    -64.9411628 -0.579135E-08  0.538E-04    2.62      29.0  T
   6    -64.9411628 -0.216349E-08  0.269E-04    2.62      58.1  T
     SCC iter.                  ...        0 min,  0.011 sec
     gradient                   ...        0 min,  0.006 sec
 * total energy  :   -63.9437610 Eh     change       -0.5294509E-04 Eh
   gradient norm :     0.0028102 Eh/α   predicted    -0.3441094E-04 ( -35.01%)
   displ. norm   :     0.2910308 α      lambda       -0.8122673E-04
   maximum displ.:     0.1471026 α      in ANC's #1, #4, #3, ...

........................................................................
.............................. CYCLE   28 ..............................
........................................................................

 iter      E             dE          RMSdq      gap      omega  full diag
   1    -64.9411141 -0.649411E+02  0.786E-02    2.62       0.0  T
   2    -64.9411148 -0.621388E-06  0.461E-02    2.62       1.0  T
   3    -64.9411136  0.117928E-05  0.548E-03    2.62       2.8  T
   4    -64.9411151 -0.149025E-05  0.104E-03    2.62      15.0  T
   5    -64.9411151 -0.110605E-07  0.626E-04    2.62      24.9  T
   6    -64.9411151 -0.204641E-08  0.344E-04    2.62      45.5  T
     SCC iter.                  ...        0 min,  0.011 sec
     gradient                   ...        0 min,  0.006 sec
 * total energy  :   -63.9438277 Eh     change       -0.6670467E-04 Eh
   gradient norm :     0.0034530 Eh/α   predicted    -0.4405361E-04 ( -33.96%)
   displ. norm   :     0.3573987 α      lambda       -0.1058579E-03
   maximum displ.:     0.1856002 α      in ANC's #1, #4, #2, ...

........................................................................
.............................. CYCLE   29 ..............................
........................................................................

 iter      E             dE          RMSdq      gap      omega  full diag
   1    -64.9412367 -0.649412E+02  0.946E-02    2.63       0.0  T
   2    -64.9412376 -0.859400E-06  0.555E-02    2.63       1.0  T
   3    -64.9412361  0.145568E-05  0.605E-03    2.63       2.6  T
   4    -64.9412380 -0.186913E-05  0.115E-03    2.63      13.6  T
   5    -64.9412380 -0.117118E-07  0.661E-04    2.63      23.6  T
   6    -64.9412380 -0.214034E-08  0.334E-04    2.63      46.7  T
     SCC iter.                  ...        0 min,  0.011 sec
     gradient                   ...        0 min,  0.006 sec
 * total energy  :   -63.9439161 Eh     change       -0.8841400E-04 Eh
   gradient norm :     0.0045289 Eh/α   predicted    -0.5969320E-04 ( -32.48%)
   displ. norm   :     0.4304826 α      lambda       -0.1430421E-03
   maximum displ.:     0.2291181 α      in ANC's #1, #4, #2, ...

........................................................................
.............................. CYCLE   30 ..............................
........................................................................

 iter      E             dE          RMSdq      gap      omega  full diag
   1    -64.9414594 -0.649415E+02  0.113E-01    2.63       0.0  T
   2    -64.9414606 -0.119949E-05  0.661E-02    2.63       1.0  T
   3    -64.9414585  0.215242E-05  0.728E-03    2.63       2.1  T
   4    -64.9414612 -0.274088E-05  0.127E-03    2.63      12.3  T
   5    -64.9414612 -0.107876E-07  0.708E-04    2.63      22.1  T
   6    -64.9414612 -0.132617E-08  0.320E-04    2.63      48.8  T
     SCC iter.                  ...        0 min,  0.011 sec
     gradient                   ...        0 min,  0.006 sec
 * total energy  :   -63.9440375 Eh     change       -0.1214037E-03 Eh
   gradient norm :     0.0054797 Eh/α   predicted    -0.8479148E-04 ( -30.16%)
   displ. norm   :     0.5024951 α      lambda       -0.1886372E-03
   maximum displ.:     0.2729763 α      in ANC's #1, #2, #4, ...

........................................................................
.............................. CYCLE   31 ..............................
........................................................................

 iter      E             dE          RMSdq      gap      omega  full diag
   1    -64.9415059 -0.649415E+02  0.131E-01    2.63       0.0  T
   2    -64.9415075 -0.151741E-05  0.767E-02    2.62       1.0  T
   3    -64.9415038  0.360501E-05  0.931E-03    2.63       1.7  T
   4    -64.9415083 -0.446884E-05  0.148E-03    2.62      10.6  T
   5    -64.9415083 -0.897921E-08  0.834E-04    2.63      18.7  T
   6    -64.9415083 -0.420441E-08  0.350E-04    2.63      44.6  T
     SCC iter.                  ...        0 min,  0.011 sec
     gradient                   ...        0 min,  0.006 sec
 * total energy  :   -63.9441971 Eh     change       -0.1595514E-03 Eh
   gradient norm :     0.0052456 Eh/α   predicted    -0.1181345E-03 ( -25.96%)
   displ. norm   :     0.5613796 α      lambda       -0.2123162E-03
   maximum displ.:     0.3093755 α      in ANC's #1, #2, #5, ...

........................................................................
.............................. CYCLE   32 ..............................
........................................................................

 iter      E             dE          RMSdq      gap      omega  full diag
   1    -64.9408843 -0.649409E+02  0.146E-01    2.62       0.0  T
   2    -64.9408864 -0.204413E-05  0.858E-02    2.62       1.0  T
   3    -64.9408809  0.552906E-05  0.115E-02    2.62       1.4  T
   4    -64.9408876 -0.673108E-05  0.184E-03    2.62       8.5  T
   5    -64.9408876 -0.245993E-07  0.106E-03    2.62      14.7  T
   6    -64.9408876 -0.672141E-08  0.493E-04    2.62      31.7  T
   7    -64.9408876 -0.573084E-08  0.266E-04    2.62      58.8  T
     SCC iter.                  ...        0 min,  0.013 sec
     gradient                   ...        0 min,  0.006 sec
 * total energy  :   -63.9443688 Eh     change       -0.1716608E-03 Eh
   gradient norm :     0.0040058 Eh/α   predicted    -0.1396147E-03 ( -18.67%)
   displ. norm   :     0.4879441 α      lambda       -0.1781239E-03
   maximum displ.:     0.2754810 α      in ANC's #1, #5, #2, ...

........................................................................
.............................. CYCLE   33 ..............................
........................................................................

 iter      E             dE          RMSdq      gap      omega  full diag
   1    -64.9423162 -0.649423E+02  0.127E-01    2.62       0.0  T
   2    -64.9423180 -0.189295E-05  0.742E-02    2.61       1.0  T
   3    -64.9423129  0.516278E-05  0.111E-02    2.62       1.4  T
   4    -64.9423191 -0.621528E-05  0.195E-03    2.61       8.0  T
   5    -64.9423191 -0.484917E-07  0.116E-03    2.61      13.5  T
   6    -64.9423192 -0.636716E-08  0.624E-04    2.61      25.0  T
   7    -64.9423192 -0.711407E-08  0.412E-04    2.61      37.9  T
     SCC iter.                  ...        0 min,  0.016 sec
     gradient                   ...        0 min,  0.006 sec
 * total energy  :   -63.9444935 Eh     change       -0.1247819E-03 Eh
   gradient norm :     0.0030640 Eh/α   predicted    -0.1102731E-03 ( -11.63%)
   displ. norm   :     0.6934508 α      lambda       -0.1637465E-03
   maximum displ.:     0.3779046 α      in ANC's #1, #2, #4, ...

........................................................................
.............................. CYCLE   34 ..............................
........................................................................

 iter      E             dE          RMSdq      gap      omega  full diag
   1    -64.9328086 -0.649328E+02  0.186E-01    2.61       0.0  T
   2    -64.9328134 -0.477159E-05  0.109E-01    2.61       1.0  T
   3    -64.9328059  0.744161E-05  0.139E-02    2.61       1.1  T
   4    -64.9328153 -0.932549E-05  0.261E-03    2.61       6.0  T
   5    -64.9328154 -0.103376E-06  0.145E-03    2.61      10.8  T
   6    -64.9328154 -0.806365E-08  0.732E-04    2.61      21.3  T
   7    -64.9328154 -0.103563E-07  0.336E-04    2.61      46.5  T
     SCC iter.                  ...        0 min,  0.013 sec
     gradient                   ...        0 min,  0.006 sec
 * total energy  :   -63.9444354 Eh     change        0.5817863E-04 Eh
   gradient norm :     0.0113334 Eh/α   predicted    -0.1212440E-03 (-308.40%)
   displ. norm   :     0.1559521 α      lambda       -0.3372585E-03
   maximum displ.:     0.0862085 α      in ANC's #4, #3, #2, ...

........................................................................
.............................. CYCLE   35 ..............................
........................................................................

 iter      E             dE          RMSdq      gap      omega  full diag
   1    -64.9420739 -0.649421E+02  0.536E-02    2.61       0.0  T
   2    -64.9420759 -0.204322E-05  0.314E-02    2.61       1.0  T
   3    -64.9420749  0.100451E-05  0.682E-03    2.61       2.3  T
   4    -64.9420762 -0.129922E-05  0.137E-03    2.61      11.4  T
   5    -64.9420762 -0.481018E-07  0.636E-04    2.61      24.6  T
   6    -64.9420762 -0.568789E-09  0.355E-04    2.61      44.0  T
     SCC iter.                  ...        0 min,  0.011 sec
     gradient                   ...        0 min,  0.006 sec
 * total energy  :   -63.9446138 Eh     change       -0.1784610E-03 Eh
   gradient norm :     0.0033832 Eh/α   predicted    -0.1727337E-03 (  -3.21%)
   displ. norm   :     0.1951061 α      lambda       -0.5587772E-04
   maximum displ.:     0.1134759 α      in ANC's #1, #5, #2, ...

........................................................................
.............................. CYCLE   36 ..............................
........................................................................

 iter      E             dE          RMSdq      gap      omega  full diag
   1    -64.9429873 -0.649430E+02  0.508E-02    2.61       0.0  T
   2    -64.9429876 -0.319819E-06  0.298E-02    2.61       1.0  T
   3    -64.9429869  0.633814E-06  0.386E-03    2.61       4.0  T
   4    -64.9429877 -0.787360E-06  0.688E-04    2.61      22.7  T
   5    -64.9429877 -0.505892E-08  0.394E-04    2.61      39.6  T
     SCC iter.                  ...        0 min,  0.009 sec
     gradient                   ...        0 min,  0.006 sec
 * total energy  :   -63.9446635 Eh     change       -0.4970732E-04 Eh
   gradient norm :     0.0028972 Eh/α   predicted    -0.2900293E-04 ( -41.65%)
   displ. norm   :     0.5624003 α      lambda       -0.1631745E-03
   maximum displ.:     0.3245735 α      in ANC's #1, #5, #2, ...

........................................................................
.............................. CYCLE   37 ..............................
........................................................................

 iter      E             dE          RMSdq      gap      omega  full diag
   1    -64.9423167 -0.649423E+02  0.149E-01    2.62       0.0  T
   2    -64.9423191 -0.244930E-05  0.875E-02    2.62       1.0  T
   3    -64.9423134  0.575466E-05  0.116E-02    2.62       1.4  T
   4    -64.9423205 -0.715011E-05  0.188E-03    2.62       8.3  T
   5    -64.9423205 -0.148123E-07  0.102E-03    2.62      15.4  T
   6    -64.9423205 -0.506365E-08  0.442E-04    2.62      35.3  T
   7    -64.9423206 -0.278681E-08  0.284E-04    2.62      55.0  T
     SCC iter.                  ...        0 min,  0.013 sec
     gradient                   ...        0 min,  0.006 sec
 * total energy  :   -63.9447894 Eh     change       -0.1258321E-03 Eh
   gradient norm :     0.0031947 Eh/α   predicted    -0.1073987E-03 ( -14.65%)
   displ. norm   :     0.4927360 α      lambda       -0.1150023E-03
   maximum displ.:     0.2893588 α      in ANC's #1, #5, #2, ...

........................................................................
.............................. CYCLE   38 ..............................
........................................................................

 iter      E             dE          RMSdq      gap      omega  full diag
   1    -64.9407577 -0.649408E+02  0.132E-01    2.62       0.0  T
   2    -64.9407599 -0.215443E-05  0.777E-02    2.62       1.0  T
   3    -64.9407537  0.624791E-05  0.119E-02    2.62       1.3  T
   4    -64.9407612 -0.756572E-05  0.166E-03    2.62       9.4  T
   5    -64.9407612 -0.101154E-07  0.923E-04    2.62      16.9  T
   6    -64.9407612 -0.552349E-08  0.419E-04    2.62      37.3  T
     SCC iter.                  ...        0 min,  0.011 sec
     gradient                   ...        0 min,  0.006 sec
 * total energy  :   -63.9448718 Eh     change       -0.8247211E-04 Eh
   gradient norm :     0.0048099 Eh/α   predicted    -0.7146417E-04 ( -13.35%)
   displ. norm   :     0.3484778 α      lambda       -0.1249586E-03
   maximum displ.:     0.2182254 α      in ANC's #5, #1, #13, ...

........................................................................
.............................. CYCLE   39 ..............................
........................................................................

 iter      E             dE          RMSdq      gap      omega  full diag
   1    -64.9429555 -0.649430E+02  0.953E-02    2.62       0.0  T
   2    -64.9429570 -0.146369E-05  0.559E-02    2.62       1.0  T
   3    -64.9429530  0.395732E-05  0.978E-03    2.62       1.6  T
   4    -64.9429578 -0.480537E-05  0.149E-03    2.62      10.5  T
   5    -64.9429578 -0.145082E-07  0.910E-04    2.62      17.2  T
   6    -64.9429578 -0.552050E-08  0.424E-04    2.62      36.8  T
     SCC iter.                  ...        0 min,  0.011 sec
     gradient                   ...        0 min,  0.006 sec
 * total energy  :   -63.9449508 Eh     change       -0.7895779E-04 Eh
   gradient norm :     0.0047010 Eh/α   predicted    -0.7006753E-04 ( -11.26%)
   displ. norm   :     0.4980530 α      lambda       -0.1247431E-03
   maximum displ.:     0.3123714 α      in ANC's #5, #1, #2, ...

........................................................................
.............................. CYCLE   40 ..............................
........................................................................

 iter      E             dE          RMSdq      gap      omega  full diag
   1    -64.9411048 -0.649411E+02  0.133E-01    2.63       0.0  T
   2    -64.9411081 -0.329815E-05  0.777E-02    2.63       1.0  T
   3    -64.9410978  0.103339E-04  0.154E-02    2.63       1.0  T
   4    -64.9411099 -0.121431E-04  0.188E-03    2.63       8.3  T
   5    -64.9411100 -0.485127E-07  0.108E-03    2.63      14.4  T
   6    -64.9411100 -0.401835E-08  0.622E-04    2.63      25.1  T
   7    -64.9411100 -0.782167E-08  0.274E-04    2.63      57.0  T
     SCC iter.                  ...        0 min,  0.013 sec
     gradient                   ...        0 min,  0.006 sec
 * total energy  :   -63.9450436 Eh     change       -0.9276774E-04 Eh
   gradient norm :     0.0046295 Eh/α   predicted    -0.7784824E-04 ( -16.08%)
   displ. norm   :     0.3975590 α      lambda       -0.1602979E-03
   maximum displ.:     0.2702750 α      in ANC's #5, #1, #2, ...

........................................................................
.............................. CYCLE   41 ..............................
........................................................................

 iter      E             dE          RMSdq      gap      omega  full diag
   1    -64.9432889 -0.649433E+02  0.991E-02    2.64       0.0  T
   2    -64.9432921 -0.326344E-05  0.580E-02    2.63       1.0  T
   3    -64.9432836  0.853007E-05  0.146E-02    2.63       1.1  T
   4    -64.9432936 -0.100303E-04  0.178E-03    2.63       8.8  T
   5    -64.9432937 -0.631951E-07  0.933E-04    2.63      16.7  T
   6    -64.9432937 -0.388420E-08  0.575E-04    2.63      27.1  T
     SCC iter.                  ...        0 min,  0.011 sec
     gradient                   ...        0 min,  0.006 sec
 * total energy  :   -63.9451524 Eh     change       -0.1088260E-03 Eh
   gradient norm :     0.0052702 Eh/α   predicted    -0.9281587E-04 ( -14.71%)
   displ. norm   :     0.5444084 α      lambda       -0.1697776E-03
   maximum displ.:     0.3545673 α      in ANC's #5, #1, #2, ...

........................................................................
.............................. CYCLE   42 ..............................
........................................................................

 iter      E             dE          RMSdq      gap      omega  full diag
   1    -64.9399105 -0.649399E+02  0.138E-01    2.64       0.0  T
   2    -64.9399148 -0.429266E-05  0.811E-02    2.63       1.0  T
   3    -64.9399029  0.119244E-04  0.172E-02    2.63       1.0  T
   4    -64.9399169 -0.140505E-04  0.241E-03    2.63       6.5  T
   5    -64.9399170 -0.785463E-07  0.138E-03    2.63      11.3  T
   6    -64.9399170 -0.623668E-08  0.856E-04    2.63      18.2  T
   7    -64.9399170 -0.133259E-07  0.485E-04    2.63      32.2  T
     SCC iter.                  ...        0 min,  0.013 sec
     gradient                   ...        0 min,  0.007 sec
 * total energy  :   -63.9452123 Eh     change       -0.5996513E-04 Eh
   gradient norm :     0.0077943 Eh/α   predicted    -0.1100527E-03 (  83.53%)
   displ. norm   :     0.1444422 α      lambda       -0.1472199E-03
   maximum displ.:     0.0903479 α      in ANC's #3, #2, #5, ...
 * RMSD in coord.:     1.0268766 α      energy gain  -0.1875256E-02 Eh

generating ANC from exact Hessian ...
Using Lindh-Hessian (1995)
 Shifting diagonal of input Hessian by    9.7427843973053405E-003
 Lowest  eigenvalues of input Hessian
    0.000000    0.000000    0.000000    0.000000    0.000000    0.000000
    0.010000    0.010149    0.010511    0.010827    0.011042    0.011216
    0.013344    0.014620    0.016891    0.018490    0.019943    0.020400
 Highest eigenvalues
    2.026875    2.039242    2.057907    2.164388    2.183500    2.220432


........................................................................
.............................. CYCLE   43 ..............................
........................................................................

 iter      E             dE          RMSdq      gap      omega  full diag
   1    -64.9457320 -0.649457E+02  0.385E-02    2.63       0.0  T
   2    -64.9457331 -0.109957E-05  0.225E-02    2.63       1.0  T
   3    -64.9457318  0.128782E-05  0.693E-03    2.63       2.3  T
   4    -64.9457334 -0.156475E-05  0.138E-03    2.63      11.4  T
   5    -64.9457334 -0.536612E-07  0.611E-04    2.63      25.6  T
   6    -64.9457334 -0.139498E-08  0.403E-04    2.63      38.7  T
     SCC iter.                  ...        0 min,  0.013 sec
     gradient                   ...        0 min,  0.006 sec
 * total energy  :   -63.9452818 Eh     change       -0.6947112E-04 Eh
   gradient norm :     0.0066531 Eh/α   predicted     0.0000000E+00 (-100.00%)
   displ. norm   :     0.0427633 α      lambda       -0.6859221E-04
   maximum displ.:     0.0236646 α      in ANC's #3, #1, #6, ...

........................................................................
.............................. CYCLE   44 ..............................
........................................................................

 iter      E             dE          RMSdq      gap      omega  full diag
   1    -64.9441419 -0.649441E+02  0.204E-02    2.63       0.0  T
   2    -64.9441422 -0.294211E-06  0.120E-02    2.63       1.3  T
   3    -64.9441419  0.270934E-06  0.312E-03    2.63       5.0  T
   4    -64.9441422 -0.335232E-06  0.613E-04    2.63      25.5  T
   5    -64.9441422 -0.109976E-07  0.295E-04    2.63      52.9  T
     SCC iter.                  ...        0 min,  0.009 sec
     gradient                   ...        0 min,  0.006 sec
 * total energy  :   -63.9453365 Eh     change       -0.5463927E-04 Eh
   gradient norm :     0.0029340 Eh/α   predicted    -0.3843926E-04 ( -29.65%)
   displ. norm   :     0.0772719 α      lambda       -0.5177816E-04
   maximum displ.:     0.0466652 α      in ANC's #3, #6, #1, ...

........................................................................
.............................. CYCLE   45 ..............................
........................................................................

 iter      E             dE          RMSdq      gap      omega  full diag
   1    -64.9431705 -0.649432E+02  0.299E-02    2.63       0.0  T
   2    -64.9431710 -0.423626E-06  0.175E-02    2.63       1.0  T
   3    -64.9431705  0.517308E-06  0.402E-03    2.63       3.9  T
   4    -64.9431711 -0.618564E-06  0.771E-04    2.64      20.3  T
   5    -64.9431711 -0.195372E-07  0.365E-04    2.64      42.8  T
     SCC iter.                  ...        0 min,  0.009 sec
     gradient                   ...        0 min,  0.007 sec
 * total energy  :   -63.9453723 Eh     change       -0.3579561E-04 Eh
   gradient norm :     0.0017305 Eh/α   predicted    -0.2604781E-04 ( -27.23%)
   displ. norm   :     0.1368709 α      lambda       -0.3342027E-04
   maximum displ.:     0.0816612 α      in ANC's #3, #6, #1, ...

........................................................................
.............................. CYCLE   46 ..............................
........................................................................

 iter      E             dE          RMSdq      gap      omega  full diag
   1    -64.9430236 -0.649430E+02  0.493E-02    2.63       0.0  T
   2    -64.9430241 -0.562326E-06  0.289E-02    2.64       1.0  T
   3    -64.9430232  0.979814E-06  0.519E-03    2.64       3.0  T
   4    -64.9430243 -0.115691E-05  0.849E-04    2.64      18.4  T
   5    -64.9430243 -0.215937E-07  0.407E-04    2.64      38.3  T
   6    -64.9430243 -0.843244E-09  0.260E-04    2.64      60.0  T
     SCC iter.                  ...        0 min,  0.011 sec
     gradient                   ...        0 min,  0.006 sec
 * total energy  :   -63.9454103 Eh     change       -0.3806808E-04 Eh
   gradient norm :     0.0038178 Eh/α   predicted    -0.1684963E-04 ( -55.74%)
   displ. norm   :     0.1133482 α      lambda       -0.4148547E-04
   maximum displ.:     0.0657816 α      in ANC's #3, #6, #1, ...

........................................................................
.............................. CYCLE   47 ..............................
........................................................................

 iter      E             dE          RMSdq      gap      omega  full diag
   1    -64.9434368 -0.649434E+02  0.392E-02    2.64       0.0  T
   2    -64.9434369 -0.132087E-06  0.230E-02    2.64       1.0  T
   3    -64.9434366  0.314179E-06  0.286E-03    2.64       5.5  T
   4    -64.9434370 -0.385552E-06  0.386E-04    2.64      40.5  T
   5    -64.9434370 -0.119539E-08  0.236E-04    2.64      66.1  T
     SCC iter.                  ...        0 min,  0.009 sec
     gradient                   ...        0 min,  0.006 sec
 * total energy  :   -63.9454488 Eh     change       -0.3848303E-04 Eh
   gradient norm :     0.0037715 Eh/α   predicted    -0.2100964E-04 ( -45.41%)
   displ. norm   :     0.2781214 α      lambda       -0.9957377E-04
   maximum displ.:     0.1581428 α      in ANC's #3, #6, #1, ...

........................................................................
.............................. CYCLE   48 ..............................
........................................................................

 iter      E             dE          RMSdq      gap      omega  full diag
   1    -64.9438055 -0.649438E+02  0.950E-02    2.64       0.0  T
   2    -64.9438062 -0.650332E-06  0.557E-02    2.64       1.0  T
   3    -64.9438046  0.160667E-05  0.628E-03    2.64       2.5  T
   4    -64.9438066 -0.200626E-05  0.816E-04    2.64      19.1  T
   5    -64.9438066 -0.380467E-09  0.404E-04    2.64      38.7  T
   6    -64.9438066 -0.928239E-09  0.128E-04    2.64     121.6  T
     SCC iter.                  ...        0 min,  0.016 sec
     gradient                   ...        0 min,  0.007 sec
 * total energy  :   -63.9455353 Eh     change       -0.8652044E-04 Eh
   gradient norm :     0.0032911 Eh/α   predicted    -0.5364344E-04 ( -38.00%)
   displ. norm   :     0.4487024 α      lambda       -0.1320873E-03
   maximum displ.:     0.2530056 α      in ANC's #3, #1, #6, ...

........................................................................
.............................. CYCLE   49 ..............................
........................................................................

 iter      E             dE          RMSdq      gap      omega  full diag
   1    -64.9426710 -0.649427E+02  0.152E-01    2.64       0.0  T
   2    -64.9426727 -0.175198E-05  0.892E-02    2.64       1.0  T
   3    -64.9426683  0.440314E-05  0.102E-02    2.64       1.5  T
   4    -64.9426738 -0.546650E-05  0.132E-03    2.64      11.8  T
   5    -64.9426738 -0.244653E-08  0.662E-04    2.64      23.6  T
   6    -64.9426738 -0.232835E-08  0.204E-04    2.64      76.7  T
     SCC iter.                  ...        0 min,  0.011 sec
     gradient                   ...        0 min,  0.006 sec
 * total energy  :   -63.9456396 Eh     change       -0.1042795E-03 Eh
   gradient norm :     0.0036555 Eh/α   predicted    -0.7934263E-04 ( -23.91%)
   displ. norm   :     0.4345394 α      lambda       -0.1046326E-03
   maximum displ.:     0.2445311 α      in ANC's #3, #1, #6, ...

........................................................................
.............................. CYCLE   50 ..............................
........................................................................

 iter      E             dE          RMSdq      gap      omega  full diag
   1    -64.9416023 -0.649416E+02  0.144E-01    2.64       0.0  T
   2    -64.9416041 -0.176874E-05  0.847E-02    2.64       1.0  T
   3    -64.9415996  0.447953E-05  0.102E-02    2.64       1.5  T
   4    -64.9416051 -0.550497E-05  0.134E-03    2.64      11.6  T
   5    -64.9416051 -0.763465E-08  0.768E-04    2.64      20.3  T
   6    -64.9416051 -0.175346E-08  0.351E-04    2.64      44.5  T
     SCC iter.                  ...        0 min,  0.042 sec
     gradient                   ...        0 min,  0.015 sec
 * total energy  :   -63.9457183 Eh     change       -0.7869068E-04 Eh
   gradient norm :     0.0040746 Eh/α   predicted    -0.6219819E-04 ( -20.96%)
   displ. norm   :     0.3203821 α      lambda       -0.9706624E-04
   maximum displ.:     0.1815183 α      in ANC's #1, #3, #6, ...

........................................................................
.............................. CYCLE   51 ..............................
........................................................................

 iter      E             dE          RMSdq      gap      omega  full diag
   1    -64.9430059 -0.649430E+02  0.102E-01    2.65       0.0  T
   2    -64.9430072 -0.129810E-05  0.597E-02    2.64       1.0  T
   3    -64.9430037  0.342403E-05  0.888E-03    2.64       1.8  T
   4    -64.9430078 -0.408522E-05  0.124E-03    2.64      12.6  T
   5    -64.9430079 -0.202206E-07  0.723E-04    2.64      21.6  T
   6    -64.9430079 -0.275482E-08  0.436E-04    2.64      35.8  T
     SCC iter.                  ...        0 min,  0.036 sec
     gradient                   ...        0 min,  0.006 sec
 * total energy  :   -63.9457947 Eh     change       -0.7641211E-04 Eh
   gradient norm :     0.0027638 Eh/α   predicted    -0.5351924E-04 ( -29.96%)
   displ. norm   :     0.3730539 α      lambda       -0.8431214E-04
   maximum displ.:     0.2173891 α      in ANC's #1, #3, #6, ...

........................................................................
.............................. CYCLE   52 ..............................
........................................................................

 iter      E             dE          RMSdq      gap      omega  full diag
   1    -64.9434667 -0.649435E+02  0.117E-01    2.65       0.0  T
   2    -64.9434682 -0.156827E-05  0.683E-02    2.64       1.0  T
   3    -64.9434639  0.432094E-05  0.100E-02    2.65       1.6  T
   4    -64.9434691 -0.517571E-05  0.141E-03    2.64      11.1  T
   5    -64.9434691 -0.187686E-07  0.891E-04    2.64      17.5  T
   6    -64.9434691 -0.419519E-08  0.579E-04    2.64      27.0  T
     SCC iter.                  ...        0 min,  0.011 sec
     gradient                   ...        0 min,  0.007 sec
 * total energy  :   -63.9458633 Eh     change       -0.6862567E-04 Eh
   gradient norm :     0.0026105 Eh/α   predicted    -0.4802922E-04 ( -30.01%)
   displ. norm   :     0.3528875 α      lambda       -0.7635542E-04
   maximum displ.:     0.2159280 α      in ANC's #1, #3, #6, ...

........................................................................
.............................. CYCLE   53 ..............................
........................................................................

 iter      E             dE          RMSdq      gap      omega  full diag
   1    -64.9444932 -0.649445E+02  0.105E-01    2.65       0.0  T
   2    -64.9444946 -0.132911E-05  0.618E-02    2.65       1.0  T
   3    -64.9444910  0.360001E-05  0.922E-03    2.65       1.7  T
   4    -64.9444953 -0.431845E-05  0.137E-03    2.65      11.4  T
   5    -64.9444953 -0.180210E-07  0.905E-04    2.65      17.3  T
   6    -64.9444953 -0.463075E-08  0.623E-04    2.65      25.1  T
     SCC iter.                  ...        0 min,  0.011 sec
     gradient                   ...        0 min,  0.006 sec
 * total energy  :   -63.9459270 Eh     change       -0.6364873E-04 Eh
   gradient norm :     0.0024169 Eh/α   predicted    -0.4293440E-04 ( -32.54%)
   displ. norm   :     0.4052330 α      lambda       -0.7396790E-04
   maximum displ.:     0.2497903 α      in ANC's #1, #3, #6, ...

........................................................................
.............................. CYCLE   54 ..............................
........................................................................

 iter      E             dE          RMSdq      gap      omega  full diag
   1    -64.9436134 -0.649436E+02  0.121E-01    2.66       0.0  T
   2    -64.9436149 -0.150219E-05  0.708E-02    2.65       1.0  T
   3    -64.9436109  0.399622E-05  0.980E-03    2.65       1.6  T
   4    -64.9436158 -0.484353E-05  0.145E-03    2.65      10.7  T
   5    -64.9436158 -0.167805E-07  0.975E-04    2.65      16.0  T
   6    -64.9436158 -0.408808E-08  0.649E-04    2.65      24.0  T
     SCC iter.                  ...        0 min,  0.011 sec
     gradient                   ...        0 min,  0.006 sec
 * total energy  :   -63.9459909 Eh     change       -0.6393292E-04 Eh
   gradient norm :     0.0022991 Eh/α   predicted    -0.4305852E-04 ( -32.65%)
   displ. norm   :     0.3923089 α      lambda       -0.9212959E-04
   maximum displ.:     0.2553421 α      in ANC's #1, #3, #5, ...

........................................................................
.............................. CYCLE   55 ..............................
........................................................................

 iter      E             dE          RMSdq      gap      omega  full diag
   1    -64.9457331 -0.649457E+02  0.105E-01    2.66       0.0  T
   2    -64.9457346 -0.150375E-05  0.614E-02    2.66       1.0  T
   3    -64.9457311  0.347622E-05  0.919E-03    2.66       1.7  T
   4    -64.9457353 -0.417671E-05  0.154E-03    2.66      10.1  T
   5    -64.9457354 -0.354728E-07  0.991E-04    2.66      15.8  T
   6    -64.9457354 -0.440940E-08  0.704E-04    2.66      22.2  T
     SCC iter.                  ...        0 min,  0.011 sec
     gradient                   ...        0 min,  0.006 sec
 * total energy  :   -63.9460661 Eh     change       -0.7519918E-04 Eh
   gradient norm :     0.0020553 Eh/α   predicted    -0.5315593E-04 ( -29.31%)
   displ. norm   :     0.5568045 α      lambda       -0.1074655E-03
   maximum displ.:     0.3588419 α      in ANC's #1, #3, #5, ...

........................................................................
.............................. CYCLE   56 ..............................
........................................................................

 iter      E             dE          RMSdq      gap      omega  full diag
   1    -64.9433107 -0.649433E+02  0.155E-01    2.67       0.0  T
   2    -64.9433133 -0.253459E-05  0.912E-02    2.67       1.0  T
   3    -64.9433061  0.712703E-05  0.132E-02    2.67       1.2  T
   4    -64.9433147 -0.858275E-05  0.198E-03    2.67       7.9  T
   5    -64.9433148 -0.380699E-07  0.133E-03    2.67      11.7  T
   6    -64.9433148 -0.848597E-08  0.890E-04    2.67      17.5  T
   7    -64.9433148 -0.142312E-07  0.563E-04    2.67      27.7  T
     SCC iter.                  ...        0 min,  0.013 sec
     gradient                   ...        0 min,  0.006 sec
 * total energy  :   -63.9461542 Eh     change       -0.8811606E-04 Eh
   gradient norm :     0.0032792 Eh/α   predicted    -0.7039221E-04 ( -20.11%)
   displ. norm   :     0.4479695 α      lambda       -0.1160942E-03
   maximum displ.:     0.2991055 α      in ANC's #1, #5, #3, ...

........................................................................
.............................. CYCLE   57 ..............................
........................................................................

 iter      E             dE          RMSdq      gap      omega  full diag
   1    -64.9436286 -0.649436E+02  0.110E-01    2.68       0.0  T
   2    -64.9436302 -0.157260E-05  0.646E-02    2.67       1.0  T
   3    -64.9436258  0.437721E-05  0.103E-02    2.67       1.5  T
   4    -64.9436310 -0.520584E-05  0.159E-03    2.67       9.8  T
   5    -64.9436310 -0.360773E-07  0.997E-04    2.67      15.7  T
   6    -64.9436310 -0.386345E-08  0.671E-04    2.67      23.3  T
     SCC iter.                  ...        0 min,  0.011 sec
     gradient                   ...        0 min,  0.006 sec
 * total energy  :   -63.9462571 Eh     change       -0.1028531E-03 Eh
   gradient norm :     0.0038577 Eh/α   predicted    -0.6970031E-04 ( -32.23%)
   displ. norm   :     0.5417137 α      lambda       -0.1963753E-03
   maximum displ.:     0.3639967 α      in ANC's #1, #5, #2, ...

........................................................................
.............................. CYCLE   58 ..............................
........................................................................

 iter      E             dE          RMSdq      gap      omega  full diag
   1    -64.9467724 -0.649468E+02  0.115E-01    2.69       0.0  T
   2    -64.9467750 -0.258391E-05  0.675E-02    2.68       1.0  T
   3    -64.9467680  0.701665E-05  0.129E-02    2.69       1.2  T
   4    -64.9467762 -0.824216E-05  0.200E-03    2.68       7.8  T
   5    -64.9467763 -0.773784E-07  0.112E-03    2.68      14.0  T
   6    -64.9467763 -0.611844E-08  0.679E-04    2.68      23.0  T
   7    -64.9467763 -0.624112E-08  0.347E-04    2.68      45.1  T
     SCC iter.                  ...        0 min,  0.013 sec
     gradient                   ...        0 min,  0.007 sec
 * total energy  :   -63.9464085 Eh     change       -0.1514625E-03 Eh
   gradient norm :     0.0039023 Eh/α   predicted    -0.1270017E-03 ( -16.15%)
   displ. norm   :     0.7460958 α      lambda       -0.1723722E-03
   maximum displ.:     0.5065372 α      in ANC's #1, #5, #3, ...

........................................................................
.............................. CYCLE   59 ..............................
........................................................................

 iter      E             dE          RMSdq      gap      omega  full diag
   1    -64.9422265 -0.649422E+02  0.176E-01    2.70       0.0  T
   2    -64.9422322 -0.578270E-05  0.103E-01    2.69       1.0  T
   3    -64.9422105  0.217877E-04  0.229E-02    2.69       1.0  T
   4    -64.9422357 -0.252968E-04  0.321E-03    2.69       4.9  T
   5    -64.9422359 -0.152655E-06  0.211E-03    2.69       7.4  T
   6    -64.9422359 -0.249668E-07  0.149E-03    2.69      10.5  T
   7    -64.9422360 -0.340749E-07  0.917E-04    2.69      17.0  T
   8    -64.9422360 -0.108651E-07  0.618E-04    2.69      25.3  T
     SCC iter.                  ...        0 min,  0.015 sec
     gradient                   ...        0 min,  0.006 sec
 * total energy  :   -63.9465151 Eh     change       -0.1065668E-03 Eh
   gradient norm :     0.0051882 Eh/α   predicted    -0.1341640E-03 (  25.90%)
   displ. norm   :     0.2581323 α      lambda       -0.1080309E-03
   maximum displ.:     0.1694417 α      in ANC's #1, #5, #2, ...

........................................................................
[...]
H29-C10-C8=107.42              H29-C10-N11=110.15             H29-C10-H28=108.65             

 selected dihedral angles (degree)
 ---------------------------------
C4-C3-C2-Cl1=179.40           C4-C3-C2-C7=358.74            H24-C3-C2-Cl1=359.06          H24-C3-C2-C7=178.39           
C5-C4-C3-C2=358.94            C5-C4-C3-H24=179.29           H25-C4-C3-C2=179.58           H25-C4-C3-H24=359.92          
C6-C5-C4-C3=  2.51            C6-C5-C4-H25=181.89           C8-C5-C4-C3=182.52            C8-C5-C4-H25=  1.89           
C7-C6-C5-C4=358.34            C7-C6-C5-C8=178.33            H26-C6-C5-C4=174.98           H26-C6-C5-C8=354.98           
C6-C7-C2-Cl1=181.44           C6-C7-C2-C3=  2.10            H27-C7-C2-Cl1=  1.77          H27-C7-C2-C3=182.43           
C2-C7-C6-C5=359.39            C2-C7-C6-H26=182.67           H27-C7-C6-C5=179.06           H27-C7-C6-H26=  2.34          
O9-C8-C5-C4=335.09            O9-C8-C5-C6=155.10            C10-C8-C5-C4=151.77           C10-C8-C5-C6=331.77           
N11-C10-C8-C5=312.65          N11-C10-C8-O9=129.49          H28-C10-C8-C5= 74.96          H28-C10-C8-O9=251.79          
H29-C10-C8-C5=192.74          H29-C10-C8-O9=  9.58          
           -------------------------------------------------
          |                Final Singlepoint                |
           -------------------------------------------------

          ...................................................
          :                      SETUP                      :
          :.................................................:
          :  # basis functions                 116          :
          :  # atomic orbitals                 115          :
          :  # shells                           65          :
          :  # electrons                       116          :
          :  max. iterations                   250          :
          :  Hamiltonian                  GFN2-xTB          :
          :  restarted?                      false          :
          :  GBSA solvation                  false          :
          :  PC potential                    false          :
          :  electronic temp.          300.0000000     K    :
          :  accuracy                    1.0000000          :
          :  -> integral cutoff          0.2500000E+02      :
          :  -> integral neglect         0.1000000E-07      :
          :  -> SCF convergence          0.1000000E-05 Eh   :
          :  -> wf. convergence          0.1000000E-03 e    :
          :  Broyden damping             0.4000000          :
          :  net charge                          1          :
          :  unpaired electrons                  0          :
          ...................................................

 iter      E             dE          RMSdq      gap      omega  full diag
   1    -64.9488606 -0.649489E+02  0.181E-04    2.77       0.0  T
   2    -64.9488606 -0.167702E-09  0.144E-04    2.77     108.2  T
   3    -64.9488606 -0.586198E-10  0.111E-04    2.77     140.1  T

   *** convergence criteria satisfied after 3 iterations ***

         #    Occupation            Energy/Eh            Energy/eV
      -------------------------------------------------------------
         1        2.0000           -1.1578393             -31.5064
       ...           ...                  ...                  ...
        52        2.0000           -0.5417616             -14.7421
        53        2.0000           -0.5403932             -14.7048
        54        2.0000           -0.5295019             -14.4085
        55        2.0000           -0.5250991             -14.2887
        56        2.0000           -0.5241417             -14.2626
        57        2.0000           -0.5227130             -14.2237
        58        2.0000           -0.5126234             -13.9492 (HOMO)
        59                         -0.4106813             -11.1752 (LUMO)
        60                         -0.3954636             -10.7611
        61                         -0.3631933              -9.8830
        62                         -0.3583448              -9.7511
        63                         -0.3478426              -9.4653
       ...                                ...                  ...
       115                          0.5498451              14.9620
      -------------------------------------------------------------
                  HL-Gap            0.1019421 Eh            2.7740 eV
             Fermi-level           -0.4616524 Eh          -12.5622 eV

 SCC (total)                   0 d,  0 h,  0 min,  0.015 sec
 SCC setup                      ...        0 min,  0.000 sec (  0.573%)
 Dispersion                     ...        0 min,  0.000 sec (  1.540%)
 classical contributions        ...        0 min,  0.000 sec (  0.235%)
 integral evaluation            ...        0 min,  0.002 sec ( 13.423%)
 iterations                     ...        0 min,  0.006 sec ( 38.621%)
 molecular gradient             ...        0 min,  0.007 sec ( 44.672%)
 printout                       ...        0 min,  0.000 sec (  0.833%)

         :::::::::::::::::::::::::::::::::::::::::::::::::::::
         ::                     SUMMARY                     ::
         :::::::::::::::::::::::::::::::::::::::::::::::::::::
         :: total energy             -63.947389138678 Eh    ::
         :: gradient norm              0.000934451577 Eh/a0 ::
         :: HOMO-LUMO gap              2.773986486955 eV    ::
         ::.................................................::
         :: SCC energy               -64.947100268109 Eh    ::
         :: -> isotropic ES            0.101745484412 Eh    ::
         :: -> anisotropic ES         -0.012010564169 Eh    ::
         :: -> anisotropic XC          0.033054335304 Eh    ::
         :: -> dispersion             -0.049959265106 Eh    ::
         :: repulsion energy           0.999711129430 Eh    ::
         :: add. restraining           0.000000000000 Eh    ::
         :: total charge               1.000000000000 e     ::
         :::::::::::::::::::::::::::::::::::::::::::::::::::::

           -------------------------------------------------
          |                Property Printout                |
           -------------------------------------------------

    * Orbital Energies and Occupations

         #    Occupation            Energy/Eh            Energy/eV
      -------------------------------------------------------------
         1        2.0000           -1.1578393             -31.5064
       ...           ...                  ...                  ...
        46        2.0000           -0.5919503             -16.1078
        47        2.0000           -0.5762898             -15.6816
        48        2.0000           -0.5713799             -15.5480
        49        2.0000           -0.5673636             -15.4387
        50        2.0000           -0.5587150             -15.2034
        51        2.0000           -0.5444150             -14.8143
        52        2.0000           -0.5417616             -14.7421
        53        2.0000           -0.5403932             -14.7048
        54        2.0000           -0.5295019             -14.4085
        55        2.0000           -0.5250991             -14.2887
        56        2.0000           -0.5241417             -14.2626
        57        2.0000           -0.5227130             -14.2237
        58        2.0000           -0.5126234             -13.9492 (HOMO)
        59                         -0.4106813             -11.1752 (LUMO)
        60                         -0.3954636             -10.7611
        61                         -0.3631933              -9.8830
        62                         -0.3583448              -9.7511
        63                         -0.3478426              -9.4653
        64                         -0.3434050              -9.3445
        65                         -0.3321738              -9.0389
        66                         -0.2369613              -6.4480
        67                         -0.2268845              -6.1738
        68                         -0.2191138              -5.9624
        69                         -0.1731075              -4.7105
       ...                                ...                  ...
       115                          0.5498451              14.9620
      -------------------------------------------------------------
                  HL-Gap            0.1019421 Eh            2.7740 eV
             Fermi-level           -0.4616524 Eh          -12.5622 eV

     #   Z          covCN         q      C6AA      α(0)
     1  17 Cl       0.969    -0.117   102.797    15.511
     2   6 C        2.887     0.112    25.531     8.284
     3   6 C        2.952    -0.032    28.786     8.800
     4   6 C        2.927    -0.013    28.338     8.730
     5   6 C        2.969    -0.023    28.579     8.769
     6   6 C        2.921    -0.033    28.832     8.805
     7   6 C        2.955    -0.038    28.945     8.824
     8   6 C        2.819     0.228    23.213     7.894
     9   8 O        0.857    -0.307    19.913     5.983
    10   6 C        3.741    -0.050    21.549     6.623
    11   7 N        2.871     0.041    20.516     6.727
    12   6 C        3.054    -0.012    28.254     8.717
    13   6 C        3.045    -0.007    28.163     8.704
    14   7 N        2.877     0.041    20.522     6.728
    15   6 C        3.097     0.107    25.535     8.282
    16   6 C        3.754    -0.133    23.118     6.856
    17   6 C        3.747    -0.027    21.118     6.555
    18   6 C        2.972    -0.003    28.095     8.694
    19   6 C        2.923    -0.039    28.970     8.827
    20   6 C        2.919    -0.025    28.618     8.772
    21   6 C        2.920    -0.022    28.551     8.762
    22   6 C        2.919    -0.023    28.578     8.766
    23   6 C        2.922    -0.038    28.952     8.824
    24   1 H        0.926     0.085     1.929     2.172
    25   1 H        0.926     0.085     1.924     2.169
    26   1 H        0.926     0.046     2.374     2.410
    27   1 H        0.926     0.071     2.074     2.252
    28   1 H        0.924     0.095     1.831     2.116
    29   1 H        0.924     0.111     1.691     2.034
    30   1 H        0.926     0.103     1.757     2.073
    31   1 H        0.926     0.103     1.759     2.074
    32   1 H        0.924     0.102     1.764     2.077
    33   1 H        0.925     0.089     1.892     2.151
    34   1 H        0.924     0.102     1.770     2.080
    35   1 H        0.924     0.084     1.938     2.177
    36   1 H        0.924     0.091     1.866     2.136
    37   1 H        0.925     0.028     2.615     2.529
    38   1 H        0.926     0.056     2.243     2.342
    39   1 H        0.926     0.059     2.210     2.325
    40   1 H        0.926     0.059     2.215     2.328
    41   1 H        0.926     0.044     2.395     2.420

 Mol. C6AA /au·bohr⁶  :      21741.002643
 Mol. C8AA /au·bohr⁸  :     555715.937072
 Mol. α(0) /au        :        233.302387


Wiberg/Mayer (AO) data.
largest (>0.10) Wiberg bond orders for each atom

 ---------------------------------------------------------------------------
     #   Z sym  total        # sym  WBO       # sym  WBO       # sym  WBO
 ---------------------------------------------------------------------------
     1  17 Cl   1.178 --     2 C    1.022
     2   6 C    3.927 --     3 C    1.383     7 C    1.375     1 Cl   1.022
     3   6 C    3.986 --     4 C    1.468     2 C    1.383    24 H    0.962
     4   6 C    3.984 --     3 C    1.468     5 C    1.359    25 H    0.962
     5   6 C    3.987 --     6 C    1.363     4 C    1.359     8 C    1.048
     6   6 C    3.991 --     7 C    1.474     5 C    1.363    26 H    0.965
     7   6 C    3.988 --     6 C    1.474     2 C    1.375    27 H    0.964
     8   6 C    3.929 --     9 O    1.864     5 C    1.048    10 C    0.923
     9   8 O    2.114 --     8 C    1.864
    10   6 C    3.940 --    11 N    0.983    29 H    0.952    28 H    0.947
                             8 C    0.923
    11   7 N    3.690 --    15 C    1.320    12 C    1.200    10 C    0.983
    12   6 C    3.947 --    13 C    1.611    11 N    1.200    30 H    0.962
    13   6 C    3.950 --    12 C    1.611    14 N    1.211    31 H    0.961
    14   7 N    3.691 --    15 C    1.323    13 C    1.211    17 C    0.965
    15   6 C    3.951 --    14 N    1.323    11 N    1.320    16 C    1.047
    16   6 C    3.978 --    15 C    1.047    33 H    0.970    34 H    0.949
                            32 H    0.947
    17   6 C    3.937 --    18 C    0.980    14 N    0.965    36 H    0.958
                            35 H    0.957
    18   6 C    3.979 --    23 C    1.415    19 C    1.412    17 C    0.980
                            21 C    0.109
    19   6 C    3.992 --    20 C    1.445    18 C    1.412    37 H    0.969
                            22 C    0.112
    20   6 C    3.990 --    19 C    1.445    21 C    1.437    38 H    0.968
                            23 C    0.110
    21   6 C    3.989 --    22 C    1.441    20 C    1.437    39 H    0.969
                            18 C    0.109
    22   6 C    3.989 --    21 C    1.441    23 C    1.439    40 H    0.968
                            19 C    0.112
    23   6 C    3.990 --    22 C    1.439    18 C    1.415    41 H    0.968
                            20 C    0.110
    24   1 H    0.992 --     3 C    0.962
    25   1 H    0.993 --     4 C    0.962
    26   1 H    0.998 --     6 C    0.965
    27   1 H    0.994 --     7 C    0.964
    28   1 H    0.990 --    10 C    0.947
    29   1 H    0.987 --    10 C    0.952
    30   1 H    0.989 --    12 C    0.962
    31   1 H    0.989 --    13 C    0.961
    32   1 H    0.989 --    16 C    0.947
    33   1 H    0.992 --    16 C    0.970
    34   1 H    0.989 --    16 C    0.949
    35   1 H    0.992 --    17 C    0.957
    36   1 H    0.991 --    17 C    0.958
    37   1 H    0.999 --    19 C    0.969
    38   1 H    0.996 --    20 C    0.968
    39   1 H    0.996 --    21 C    0.969
    40   1 H    0.996 --    22 C    0.968
    41   1 H    0.998 --    23 C    0.968
 ---------------------------------------------------------------------------

Topologies differ in total number of bonds
Writing topology from bond orders to xtbtopo.mol

molecular dipole:
                 x           y           z       tot (Debye)
 q only:        7.866       6.692      -2.676
   full:        7.589       6.893      -2.703      26.949
molecular quadrupole (traceless):
                xx          xy          yy          xz          yz          zz
 q only:       35.295      80.946      10.624     -31.070     -21.409     -45.919
  q+dip:       40.263      81.862       9.061     -30.699     -18.021     -49.324
   full:       39.143      81.318       7.085     -31.482     -21.341     -46.228

           -------------------------------------------------
          |                Geometry Summary                 |
           -------------------------------------------------

      molecular mass/u    :      325.8126645
   center of mass at/Å    :        2.5109142       2.9007830      -1.0734271
  moments of inertia/u·Å² :        0.1796557E+04   0.2048428E+04   0.3343062E+04
rotational constants/cm⁻¹ :        0.9383302E-02   0.8229545E-02   0.5042572E-02

 * 40 selected distances

     #   Z          #   Z                                           value/Å
     1  17 Cl       2   6 C                                       1.7170048 (max)
     2   6 C        3   6 C                                       1.3908796
     3   6 C        4   6 C                                       1.3786807
     4   6 C        5   6 C                                       1.3983169
     5   6 C        6   6 C                                       1.3970528
     2   6 C        7   6 C                                       1.3915814
     6   6 C        7   6 C                                       1.3787352
     8   6 C        9   8 O                                       1.2009700
    10   6 C       11   7 N                                       1.4399584
    11   7 N       12   6 C                                       1.3687796
    12   6 C       13   6 C                                       1.3562552
    13   6 C       14   7 N                                       1.3636609
    11   7 N       15   6 C                                       1.3391115
    14   7 N       15   6 C                                       1.3392352
    15   6 C       16   6 C                                       1.4761547
    14   7 N       17   6 C                                       1.4471638
    18   6 C       19   6 C                                       1.3898705
    19   6 C       20   6 C                                       1.3836229
    20   6 C       21   6 C                                       1.3850392
    21   6 C       22   6 C                                       1.3846770
    18   6 C       23   6 C                                       1.3881536
    22   6 C       23   6 C                                       1.3848488
     3   6 C       24   1 H                                       1.0781797
     4   6 C       25   1 H                                       1.0794151
     6   6 C       26   1 H                                       1.0784596
     7   6 C       27   1 H                                       1.0781708
    10   6 C       28   1 H                                       1.0902512
    10   6 C       29   1 H                                       1.0943172
    12   6 C       30   1 H                                       1.0705243 (min)
    13   6 C       31   1 H                                       1.0705612
    16   6 C       32   1 H                                       1.0910723
    16   6 C       33   1 H                                       1.0854561
    16   6 C       34   1 H                                       1.0905769
    17   6 C       35   1 H                                       1.0929883
    17   6 C       36   1 H                                       1.0926337
    19   6 C       37   1 H                                       1.0813742
    20   6 C       38   1 H                                       1.0788874
    21   6 C       39   1 H                                       1.0785869
    22   6 C       40   1 H                                       1.0786326
    23   6 C       41   1 H                                       1.0800855

 * 5 distinct bonds (by element types)

   Z      Z             #   av. dist./Å        max./Å        min./Å
   1 H    6 C          18     1.0827874     1.0943172     1.0705243
   6 C    6 C          14     1.3917049     1.4761547     1.3562552
   6 C    7 N           6     1.3829849     1.4471638     1.3391115
   6 C    8 O           1     1.2009700     1.2009700     1.2009700
   6 C   17 Cl          1     1.7170048     1.7170048     1.7170048


optimized geometry written to: xtbopt.xyz


           -------------------------------------------------
          | TOTAL ENERGY              -63.947389138678 Eh   |
          | GRADIENT NORM               0.000934451577 Eh/α |
          | HOMO-LUMO GAP               2.773986486955 eV   |
           -------------------------------------------------

------------------------------------------------------------------------
 * finished run on 2024/12/20 at 06:51:30.050     
------------------------------------------------------------------------
 total:
 * wall-time:     0 d,  0 h,  0 min,  2.060 sec
 *  cpu-time:     0 d,  0 h,  0 min, 16.258 sec
 * ratio c/w:     7.893 speedup
 SCF:
 * wall-time:     0 d,  0 h,  0 min,  0.038 sec
 *  cpu-time:     0 d,  0 h,  0 min,  0.305 sec
 * ratio c/w:     7.970 speedup
 ANC optimizer:
 * wall-time:     0 d,  0 h,  0 min,  2.003 sec
 *  cpu-time:     0 d,  0 h,  0 min, 15.822 sec
 * ratio c/w:     7.899 speedup

