34
 energy: -55.285145141268 gnorm: 0.000482732183 xtb: 6.7.1 (edcfbbe)
C            0.38849738495413       -0.61627177963787        0.93118055597748
O            0.52175494969862       -1.19429922847733       -0.37216130119188
C            0.04732682406592       -0.47301669007693       -1.38244415322238
O           -0.48498017157079        0.58956823373767       -1.30174701445509
C            0.28644045663743       -1.19006698963722       -2.73094081571812
N            0.54756142633430       -2.59171505108348       -2.57408985360686
C           -0.37719241985396       -3.58985751982733       -2.65985579739119
C            0.26008582371349       -4.75742271627376       -2.37701583233965
N            1.56017523658959       -4.45265514088463       -2.09906161707980
C            1.71435548265165       -3.13686361006313       -2.23587279120950
C            2.64291298037091       -5.37648027148243       -1.93777351699513
C            3.64633589931726       -5.15826817267188       -3.11118246266713
O            3.49861420580418       -4.18179731887476       -3.80951811047545
C            4.70866253449562       -6.14370012571053       -3.26835991017052
C            5.56291180670745       -5.99458933379480       -4.36993645708965
C            6.59710778145453       -6.88308467808229       -4.58009058589288
C            6.79761085744713       -7.93119811009353       -3.69400456205186
C            5.96155280636517       -8.08572191439709       -2.59609201795708
C            4.92205637962919       -7.20361778704465       -2.37883875743137
H            0.68133877243542       -1.38935395630344        1.63581807766351
H           -0.64246971734638       -0.30566138032383        1.10216187745506
H            1.04058218258351        0.25299866037255        1.02137751785468
H           -0.59667426928836       -1.03644296391919       -3.35484142371404
H            1.13707719923965       -0.69937491648070       -3.21352173347726
H           -1.40049705743446       -3.40943512838971       -2.91915381071672
H           -0.11731052224220       -5.75929496034644       -2.35186601761185
H            2.62637185462129       -2.59585634672663       -2.08000785669896
H            3.17450209502008       -5.19010684439291       -1.00039887164276
H            2.25408456467879       -6.39436111451869       -1.94324781932041
H            5.39028983237499       -5.17250077534839       -5.04773255381957
H            7.24807044876831       -6.76031611429451       -5.43149190093362
H            7.60619279663431       -8.62725789002892       -3.85459378895615
H            6.12461151976502       -8.89939809442659       -1.90653470100872
H            4.29325005536079       -7.34046997053225       -1.51307199408398
