36
 energy: -56.287886946961 gnorm: 0.079063218267 xtb: 6.7.1 (edcfbbe)
C           -0.30521000000000       -0.82289000000000       -1.70955000000000
O            0.51224000000000        0.14167000000000       -1.04358000000000
C            0.73963000000000        1.32388000000000       -1.70154000000000
C           -0.25381000000000        1.99737000000000       -2.45222000000000
O           -1.50813000000000        1.44459000000000       -2.47947000000000
C           -2.59119000000000        2.27567000000000       -2.88457000000000
C            0.06022000000000        3.19305000000000       -3.10880000000000
C            1.32728000000000        3.75387000000000       -2.98936000000000
C            2.28524000000000        3.13375000000000       -2.19491000000000
C            2.00353000000000        1.92583000000000       -1.52977000000000
C            3.08350000000000        1.42980000000000       -0.61188000000000
O            4.04910000000000        2.16597000000000       -0.38224000000000
C            2.94900000000000        0.13623000000000        0.17152000000000
N            2.08732000000000        0.30650000000000        1.35570000000000
C            1.26979000000000       -0.66529000000000        1.90668000000000
C            0.54587000000000       -0.05740000000000        2.89236000000000
N            0.95759000000000        1.26368000000000        2.93270000000000
C            1.93687000000000        1.45492000000000        2.03499000000000
C            0.41207000000000        2.31513000000000        3.77937000000000
H            0.02433000000000       -1.81326000000000       -1.37944000000000
H           -0.20212000000000       -0.78808000000000       -2.79923000000000
H           -1.34759000000000       -0.71128000000000       -1.39689000000000
H           -3.51868000000000        1.72777000000000       -2.69247000000000
H           -2.62292000000000        3.20009000000000       -2.29810000000000
H           -2.54465000000000        2.48527000000000       -3.95748000000000
H           -0.66574000000000        3.71746000000000       -3.72368000000000
H            1.56181000000000        4.68704000000000       -3.49841000000000
H            3.25840000000000        3.61499000000000       -2.09203000000000
H            2.61525000000000       -0.68882000000000       -0.46164000000000
H            3.94398000000000       -0.14486000000000        0.53873000000000
H            1.28663000000000       -1.66109000000000        1.49887000000000
H           -0.22515000000000       -0.39239000000000        3.56447000000000
H            2.47019000000000        2.38504000000000        1.86619000000000
H            1.22575000000000        2.78059000000000        4.34088000000000
H           -0.07282000000000        3.06047000000000        3.14240000000000
H           -0.32215000000000        1.89976000000000        4.47442000000000
36
 energy: -56.295895346036 gnorm: 0.034780170910 xtb: 6.7.1 (edcfbbe)
C           -0.30932533339583       -0.82753828966103       -1.69827945384081
O            0.50995883324351        0.13959929363474       -1.04622293418711
C            0.73846966063175        1.32827793971744       -1.68803369412501
C           -0.25120586957152        1.99859919525040       -2.44153012699916
O           -1.50395080009918        1.45249726356870       -2.46174974439284
C           -2.58135951677919        2.27051570670635       -2.88872735511156
C            0.06855777359420        3.18473879662268       -3.09683747342625
C            1.33466326907953        3.73868232112953       -2.98220795980007
C            2.28205984096558        3.13276136587003       -2.18459764312586
C            1.99984179474423        1.93321723893527       -1.51423632128288
C            3.06100560353772        1.46132045114453       -0.58907267178386
O            4.04652057636453        2.14794233260262       -0.39012796012873
C            2.95236017353464        0.14151226311752        0.17699650565242
N            2.08138458868098        0.31142118666372        1.33326467102583
C            1.25501404601294       -0.63927951228586        1.87194891861392
C            0.55089704828180       -0.03955758007447        2.87053268007319
N            0.96237782051267        1.26575100542713        2.92526037089004
C            1.90469377464853        1.45349628296643        1.99805737675421
C            0.42733771835654        2.30520820397363        3.77980253820467
H            0.03939889081988       -1.80856279305739       -1.36393297061106
H           -0.21034783622663       -0.77260620326068       -2.78223778965358
H           -1.35498954540621       -0.70577480060266       -1.41175105504860
H           -3.49202032726886        1.70474242392960       -2.68484334124153
H           -2.61013635310126        3.20486142673602       -2.32103984433402
H           -2.53304687629031        2.47810373462879       -3.96009845596633
H           -0.66400312610058        3.70102196861772       -3.69963056924121
H            1.56717107985433        4.66094788681151       -3.49527354835529
H            3.25312446462496        3.59446626383646       -2.07116807037351
H            2.57702707220155       -0.66936882529294       -0.45019907086479
H            3.95757035959297       -0.12729659227192        0.53068199482838
H            1.26547276761865       -1.64053713615558        1.49013494140380
H           -0.20072466391789       -0.39726130864338        3.54734457987432
H            2.43798900162638        2.37237487568700        1.83084184786314
H            1.23014065990128        2.78001847589801        4.34283185349764
H           -0.06839836593218        3.05705972037681        3.16327989783880
H           -0.29809820433944        1.88367541745318        4.47283987737369
36
 energy: -56.298143053060 gnorm: 0.013656762610 xtb: 6.7.1 (edcfbbe)
C           -0.31312354956095       -0.82541873697426       -1.68398092796334
O            0.51257477375699        0.13815900123806       -1.03873304474987
C            0.74005998643984        1.33364110437356       -1.66325643038395
C           -0.24711722266793        2.00022684731922       -2.42179548491982
O           -1.49719160597207        1.45774686694070       -2.43378140999093
C           -2.56980108832222        2.25832928911257       -2.89328488509758
C            0.07465516999771        3.17993799263999       -3.07933839047536
C            1.34049399081899        3.73244344645340       -2.97105762110130
C            2.27827354205705        3.14149588727678       -2.16343143391418
C            1.99888534500844        1.94337890657279       -1.49076118883697
C            3.07573687428514        1.47004278082947       -0.60998137651973
O            4.05744142080824        2.13758385289599       -0.39267528591511
C            2.94217740585100        0.14681175347441        0.16992336910304
N            2.06353620164519        0.32096688673467        1.30256945229647
C            1.24308119516853       -0.61843254579213        1.84268602691522
C            0.55216367364701       -0.02269422644312        2.85145447937010
N            0.96150436122526        1.27232429250571        2.91258866723580
C            1.87829768016688        1.45633238760489        1.96485752267758
C            0.44011941125051        2.29774047867268        3.77937266727811
H            0.04322153041236       -1.79876643207707       -1.34400876820221
H           -0.21669855946108       -0.76399870145916       -2.76628531333615
H           -1.36045165805195       -0.69816663594775       -1.41196896716670
H           -3.46826272890722        1.68166741283906       -2.68011735702121
H           -2.60517065791969        3.20874333303557       -2.35226056734401
H           -2.51445920486479        2.44908877287761       -3.96714160686018
H           -0.66538052974813        3.68427678747648       -3.67692851860362
H            1.57341620701225        4.64075846566705       -3.50026367813490
H            3.25251867463186        3.58281980692709       -2.04078300367921
H            2.54935165540369       -0.65723373192216       -0.45234895467292
H            3.94852794210353       -0.11112848609741        0.52376389179740
H            1.23316492254550       -1.62493325663945        1.47940683031183
H           -0.18770968234018       -0.40580796186001        3.52512271092913
H            2.40889625943416        2.37056241920856        1.79175231292580
H            1.24233452836311        2.77160502671317        4.34222526860292
H           -0.06598495919341        3.06134986150675        3.18634788232581
H           -0.27365130502348        1.86357705431617        4.47413313312000
36
 energy: -56.298815258256 gnorm: 0.007228168694 xtb: 6.7.1 (edcfbbe)
C           -0.31483483820232       -0.81957401641199       -1.67055487759769
O            0.51662313438616        0.14151764020311       -1.02886576490534
C            0.74447527440026        1.33771513045061       -1.64883971116668
C           -0.24426079298654        2.00566810133216       -2.40435872534302
O           -1.49229606740079        1.46200970780609       -2.40945282966954
C           -2.56445042661353        2.24483724827420       -2.89926036331215
C            0.07688344618585        3.18197192447460       -3.06830275941385
C            1.34357771879379        3.73601332602494       -2.96670218356101
C            2.28053692925973        3.14809403352779       -2.15745481720283
C            2.00210119986598        1.94961937002433       -1.48063848256625
C            3.07938045208472        1.48117499510628       -0.60533560557676
O            4.08524284676641        2.12439420949807       -0.40754576382663
C            2.93550735221042        0.14608566714071        0.16396904193275
N            2.05096614453308        0.32627436306098        1.28530581562286
C            1.23269299894464       -0.61185349430645        1.82627843428641
C            0.54777626146486       -0.01651900865393        2.84111809602237
N            0.95640054297991        1.27765763457214        2.90154316570312
C            1.86629683090649        1.46184754466545        1.94757402830608
C            0.44706846532941        2.29401653828451        3.78237174662851
H            0.03743246712897       -1.79109901603432       -1.32486652358134
H           -0.21765704802289       -0.76454536183244       -2.75388376191786
H           -1.36187369449203       -0.68785042068819       -1.39975983809439
H           -3.45974463818882        1.66646936419285       -2.68180889653797
H           -2.61207139079079        3.20944619051171       -2.38215181453302
H           -2.49801944775945        2.41007918950982       -3.97785056148422
H           -0.66689352654474        3.67800378934644       -3.66813699364950
H            1.57544785189298        4.63954813236831       -3.50487263230509
H            3.25516387194374        3.58594905891592       -2.02231328089975
H            2.54265182851543       -0.65066977491272       -0.46608168569597
H            3.93907710991216       -0.11377647752691        0.52010678327687
H            1.20500229114606       -1.61993700743102        1.46731564566761
H           -0.18761081996410       -0.41400077490080        3.51126160669174
H            2.39147254725550        2.37867400776104        1.76467297031792
H            1.25669322582267        2.76059519916709        4.34208347876177
H           -0.06561824795780        3.06690753011616        3.20607063968141
H           -0.25770985280523        1.85028545636322        4.48138641994132
36
 energy: -56.299320742126 gnorm: 0.009191995050 xtb: 6.7.1 (edcfbbe)
C           -0.31767986489731       -0.81057045145306       -1.65008840439592
O            0.51999156515681        0.14918675984070       -1.01386324042952
C            0.74962255616769        1.34476228869572       -1.63128025558244
C           -0.24117861132879        2.01451929598699       -2.38355137739531
O           -1.48765846193051        1.46958182945783       -2.37799251125875
C           -2.55977745691834        2.22614030006063       -2.91066331598973
C            0.07866376637829        3.18689243704705       -3.05624753237381
C            1.34510300626200        3.74509098825944       -2.95905306972337
C            2.28180183742336        3.16057805037970       -2.14667455292477
C            2.00716194819857        1.95809878635531       -1.46978546529255
C            3.09477915187125        1.47970886904349       -0.61563863600102
O            4.11706713565971        2.10432883723883       -0.43479911018853
C            2.93389352144944        0.14481649993565        0.15726917035370
N            2.03459313116482        0.33231841108292        1.26465499837212
C            1.21854098016093       -0.60704549268199        1.80778913567213
C            0.53611937225475       -0.01106576322668        2.82612852903075
N            0.94557289791454        1.28379850122184        2.88548550078751
C            1.85226198890914        1.46932005801750        1.92813882197271
C            0.45506505689557        2.28986633845760        3.78850868322999
H            0.02604461030063       -1.78184328996771       -1.29533349023454
H           -0.21770711729170       -0.76755864628330       -2.73466999206396
H           -1.36386882658753       -0.67046826948483       -1.37892143810561
H           -3.45381904674684        1.64800356192303       -2.68863783067591
H           -2.62625974781861        3.20836513015795       -2.42679868146802
H           -2.47470645296498        2.35297788684311       -3.99519804309635
H           -0.66862495387296        3.67644301522538       -3.65814991639870
H            1.57508119853199        4.64535623597506       -3.50497158850800
H            3.25890602415528        3.59425126243651       -2.00611568322483
H            2.55127809725767       -0.64673126235876       -0.48379394291936
H            3.93021644567218       -0.12093298559406        0.52648208413186
H            1.17353053798354       -1.61591523987147        1.45203857766475
H           -0.19446752970175       -0.42226928861486        3.49305096979404
H            2.37114468537425        2.38962295738730        1.73478813352367
H            1.27783728744838        2.74372837934080        4.34181816078991
H           -0.06449776082186        3.07465728313603        3.23404267934466
H           -0.23860097170934        1.83701672602998        4.49405263358292
36
 energy: -56.299646828314 gnorm: 0.009821755617 xtb: 6.7.1 (edcfbbe)
C           -0.32141197145004       -0.80130719639737       -1.62752807005212
O            0.52204989887147        0.15890655450660       -0.99959414487525
C            0.75322866644141        1.35229426507639       -1.61898192033191
C           -0.23985106186403        2.02379185776973       -2.36811119702095
O           -1.48561039169769        1.47813919419339       -2.35337177162964
C           -2.55656061743200        2.20810985435876       -2.92580468084946
C            0.07831687464879        3.19417998344468       -3.04498071950408
C            1.34416950018520        3.75532431361760       -2.94855690393484
C            2.28306598561910        3.17022921319449       -2.13880227697407
C            2.01217127377133        1.96429256927136       -1.46427732762787
C            3.10967669447181        1.47331615050110       -0.62779085748935
O            4.14463027364184        2.08332511671835       -0.47042937548813
C            2.93632483981681        0.14498018399865        0.15317601350093
N            2.02184119894515        0.33596616254062        1.24895574856147
C            1.20624103999434       -0.60463283067495        1.79276041787544
C            0.52248531460466       -0.00776765296280        2.81077236391499
N            0.93405611367274        1.28736815444981        2.87079192199000
C            1.84242098227209        1.47330299154453        1.91487153223977
C            0.46204831242453        2.28585488155509        3.79370519671436
H            0.01385129672828       -1.77234466129337       -1.26195034831251
H           -0.21897076870279       -0.77202242735503       -2.71272328935977
H           -1.36642089905321       -0.65119848467033       -1.35617197762612
H           -3.45017540594643        1.62969592796166       -2.70157106631899
H           -2.64172017223553        3.20287741087819       -2.47237486389568
H           -2.45148365891694        2.30089154414056       -4.01262703724469
H           -0.66986508068964        3.68136661774278       -3.64839119223932
H            1.57162243585518        4.65641844992820       -3.49451244206191
H            3.26116656212568        3.60331847874524       -1.99825432990313
H            2.56671683931675       -0.64622630225846       -0.49634070589794
H            3.92503996844982       -0.12581026543213        0.53959970556014
H            1.15159205722295       -1.61261711803749        1.43705782857377
H           -0.20655426803003       -0.42515989669874        3.47473207194740
H            2.35716873247520        2.39520879008899        1.71587473427802
H            1.29791861529897        2.72615614098518        4.33969224532003
H           -0.06105813246910        3.08095044214252        3.25848342205947
H           -0.22269104836632        1.82785158642571        4.50469329610158
36
 energy: -56.299916174781 gnorm: 0.008140239902 xtb: 6.7.1 (edcfbbe)
C           -0.32611282362564       -0.79219785673671       -1.60381746950021
O            0.52322097097707        0.16923688294337       -0.98632933344191
C            0.75441781442008        1.36041598604407       -1.60998520165287
C           -0.24058656426231        2.03259246897146       -2.35706461788930
O           -1.48595823796441        1.48650915869652       -2.33619290818208
C           -2.55342824041361        2.19113409028882       -2.94429627728989
C            0.07580618500151        3.20308128393785       -3.03358064886750
C            1.34120907223121        3.76534057854113       -2.93564049449567
C            2.28382506494099        3.17689563277486       -2.13226049110485
C            2.01574747813258        1.96880756773196       -1.46139864513059
C            3.12222308122461        1.46441176283356       -0.64026845871836
O            4.16887092241069        2.06006966930878       -0.51215227716715
C            2.94074801421873        0.14682266316463        0.15172645270147
N            2.01385891074710        0.33760514892541        1.23854249253069
C            1.19537890254863       -0.60283596406842        1.77950536254133
C            0.50958913524816       -0.00594660078412        2.79629501628328
N            0.92441691124664        1.28837272922203        2.85955124860945
C            1.83652420742187        1.47411438056877        1.90702544138239
C            0.46820498088311        2.28157306296324        3.79713271762390
H            0.00218179669770       -1.76197422213230       -1.22677667421315
H           -0.22251858575731       -0.77661615065914       -2.68904648716417
H           -1.36982617817199       -0.63191373019621       -1.33330380724480
H           -3.44632103962499        1.61064043271403       -2.72076071408685
H           -2.65674879225418        3.19426947414751       -2.51805623541374
H           -2.42839945453669        2.25623198335197       -4.02979441441763
H           -0.67184124703403        3.69192378510825       -3.63642866188162
H            1.56624192117553        4.67005862310484       -3.47648018085082
H            3.26260962154513        3.61048912102719       -1.99766622177544
H            2.58330624831621       -0.64821556194620       -0.50146971710354
H            3.92350793861326       -0.12535467921202        0.55406791960945
H            1.13778529908534       -1.60897974853135        1.42082791337986
H           -0.22137565716598       -0.42300172971183        3.45761753013130
H            2.35002000355395        2.39591144762415        1.70737792967487
H            1.31468367413119        2.71005903131729        4.33595626948648
H           -0.05586374823272        3.08456098297424        3.27716462775830
H           -0.20996758572698        1.82093829569176        4.51199901587888
36
 energy: -56.300154486833 gnorm: 0.006354678068 xtb: 6.7.1 (edcfbbe)
C           -0.33244576731255       -0.78292267191771       -1.57902830785236
O            0.52377945963078        0.17926039126703       -0.97350061330390
C            0.75274325064600        1.36942989556985       -1.60138903219173
C           -0.24393124409181        2.04171058252629       -2.34624400518073
O           -1.48891514959299        1.49514078002545       -2.32263639843495
C           -2.54976573941352        2.17460732354094       -2.96762879490466
C            0.07097198168509        3.21393537082767       -3.01948499966175
C            1.33658261421239        3.77503718632524       -2.92023413810305
C            2.28390092121181        3.18111582823714       -2.12603754077989
C            2.01724797155335        1.97233104902290       -1.45894174057841
C            3.13171424178505        1.45422120094876       -0.65309284325331
O            4.19136745696960        2.03207548925206       -0.55975251844324
C            2.94597404754251        0.14945435034952        0.15226855123674
N            2.01120364453454        0.33797027452072        1.23278724248446
C            1.18666491550534       -0.60074980418701        1.76724398901614
C            0.49913945725148       -0.00489910058159        2.78275843668481
N            0.91863729672066        1.28731786600796        2.85231999413818
C            1.83516104271336        1.47254478892675        1.90385351910284
C            0.47377733853851        2.27680006156745        3.79867288511206
H           -0.00958059075961       -1.75025283771225       -1.19089903987094
H           -0.22956001160498       -0.78014889280594       -2.66399222811539
H           -1.37475293546338       -0.61265604454140       -1.31013243349473
H           -3.44139054904335        1.59021125571376       -2.74766894652031
H           -2.67277923165335        3.18573605841809       -2.56902000222341
H           -2.40282043632575        2.21419485910835       -4.05031637133330
H           -0.67572445162698        3.70708045705453       -3.61974071767042
H            1.55979778214615        4.68449675819331       -3.45377067299517
H            3.26346151184997        3.61508471533197       -2.00092953617741
H            2.59766247608232       -0.65270077367135       -0.49885870737859
H            3.92587235969945       -0.11883401467956        0.56526743793821
H            1.13105304884837       -1.60479197657646        1.40312087506237
H           -0.23741344818025       -0.41670450506835        3.44114424395810
H            2.35098134883416        2.39291394800119        1.70844234121474
H            1.32699603043253        2.69686136864680        4.33185867377771
H           -0.05011024211182        3.08535133757948        3.28961126991725
H           -0.20007040121257        1.81480742477765        4.51597012882339
36
 energy: -56.300331894615 gnorm: 0.005181746085 xtb: 6.7.1 (edcfbbe)
C           -0.34050027935135       -0.77462604267636       -1.55723180832321
O            0.52344331284371        0.18677048871319       -0.96285339909451
C            0.74861946481699        1.37750160627438       -1.59291663868741
C           -0.24926577145965        2.05021042403996       -2.33482536533981
O           -1.49374933694960        1.50283626840444       -2.31340723649753
C           -2.54587220855038        2.15984220823158       -2.99314560139726
C            0.06480620799456        3.22543131208436       -3.00326375883549
C            1.33111579536163        3.78402202358319       -2.90425433768600
C            2.28284124451601        3.18386093995291       -2.11961700043532
C            2.01636422171520        1.97472638060013       -1.45600082875959
C            3.13741745266806        1.44436686502115       -0.66571753456388
O            4.20904921009984        2.00266595074335       -0.60525573811110
C            2.95115814574446        0.15093897988974        0.15375105156149
N            2.01395668237021        0.33807257366213        1.23119585262736
C            1.18165511981465       -0.59816360390285        1.75715839975755
C            0.49325115983440       -0.00397437114418        2.77197757694290
N            0.91837294228694        1.28556686451880        2.84946588206361
C            1.83914590323185        1.47028655304117        1.90494298065770
C            0.47807255988279        2.27269058677487        3.79878777859850
H           -0.02211662658761       -1.73930929917199       -1.16019945288479
H           -0.23982312601659       -0.78229078622216       -2.64209057131112
H           -1.38134121723864       -0.59524865563952       -1.28941970025948
H           -3.43626889857981        1.57059594125338       -2.78099726179326
H           -2.68821194592557        3.17685920924984       -2.61814183441353
H           -2.37525526569791        2.18016323615923       -4.07224837789729
H           -0.68162973324343        3.72337071308830       -3.59955691194093
H            1.55358613645277        4.69702164369102       -3.43207099310678
H            3.26378652401934        3.61655273482486       -2.00373014532024
H            2.60754394391356       -0.65945724299713       -0.49066773780664
H            3.93206964690965       -0.10892001333732        0.56971779392285
H            1.12998015465400       -1.60045662846437        1.38678487932824
H           -0.25091052837857       -0.40869272663369        3.42697041302698
H            2.36083099129606        2.38856804706934        1.71738795619430
H            1.33333414385771        2.68957048777431        4.32960779241329
H           -0.04606266072945        3.08381585828396        3.29478687435550
H           -0.19396336557519        1.80986147325909        4.51709700301403
36
 energy: -56.300453693819 gnorm: 0.004635322472 xtb: 6.7.1 (edcfbbe)
C           -0.34975109853813       -0.76770411738605       -1.53990499643330
O            0.52245371181495        0.19128737980093       -0.95477474340541
C            0.74350423041235        1.38357186627804       -1.58450343286854
C           -0.25512220281789        2.05748514771515       -2.32311310732823
O           -1.49914963002087        1.50917209818421       -2.30708004862907
C           -2.54165432411787        2.14696404137044       -3.01831882484548
C            0.05852742201952        3.23624701494529       -2.98646768663890
C            1.32543937645351        3.79267388911101       -2.88900242255107
C            2.28061057980685        3.18656745465323       -2.11285365967544
C            2.01391191557307        1.97644718214623       -1.45233755012893
C            3.14086146904006        1.43571233019322       -0.67828681813052
O            4.22346135668667        1.97419764175582       -0.64689364529137
C            2.95576412712620        0.15053881867553        0.15495294380231
N            2.01995855970242        0.33871408262319        1.23193730300318
C            1.17976558797831       -0.59509420599664        1.74943092446332
C            0.49100088106179       -0.00246578218770        2.76406422947133
N            0.92259313073698        1.28438523260452        2.84967861612521
C            1.84766094811714        1.46857996675538        1.90918802904949
C            0.48112418645450        2.27003788917901        3.79875218437050
H           -0.03634092305389       -1.73071670907134       -1.13629312843440
H           -0.25185766063232       -0.78371064369287       -2.62496896680147
H           -1.38899825268866       -0.57955800672550       -1.27191213779799
H           -3.43089947149831        1.55177122774240       -2.81839306074106
H           -2.70297156292237        3.16741182382557       -2.66134583473817
H           -2.34631200281628        2.15477692612792       -4.09347761137971
H           -0.68898466515690        3.73811064524158       -3.57792841678964
H            1.54742525467878        4.70788598153609       -3.41310008907657
H            3.26346073706016        3.61615328145726       -2.00317850041898
H            2.61350516942719       -0.66701064428430       -0.48137344121263
H            3.93987675976292       -0.10016719926037        0.56872687509862
H            1.13020524152485       -1.59581820246486        1.37328967943649
H           -0.26055700013928       -0.40141856481903        3.41491562041277
H            2.37698303288945        2.38453567488492        1.73053131304644
H            1.33508945681555        2.68811223634913        4.33032821783742
H           -0.04418371408256        3.08100344373287        3.29494938692249
H           -0.19097062665717        1.80635079899878        4.51678280027632
36
 energy: -56.300539039011 gnorm: 0.003308939620 xtb: 6.7.1 (edcfbbe)
C           -0.36005620685127       -0.76263654933803       -1.52781174904567
O            0.52110252051356        0.19243754456088       -0.95021101973182
C            0.73852361714027        1.38649529617568       -1.57791005547516
C           -0.26047264709909        2.06267394539805       -2.31319920716273
O           -1.50430485010327        1.51355435288076       -2.30471174546341
C           -2.53692926996960        2.13646808194902       -3.04120535363642
C            0.05269719915617        3.24559185068638       -2.97056839923036
C            1.31972132853824        3.80105488700431       -2.87446864033130
C            2.27734800304627        3.18918850344663       -2.10579282415040
C            2.01073916924026        1.97677312773772       -1.44907870086914
C            3.14265369952598        1.42789821626037       -0.69044034635433
O            4.23205277797894        1.95003197322111       -0.68175898141934
C            2.96013609833335        0.14840274841231        0.15557474675207
N            2.02822091481781        0.33961286474242        1.23439922434865