29
 energy: -59.947747357437 gnorm: 55.725690650415 xtb: 6.7.1 (edcfbbe)
F            0.98865000000000       -0.09934000000000       -0.00173000000000
C            2.31865000000000       -0.09934000000000       -0.00173000000000
C            2.82532000000000       -1.48256000000000        0.37296000000000
S            2.22199000000000       -2.69253000000000       -0.83040000000000
F            0.75680000000000       -2.91967000000000       -0.26717000000000
F            2.70823000000000       -3.79824000000000        0.18117000000000
F            1.91045000000000       -3.77263000000000       -1.90460000000000
F            1.60854000000000       -1.58642000000000       -1.77632000000000
F            2.42763000000000       -1.59817000000000        0.29162000000000
F            4.15532000000000       -1.48255000000000        0.37296000000000
F            2.38198000000000       -1.80378000000000        1.58505000000000
C            2.82532000000000        0.26777000000000       -1.38698000000000
C            2.31865000000000        1.65099000000000       -1.76168000000000
N            2.80865000000000        2.63368000000000       -0.78438000000000
C            2.18809000000000        3.91282000000000       -0.83801000000000
C            2.70000000000000        4.96034000000000       -0.05493000000000
C            3.54290000000000        4.70538000000000        0.90219000000000
C            3.93360000000000        3.38480000000000        1.16080000000000
C            3.66836000000000        2.37622000000000        0.20275000000000
F            2.76198000000000        0.78976000000000        0.88250000000000
H            3.89532000000000        0.26778000000000       -1.38698000000000
H            2.46865000000000       -0.44751000000000       -2.09836000000000
H            2.67532000000000        1.90942000000000       -2.73683000000000
H            1.24865000000000        1.65099000000000       -1.76168000000000
H            1.33936000000000        4.07526000000000       -1.46901000000000
H            2.39645000000000        5.96846000000000       -0.24581000000000
H            3.93852000000000        5.50505000000000        1.49288000000000
H            4.42944000000000        3.13988000000000        2.07680000000000
H            4.14976000000000        1.42296000000000        0.26952000000000
29
 energy: -71.237500169077 gnorm: 1.459314513373 xtb: 6.7.1 (edcfbbe)
F            0.98831712302876       -0.09919294892053       -0.00179974397311
C            2.31955897080017       -0.09498278086430       -0.00268116706037
C            3.15998238039808       -1.38231231685084        0.44297408349152
S            2.22154501552154       -2.69467588569821       -0.83228779020893
F            0.75644307951480       -2.91980368385289       -0.26716654208263
F            2.70843536394453       -3.79877595117799        0.18169238066429
F            1.91026765562449       -3.77333747115841       -1.90530515855391
F            1.60737139897574       -1.58662548310276       -1.77688612783215
F            2.09173182388146       -1.70031837189404        0.21586705646037
F            4.15746852486074       -1.48236345706210        0.37322880953407
F            2.38187013864386       -1.80518469128647        1.59390057942132
C            2.82544281257599        0.26817974262088       -1.38696377740918
C            2.31879316505253        1.65109475455625       -1.76151416597316
N            2.80830681141555        2.63418992277770       -0.78446660918421
C            2.18837988170482        3.91266601392578       -0.83787463591256
C            2.69936166808186        4.96027731450833       -0.05574318418411
C            3.54349301223713        4.70505261502491        0.90285972676787
C            3.93358835004523        3.38476615078372        1.16062700476229
C            3.66865255956561        2.37681264035428        0.20277353093447
F            2.76136835104571        0.79026044307254        0.88353428764675
H            3.89549227895548        0.26779716675701       -1.38707526471261
H            2.46895062259991       -0.44705975142248       -2.09852949653211
H            2.67533917131674        1.90951448430363       -2.73698822293100
H            1.24849991718625        1.65098310683260       -1.76175835083739
H            1.33935708694187        4.07520869908159       -1.46907043292936
H            2.39635056660892        5.96850366937004       -0.24583883126319
H            3.93854196296881        5.50507464488062        1.49297063792047
H            4.42953687977477        3.13985713433950        2.07678321738583
H            4.15013342672868        1.42321429010165        0.26933818659071
29
 energy: -71.649751256792 gnorm: 0.630574714525 xtb: 6.7.1 (edcfbbe)
F            0.98275832349996       -0.07574179820883        0.00278037341281
C            2.31960644575252       -0.05205502994942       -0.00528396469876
C            3.06474514805737       -1.35230163734567        0.46825492446309
S            2.19875841989302       -2.73462015678867       -0.86519426438151
F            0.73276309139902       -2.95357762044967       -0.28713310981624
F            2.71504944390023       -3.82012884325525        0.19830726650559
F            1.90406717942504       -3.82021794320839       -1.94535739792759
F            1.55999763275363       -1.60222879909966       -1.81524387518053
F            2.01261096298177       -1.71227655654573        0.19158592360460
F            4.35759519148927       -1.53640609095418        0.34205457661104
F            2.42304772243563       -1.79406342901600        1.72382053329843
C            2.83828907362355        0.28697030812685       -1.38819834866680
C            2.32703655329193        1.65888142445388       -1.75752674141815
N            2.80105022691696        2.65488701672981       -0.78367388146492
C            2.19359712172158        3.90873279732846       -0.83946112809050
C            2.68643862188511        4.95767496414638       -0.07287761207165
C            3.55058470829977        4.69844509889433        0.91757931520137
C            3.93421379755338        3.38567966717255        1.16134524239723
C            3.68066979050441        2.40363521234227        0.19528917108305
F            2.72749738751818        0.80757676786866        0.92432626067310
H            3.90903886627177        0.26961534780491       -1.38516866462438
H            2.48115201577663       -0.43114375742902       -2.10619833470833
H            2.68203649899886        1.91250710380055       -2.74220261629950
H            1.24709388477896        1.65131981689520       -1.76390854290461
H            1.34285633096952        4.07038786702952       -1.47571835537144
H            2.38727640094516        5.97006213585360       -0.25107831339959
H            3.93584180070072        5.50615092857176        1.50273943907639
H            4.42956778906868        3.13820900194958        2.07894508784305
H            4.16733956958734        1.44284620328217        0.26179703685483
29
 energy: -71.842192142438 gnorm: 0.476578654889 xtb: 6.7.1 (edcfbbe)
F            0.99385668387306       -0.02650302725555        0.01855555694562
C            2.33600602446503       -0.00153651124707        0.01416784023506
C            3.01819786825116       -1.34484549865829        0.50150457832092
S            2.19201610977035       -2.81292295783865       -0.91306846782812
F            0.70459183082605       -3.04446923160525       -0.33417183446980
F            2.73522642848653       -3.87127859993970        0.21537287289214
F            1.89713441771008       -3.91390043207169       -2.01224110215842
F            1.49722203824150       -1.64232293062279       -1.86794169355189
F            1.97201025159031       -1.73273039961945        0.20271825505032
F            4.32670740170367       -1.54713012162473        0.33116646686627
F            2.49767521311618       -1.77897792292329        1.83551827989143
C            2.86032385528626        0.31776327106649       -1.37884704974696
C            2.33686860622063        1.67951702397139       -1.75067006301563
N            2.79543950550649        2.69038900843452       -0.78467335021546
C            2.19948344526188        3.91060814875815       -0.84312786715357
C            2.67828900602599        4.95765555497022       -0.08927365596326
C            3.55881326105522        4.69710974524555        0.93090133113922
C            3.94882295859787        3.39345093887759        1.15749665022124
C            3.70677253691104        2.44869681990945        0.17400861261701
F            2.67149400771582        0.84384107112794        0.99601569916355
H            3.93552023907562        0.27666489249117       -1.38441107296220
H            2.49393403476927       -0.40300496942159       -2.10841069282159
H            2.68605298363088        1.92299202837911       -2.74960109742503
H            1.24554925597050        1.65652404796379       -1.76136999899913
H            1.34885534089704        4.06206586230663       -1.48699641149434
H            2.37073523246532        5.97220335216093       -0.25785992497635
H            3.93601659975990        5.50890210627106        1.51996609250454
H            4.44739655768362        3.13310494894878        2.07316222526934
H            4.20156830513267        1.48695378194534        0.23670982166520
29
 energy: -71.992906943072 gnorm: 0.340283818279 xtb: 6.7.1 (edcfbbe)
F            1.02191985500029        0.02245483734428        0.02973873590396
C            2.37193554184271        0.06261552666591        0.04112798594824
C            2.95582471501517       -1.32872390931287        0.55591733886726
S            2.18542159518481       -2.91400696461373       -0.98068819658056
F            0.67718738843658       -3.13235087963498       -0.38752628467656
F            2.75857496893931       -3.92112767017270        0.23728139126046
F            1.88796154784025       -4.01834138011689       -2.10164335494710
F            1.44193679312967       -1.66984951247828       -1.92227913869320
F            1.91909162494011       -1.76472468905721        0.22150002269560
F            4.28110505352886       -1.56931411289020        0.32188665467479
F            2.59007627071504       -1.74530369712116        1.95101067466065
C            2.88324637766453        0.34632225925745       -1.36384700522731
C            2.34758181383850        1.69860696326904       -1.74729461881433
N            2.79035189405422        2.71936720301107       -0.78899937863187
C            2.20454620447570        3.91438279191890       -0.84685772571507
C            2.67043557154721        4.96311657759314       -0.09880114949330
C            3.56500121555703        4.70262423882696        0.93926882667528
C            3.96533834393890        3.40155498035030        1.14963134939815
C            3.72258897496845        2.48158691479363        0.15443996095402
F            2.62045859121785        0.89183858531629        1.07007055881307
H            3.96121177180224        0.28143689859750       -1.38868959544982
H            2.50294843175585       -0.37869386507989       -2.09583741922899
H            2.68681869032148        1.93641129156193       -2.75747770331522
H            1.24769039870349        1.66173615430206       -1.75791466979356
H            1.35360391582021        4.05525314568895       -1.49856154704534
H            2.35384310220128        5.97708753899765       -0.25979897589268
H            3.93143377057061        5.51587130208801        1.53592461888369
H            4.47085904944218        3.12936881228650        2.06152741530823
H            4.22358652754735        1.51962065860845        0.21149122946160
29
 energy: -72.088541421461 gnorm: 0.248308971159 xtb: 6.7.1 (edcfbbe)
F            1.04391965167455        0.06710146308076        0.03738041558084
C            2.39990132269410        0.11075072524927        0.07919840813828
C            2.88913730059585       -1.31462080468696        0.61891204629304
S            2.17349417781001       -3.02258961048314       -1.04713375829367
F            0.65117949527471       -3.23840257772473       -0.45055143713103
F            2.77744471766821       -3.96754866372492        0.24763873462640
F            1.88672026944550       -4.11916208059540       -2.18941598439216
F            1.40178626108363       -1.70584355468700       -1.96843701647001
F            1.86340551485206       -1.80639192677940        0.24487562030968
F            4.22023951950975       -1.59305905307816        0.31611716668112
F            2.67320765645248       -1.70304228736967        2.04254615348196
C            2.90522026301732        0.37164073091101       -1.33628481364695
C            2.35999005159453        1.71704773318462       -1.74465174670210
N            2.79764080484687        2.74328841585869       -0.79806185380026
C            2.20497631236905        3.93052654359246       -0.85322551002094
C            2.66396265805338        4.97840154711833       -0.09825430666450
C            3.56663909327015        4.71774399363501        0.94295323424230
C            3.98788364670771        3.41783117771208        1.13709287699505
C            3.74038488994329        2.50927217753519        0.13403140570305
F            2.58096106099969        0.93424543598376        1.13301107195798
H            3.98600424947993        0.29165043613364       -1.39178931182196
H            2.50538204851347       -0.35757352377111       -2.06133905825180
H            2.68636489319049        1.95246311687836       -2.76209536384530
H            1.25680676840044        1.66953943647032       -1.75017570525638
H            1.35619691856372        4.05552349186449       -1.51237851078338
H            2.33297343485733        5.98715197087161       -0.25746880551925
H            3.92398194230833        5.52619799791542        1.55310150255562
H            4.50579022909305        3.13151651532914        2.03992653214571
H            4.25098484773026        1.55516117357652        0.17907801388871
29
 energy: -72.151158914224 gnorm: 0.185709351007 xtb: 6.7.1 (edcfbbe)
F            1.05415983694214        0.10593481613217        0.04291146718645
C            2.41279023112160        0.13965328412006        0.12601802974158
C            2.82282023343872       -1.30447361941441        0.68319552111704
S            2.15777884175448       -3.13268253085423       -1.10884146307374
F            0.63221062844583       -3.35800929432967       -0.52140110010827
F            2.78848269789929       -4.01500330843482        0.24065159761097
F            1.89372100858764       -4.21654830507345       -2.27146825044857
F            1.37906707953226       -1.75649939276396       -2.00986476921581
F            1.80876679147711       -1.85350813012056        0.26844954506718
F            4.14671445931712       -1.61599979720635        0.31685664710666
F            2.73812431031391       -1.65311520786199        2.10589220712506
C            2.92343176713109        0.39174697072284       -1.29872887215713
C            2.37352512314880        1.73391061454193       -1.73637848696913
N            2.81199543128219        2.76991237532584       -0.80780737189840
C            2.20589616558682        3.95599750218616       -0.86026551109028
C            2.65930467513239        4.99952217200112       -0.09196016122315
C            3.56661927620946        4.74022504582776        0.94278490984335
C            4.01747316192583        3.44495053399721        1.11889524873414
C            3.76025816226432        2.54013720553324        0.11381656735815
F            2.55505831025040        0.97218914983571        1.18159835417595
H            4.00540805864567        0.30459501518624       -1.38738587701735
H            2.50203390457672       -0.34243269844171       -2.00805452364585
H            2.68698630128467        1.96456629921284       -2.75997594113273
H            1.27092443253402        1.68055365646860       -1.73611753464081
H            1.36072388246160        4.06171557805630       -1.52613656433954
H            2.30511177838449        6.00085894970222       -0.25087759722391
H            3.91377988519044        5.54010894906677        1.57209732830931
H            4.55560860085880        3.14377473146380        2.00612318210880
H            4.28380496430194        1.59673943512067        0.14057341870005
29
 energy: -72.194935822452 gnorm: 0.139400040269 xtb: 6.7.1 (edcfbbe)
F            1.05239625764331        0.13858108321542        0.05093509675724
C            2.41000732117954        0.15200475402607        0.17669286231746
C            2.76106378759791       -1.29877715460381        0.74258403242985
S            2.14005756605134       -3.23969300991460       -1.16490107522185
F            0.62268824801946       -3.48214914751536       -0.59560842303530
F            2.78947530615775       -4.06617909890378        0.21534700306187
F            1.90634673474846       -4.31122154685657       -2.34579422247313
F            1.37408607173012       -1.82253790345575       -2.04919872684985
F            1.75853668972159       -1.90228560176413        0.28840522969176
F            4.06481176571857       -1.63799859124093        0.32309579750602
F            2.77980103546115       -1.59628759039272        2.13835333770871
C            2.93496722426288        0.40567677308776       -1.25469499245119
C            2.38689425588187        1.74752410602678       -1.71992859568692
N            2.82904780630002        2.80048565199008       -0.81561929761907
C            2.21022025326703        3.98534557985511       -0.86659661419009
C            2.65426719746532        5.02448258952728       -0.08263411540087
C            3.56580539523836        4.76957691545597        0.94114820087230
C            4.05354540504050        3.48280892179198        1.09595623788172
C            3.78463507928701        2.57682525832107        0.09385592648711
F            2.54385597984459        1.00574158978794        1.21540998644140
H            4.01599923851217        0.31579602921733       -1.36855698790514
H            2.49424214794195       -0.33502221852493       -1.94229022448549
H            2.69107149994765        1.96745335866338       -2.74936544482018
H            1.28685547180338        1.69497308227704       -1.71551490740495
H            1.36934825091580        4.07297617666896       -1.53898894857463
H            2.27004304600578        6.01707652057559       -0.23980364824980
H            3.89986877251231        5.55967053649558        1.59213906670535
H            4.62020684065107        3.17023243456855        1.96176528523706
H            4.32243535109274        1.64374050162122        0.09840816127064
29
 energy: -72.226824954036 gnorm: 0.097271751545 xtb: 6.7.1 (edcfbbe)
F            1.03984323977588        0.16592769933558        0.06781196805656
C            2.39305277644626        0.15207001179074        0.22629119846318
C            2.70795397659827       -1.29672625573607        0.79186906337502
S            2.12162794085044       -3.33842047135413       -1.21450074073657
F            0.62166486530476       -3.60295985441826       -0.66790513859947
F            2.78032654711554       -4.12093169907800        0.17428620526767
F            1.92192635272437       -4.40207227934058       -2.41070692948644
F            1.38461514468634       -1.90112223872185       -2.08698746550933
F            1.71589954542085       -1.94887670275356        0.30252440563104
F            3.97976479522476       -1.65814735995310        0.32847251140051
F            2.79757395735441       -1.53446812107640        2.14037617134271
C            2.93744606149815        0.41296625797918       -1.20753924218069
C            2.39970810667996        1.75683749538748       -1.69661024882687
N            2.84752068068135        2.83161625155273       -0.82041694289220
C            2.21831493518279        4.01393310270138       -0.87162788224070
C            2.64633158509637        5.05147083135290       -0.07204115661228
C            3.56443780754765        4.80446324382497        0.93973601236510
C            4.09453458228818        3.52949216892628        1.06971932686045
C            3.81522341160819        2.61781264170805        0.07531514984688
F            2.54763772196654        1.03325980746865        1.23638632209712
H            4.01645131191950        0.31996168576575       -1.33212906737026
H            2.48253570309732       -0.33532903828551       -1.87191273941909
H            2.70126055833393        1.95884693289882       -2.73103582582026
H            1.30246936953691        1.71311479108388       -1.69030893266355
H            1.38252759205540        4.08892285129114       -1.55110499156626
H            2.22978909780261        6.03415716237659       -0.22436689844567
H            3.88065239950754        5.58555892234507        1.61235568589730
H            4.69595843580533        3.21398305498936        1.91064209323137
H            4.36553149788993        1.69347910793960        0.05800808853481
29
 energy: -72.247806578133 gnorm: 0.061608588008 xtb: 6.7.1 (edcfbbe)
F            1.01647755667931        0.18757001847948        0.09793384525210
C            2.36363564175341        0.14489331983891        0.26793847934404
C            2.66666680191716       -1.29682773434403        0.82446153913496
S            2.10423053651240       -3.42261376172742       -1.25688581922942
F            0.62508991065990       -3.71337161706804       -0.73208705723636
F            2.76440168395361       -4.17724895517484        0.12477809562144
F            1.93894802667910       -4.48589604724540       -2.46475240816365
F            1.40409100620761       -1.98527929622711       -2.12286798715975
F            1.68293694413167       -1.98933513303819        0.30931615846930
F            3.89921342059024       -1.67449156323458        0.32124833617163
F            2.79582740901055       -1.47456226945318        2.12022007103696
C            2.92794166026778        0.41275945165416       -1.16158213502027
C            2.41293064321410        1.76174056777347       -1.66917204591408
N            2.86764524220203        2.85904413502957       -0.82116081597680
C            2.23075632800978        4.03770732665763       -0.87503335721797
C            2.63462677746445        5.07794646788786       -0.06219223225848
C            3.56306941310104        4.84313236511511        0.93918269988911
C            4.13813361769840        3.58307003427553        1.04249145794271
C            3.85052730060838        2.65988794272118        0.06151532382904
F            2.56407069513994        1.05089968689201        1.24696079839554
H            4.00555078039176        0.31091164275426       -1.27722209206307
H            2.46605199214275       -0.34296281902670       -1.80693545164659
H            2.72169474488129        1.93848268989831       -2.70632301358943
H            1.31750124497069        1.73607629642411       -1.66466287306375
H            1.40149430836236        4.10827791997165       -1.56314227028435
H            2.18623714767414        6.04988763786452       -0.20441070322700
H            3.85408290923926        5.61829257265097        1.63157803540981
H            4.77942448132400        3.27894537661135        1.85752543316409
H            4.40932177521227        1.74188374404031        0.02787998839047
29
 energy: -72.259130634264 gnorm: 0.058632074270 xtb: 6.7.1 (edcfbbe)
F            0.98380439013893        0.20072473103903        0.14003642474716
C            2.32672746952871        0.13527538801133        0.29362784820395
C            2.63852027460488       -1.29939129211181        0.83266914777856
S            2.08910899503005       -3.48598326667207       -1.29140081094537
F            0.62570873115257       -3.80467465741060       -0.77954988150764
F            2.74915284028979       -4.23123539555221        0.07899539850965
F            1.95321426051711       -4.55552675666619       -2.50689578548755
F            1.41763695521062       -2.06015882381044       -2.15455181847368
F            1.65961513995194       -2.02149529372026        0.30810104129514
F            3.83499382262961       -1.68769205219037        0.28919734329686
F            2.78986520283830       -1.43299058334878        2.09856189665978
C            2.90513205176489        0.40486122358642       -1.12350037961435
C            2.42915838796647        1.76389570609260       -1.64239520337238
N            2.89012931540670        2.87874915120188       -0.81599713892908
C            2.24758485573407        4.05381980250004       -0.87714040236026
C            2.61965980987783        5.10087941063375       -0.05488565698821
C            3.56076174994132        4.88386493084158        0.93944715646529
C            4.18048787444536        3.64116206007260        1.01902907044952
C            3.88530067448140        2.69840728003602        0.05869116117143
F            2.58594299368420        1.05338334250358        1.24957933210792
H            3.98303459933421        0.28403881273032       -1.20901228054114
H            2.44247140227621       -0.35537519481575       -1.76001979735203
H            2.75781671730409        1.91126085267137       -2.67781176186406
H            1.33433628279482        1.76529285402964       -1.64704897092594
H            1.42797751527143        4.12676041958463       -1.57770429355686
H            2.14034821380260        6.06164980810659       -0.18198072482983
H            3.81934550355756        5.65881897877607        1.64673011095963
H            4.86593996108803        3.36666689521080        1.80971538344750
H            4.44880400937555        1.78383166867139        0.02011359165649
29
 energy: -72.266300145032 gnorm: 0.055325977818 xtb: 6.7.1 (edcfbbe)
F            0.94666163209019        0.20968610466668        0.18965454374655
C            2.28819132789929        0.12646909982455        0.30851101040672
C            2.61869124749939       -1.30491309696336        0.82478090977073
S            2.07830505377105       -3.53329747599397       -1.32094992819027
F            0.62179278803052       -3.87931238213228       -0.81742718015529
F            2.73576050971605       -4.28558539817287        0.03990100105762
F            1.96850990800428       -4.61097872071234       -2.54316666454285
F            1.42619544664708       -2.12051399067219       -2.18385556315426
F            1.64195123446517       -2.04890831183165        0.30394843891166
F            3.78521324948436       -1.70383805951375        0.24758210559538
F            2.78481916279262       -1.41378364109424        2.08705404724266
C            2.87509219928494        0.39646665646318       -1.09167826323810
C            2.44563323177544        1.76716460135136       -1.61911554288800
N            2.91117942563168        2.89133565565567       -0.80461187201544
C            2.26261735827884        4.06226263773585       -0.87568111924373
C            2.60353766684012        5.11747336334976       -0.05070376279416
C            3.55926667016181        4.92307646377248        0.93763727159903
C            4.21960530291426        3.70019541972757        0.99893845383867
C            3.91733562100726        2.73253022729098        0.06445712242284
F            2.60835441101294        1.04354660555897        1.25199942481647
H            3.95412726852655        0.25180727509009       -1.13586693702554
H            2.41519422282306       -0.36278511004318       -1.73107317296602
H            2.80251682714736        1.88768762708637       -2.64833323649404
H            1.35106437823526        1.79813868229318       -1.64072672192234
H            1.45522441975566        4.13990484221889       -1.59123670673071
H            2.09786006103147        6.06618785915191       -0.16396175484512
H            3.78816054997552        5.70206151217319        1.64981780225483
H            4.94679342531663        3.46810189104019        1.76747929093133
H            4.48292539988035        1.81863966268040        0.03122700361223
29
 energy: -72.271758755156 gnorm: 0.042279120701 xtb: 6.7.1 (edcfbbe)
F            0.90937264946695        0.22086666896616        0.24537736588934
C            2.25103826020660        0.11910872561298        0.32084383725927
C            2.60030211518595       -1.31577984141130        0.81372237395804
S            2.07537481163457       -3.57183034158855       -1.34778737320567
F            0.61323705180220       -3.94199037937206       -0.86267822812383
F            2.71601242338135       -4.35006153752347        0.00648667432413
F            1.99670156318350       -4.65673522831275       -2.57950448547907
F            1.44479155823348       -2.17042512790883       -2.21729145454044
F            1.62447950512804       -2.07660905742956        0.30288832288577
F            3.74100623159596       -1.73082751645757        0.22267703504987
F            2.76480351849728       -1.41666567412501        2.08515671610978
C            2.84424785459833        0.39343987183971       -1.06217750830137
C            2.45828885434162        1.77315714629269       -1.59760100435918
N            2.92736910567475        2.90014642744511       -0.78785288695635
C            2.27061483642251        4.06555162383962       -0.86866349649780
C            2.58730407972355        5.12892684207675       -0.04927427710376
C            3.56356920290779        4.96132993810292        0.92899899832533
C            4.26064777951695        3.76062925698497        0.97485223851194
C            3.94835791195594        2.76553815317320        0.07140183464269
F            2.63136142267216        1.02458761798123        1.26152052737504
H            3.92327632982535        0.22923468271645       -1.06321221122688
H            2.39183830298640       -0.35773718356053       -1.71743600862254
H            2.84497925638899        1.87240849477109       -2.61768551214816
H            1.36470971865593        1.82982832887073       -1.64147458771603