      -----------------------------------------------------------      
     |                   =====================                   |     
     |                           x T B                           |     
     |                   =====================                   |     
     |                         S. Grimme                         |     
     |          Mulliken Center for Theoretical Chemistry        |     
     |                    University of Bonn                     |     
      -----------------------------------------------------------      

   * xtb version 6.7.1 (edcfbbe) compiled by 'conda@3ef47c1a292c' on 2024-11-25

   xtb is free software: you can redistribute it and/or modify it under
   the terms of the GNU Lesser General Public License as published by
   the Free Software Foundation, either version 3 of the License, or
   (at your option) any later version.
   
   xtb is distributed in the hope that it will be useful,
   but WITHOUT ANY WARRANTY; without even the implied warranty of
   MERCHANTABILITY or FITNESS FOR A PARTICULAR PURPOSE.  See the
   GNU Lesser General Public License for more details.
   
   Cite this work as:
   * C. Bannwarth, E. Caldeweyher, S. Ehlert, A. Hansen, P. Pracht,
     J. Seibert, S. Spicher, S. Grimme, WIREs Comput. Mol. Sci., 2020, 11,
     e01493. DOI: 10.1002/wcms.1493
   
   for GFN2-xTB:
   * C. Bannwarth, S. Ehlert and S. Grimme., J. Chem. Theory Comput., 2019,
     15, 1652-1671. DOI: 10.1021/acs.jctc.8b01176
   for GFN1-xTB:
   * S. Grimme, C. Bannwarth, P. Shushkov, J. Chem. Theory Comput., 2017,
     13, 1989-2009. DOI: 10.1021/acs.jctc.7b00118
   for GFN0-xTB:
   * P. Pracht, E. Caldeweyher, S. Ehlert, S. Grimme, ChemRxiv, 2019, preprint.
     DOI: 10.26434/chemrxiv.8326202.v1
   for GFN-FF:
   * S. Spicher and S. Grimme, Angew. Chem. Int. Ed., 2020, 59, 15665-15673.
     DOI: 10.1002/anie.202004239
   
   for ALPB and GBSA implicit solvation:
   * S. Ehlert, M. Stahn, S. Spicher, S. Grimme, J. Chem. Theory Comput.,
     2021, 17, 4250-4261. DOI: 10.1021/acs.jctc.1c00471
   
   for ddCOSMO and CPCM-X implicit solvation:
   * M. Stahn, S. Ehlert, S. Grimme, J. Phys. Chem. A,
     2023, XX, XXXX-XXXX. DOI: 10.1021/acs.jpca.3c04382
   
   for DFT-D4:
   * E. Caldeweyher, C. Bannwarth and S. Grimme, J. Chem. Phys., 2017,
     147, 034112. DOI: 10.1063/1.4993215
   * E. Caldeweyher, S. Ehlert, A. Hansen, H. Neugebauer, S. Spicher,
     C. Bannwarth and S. Grimme, J. Chem. Phys., 2019, 150, 154122.
     DOI: 10.1063/1.5090222
   * E. Caldeweyher, J.-M. Mewes, S. Ehlert and S. Grimme, Phys. Chem. Chem. Phys.
     2020, 22, 8499-8512. DOI: 10.1039/D0CP00502A
   
   for sTDA-xTB:
   * S. Grimme and C. Bannwarth, J. Chem. Phys., 2016, 145, 054103.
     DOI: 10.1063/1.4959605
   
   in the mass-spec context:
   * V. Asgeirsson, C. Bauer and S. Grimme, Chem. Sci., 2017, 8, 4879.
     DOI: 10.1039/c7sc00601b
   * J. Koopman and S. Grimme, ACS Omega 2019, 4, 12, 15120-15133.
     DOI: 10.1021/acsomega.9b02011
   
   for metadynamics refer to:
   * S. Grimme, J. Chem. Theory Comput., 2019, 155, 2847-2862
     DOI: 10.1021/acs.jctc.9b00143
   
   for SPH calculations refer to:
   * S. Spicher and S. Grimme, J. Chem. Theory Comput., 2021, 17, 1701-1714
     DOI: 10.1021/acs.jctc.0c01306
   
   for ONIOM refer to:
   * C. Plett, A. Katbashev, S. Ehlert, S. Grimme, M. Bursch,
     Phys. Chem. Chem. Phys., 2023, 25, 17860-17868. DOI: 10.1039/D3CP02178E
   
   for DIPRO refer to:
   * J. Kohn, N. Gildemeister, S. Grimme, D. Fazzi, A. Hansen,
     J. Chem. Phys., 2023, just accepted.
   
   for PTB refer to:
   * S. Grimme, M. Mueller, A. Hansen, J. Chem. Phys., 2023, 158, 124111.
     DOI: 10.1063/5.0137838
   
   with help from (in alphabetical order)
   P. Atkinson, C. Bannwarth, F. Bohle, G. Brandenburg, E. Caldeweyher
   M. Checinski, S. Dohm, S. Ehlert, S. Ehrlich, I. Gerasimov, C. Hölzer
   A. Katbashev, J. Kohn, J. Koopman, C. Lavigne, S. Lehtola, F. März, M. Müller,
   F. Musil, H. Neugebauer, J. Pisarek, C. Plett, P. Pracht, F. Pultar,
   J. Seibert, P. Shushkov, S. Spicher, M. Stahn, M. Steiner, T. Strunk,
   J. Stückrath, T. Rose, and J. Unsleber
   
 * started run on 2024/12/20 at 06:53:20.237     
   ID    Z sym.   atoms
    1    6 C      1, 3, 4, 6, 7
    2    7 N      2, 5
    3    1 H      8-16

           -------------------------------------------------
          |                Calculation Setup                |
           -------------------------------------------------

          program call               : xtb C0685.xyz --opt --namespace C0685 --charge +1
          calculation namespace      : C0685
          coordinate file            : C0685.xyz
          omp threads                :                     8


           -------------------------------------------------
          |                 G F N 2 - x T B                 |
           -------------------------------------------------

        Reference                      10.1021/acs.jctc.8b01176
      * Hamiltonian:
        H0-scaling (s, p, d)           1.850000    2.230000    2.230000
        zeta-weighting                 0.500000
      * Dispersion:
        s8                             2.700000
        a1                             0.520000
        a2                             5.000000
        s9                             5.000000
      * Repulsion:
        kExp                           1.500000    1.000000
        rExp                           1.000000
      * Coulomb:
        alpha                          2.000000
        third order                    shell-resolved
        anisotropic                    true
        a3                             3.000000
        a5                             4.000000
        cn-shift                       1.200000
        cn-exp                         4.000000
        max-rad                        5.000000


          ...................................................
          :                      SETUP                      :
          :.................................................:
          :  # basis functions                  37          :
          :  # atomic orbitals                  37          :
          :  # shells                           23          :
          :  # electrons                        38          :
          :  max. iterations                   250          :
          :  Hamiltonian                  GFN2-xTB          :
          :  restarted?                      false          :
          :  GBSA solvation                  false          :
          :  PC potential                    false          :
          :  electronic temp.          300.0000000     K    :
          :  accuracy                    1.0000000          :
          :  -> integral cutoff          0.2500000E+02      :
          :  -> integral neglect         0.1000000E-07      :
          :  -> SCF convergence          0.1000000E-05 Eh   :
          :  -> wf. convergence          0.1000000E-03 e    :
          :  Broyden damping             0.4000000          :
          :  net charge                          1          :
          :  unpaired electrons                  0          :
          ...................................................

 iter      E             dE          RMSdq      gap      omega  full diag
   1    -20.9813057 -0.209813E+02  0.358E+00    5.47       0.0  T
   2    -21.0633600 -0.820543E-01  0.243E+00    4.47       1.0  T
   3    -21.0681799 -0.481991E-02  0.144E+00    4.69       1.0  T
   4    -21.0680480  0.131865E-03  0.235E-01    4.59       1.0  T
   5    -21.0684500 -0.402000E-03  0.120E-01    4.67       1.0  T
   6    -21.0685908 -0.140788E-03  0.429E-02    4.64       1.0  T
   7    -21.0685934 -0.261448E-05  0.173E-02    4.64       1.4  T
   8    -21.0685938 -0.337477E-06  0.652E-03    4.65       3.8  T
   9    -21.0685943 -0.543411E-06  0.186E-03    4.65      13.4  T
  10    -21.0685943 -0.800331E-08  0.651E-04    4.65      38.4  T
  11    -21.0685943 -0.158982E-08  0.148E-04    4.65     169.1  T

   *** convergence criteria satisfied after 11 iterations ***

         #    Occupation            Energy/Eh            Energy/eV
      -------------------------------------------------------------
         1        2.0000           -0.9014071             -24.5285
       ...           ...                  ...                  ...
        13        2.0000           -0.6777475             -18.4424
        14        2.0000           -0.6636744             -18.0595
        15        2.0000           -0.6611706             -17.9914
        16        2.0000           -0.6457383             -17.5714
        17        2.0000           -0.6426258             -17.4867
        18        2.0000           -0.6212985             -16.9064
        19        2.0000           -0.5849085             -15.9162 (HOMO)
        20                         -0.4141828             -11.2705 (LUMO)
        21                         -0.3800975             -10.3430
        22                         -0.2098816              -5.7112
        23                         -0.1462013              -3.9783
        24                         -0.0895166              -2.4359
       ...                                ...                  ...
        37                          0.4573818              12.4460
      -------------------------------------------------------------
                  HL-Gap            0.1707256 Eh            4.6457 eV
             Fermi-level           -0.4995456 Eh          -13.5933 eV

 SCC (total)                   0 d,  0 h,  0 min,  0.010 sec
 SCC setup                      ...        0 min,  0.000 sec (  1.555%)
 Dispersion                     ...        0 min,  0.000 sec (  1.466%)
 classical contributions        ...        0 min,  0.000 sec (  0.605%)
 integral evaluation            ...        0 min,  0.001 sec (  7.193%)
 iterations                     ...        0 min,  0.007 sec ( 68.406%)
 molecular gradient             ...        0 min,  0.002 sec ( 19.706%)
 printout                       ...        0 min,  0.000 sec (  0.903%)

         :::::::::::::::::::::::::::::::::::::::::::::::::::::
         ::                     SUMMARY                     ::
         :::::::::::::::::::::::::::::::::::::::::::::::::::::
         :: total energy             -20.758764178549 Eh    ::
         :: gradient norm              0.039419461032 Eh/a0 ::
         :: HOMO-LUMO gap              4.645680842799 eV    ::
         ::.................................................::
         :: SCC energy               -21.068564466836 Eh    ::
         :: -> isotropic ES            0.088812826883 Eh    ::
         :: -> anisotropic ES         -0.010832635286 Eh    ::
         :: -> anisotropic XC          0.015135744302 Eh    ::
         :: -> dispersion             -0.009415629668 Eh    ::
         :: repulsion energy           0.309800288286 Eh    ::
         :: add. restraining           0.000000000000 Eh    ::
         :: total charge               1.000000000000 e     ::
         :::::::::::::::::::::::::::::::::::::::::::::::::::::

      ----------------------------------------------------------- 
     |                   =====================                   |
     |                        A N C O P T                        |
     |                   =====================                   |
     |               Approximate Normal Coordinate               |
     |                Rational Function Optimizer                |
      ----------------------------------------------------------- 
      ----------------------------------------------------------- 
     |                   =====================                   |
     |                        A N C O P T                        |
     |                   =====================                   |
     |               Approximate Normal Coordinate               |
     |                Rational Function Optimizer                |
      ----------------------------------------------------------- 

          ...................................................
          :                      SETUP                      :
          :.................................................:
          :   optimization level            normal          :
          :   max. optcycles                   200          :
          :   ANC micro-cycles                  20          :
          :   degrees of freedom                42          :
          :.................................................:
          :   RF solver                   davidson          :
          :   write xtbopt.log                true          :
          :   linear?                        false          :
          :   energy convergence         0.5000000E-05 Eh   :
          :   grad. convergence          0.1000000E-02 Eh/α :
          :   maxmium RF displ.          1.0000000          :
          :   Hlow (freq-cutoff)         0.1000000E-01      :
          :   Hmax (freq-cutoff)         5.0000000          :
          :   S6 in model hess.         20.0000000          :
          ...................................................

generating ANC from exact Hessian ...
Using Lindh-Hessian (1995)
 Shifting diagonal of input Hessian by    4.1153287843165819E-003
 Lowest  eigenvalues of input Hessian
    0.000000    0.000000    0.000000    0.000000    0.000000    0.000000
    0.010000    0.013400    0.015827    0.016449    0.018564    0.031252
    0.033484    0.054309    0.056273    0.061825    0.071738    0.077785
 Highest eigenvalues
    1.213515    1.677582    1.904649    2.008904    2.101244    2.127539


........................................................................
.............................. CYCLE    1 ..............................
........................................................................

 iter      E             dE          RMSdq      gap      omega  full diag
   1    -21.0685943 -0.210686E+02  0.741E-05    4.65       0.0  T
   2    -21.0685943 -0.260911E-10  0.305E-05    4.65     819.4  T
   3    -21.0685943 -0.139266E-11  0.207E-05    4.65    1205.7  T
     SCC iter.                  ...        0 min,  0.002 sec
     gradient                   ...        0 min,  0.002 sec
 * total energy  :   -20.7587642 Eh     change       -0.2074785E-10 Eh
   gradient norm :     0.0394196 Eh/α   predicted     0.0000000E+00 (-100.00%)
   displ. norm   :     0.1498530 α      lambda       -0.4097925E-02
   maximum displ.:     0.0877412 α      in ANC's #7, #25, #23, ...

........................................................................
.............................. CYCLE    2 ..............................
........................................................................

 iter      E             dE          RMSdq      gap      omega  full diag
   1    -21.0846695 -0.210847E+02  0.215E-01    4.72       0.0  T
   2    -21.0847343 -0.647455E-04  0.123E-01    4.70       1.0  T
   3    -21.0847322  0.205284E-05  0.433E-02    4.71       1.0  T
   4    -21.0847354 -0.321968E-05  0.131E-02    4.70       1.9  T
   5    -21.0847377 -0.229979E-05  0.262E-03    4.70       9.6  T
   6    -21.0847377 -0.223524E-08  0.130E-03    4.70      19.2  T
   7    -21.0847377 -0.334156E-08  0.357E-04    4.70      70.0  T
   8    -21.0847377 -0.161794E-08  0.134E-04    4.70     186.8  T
     SCC iter.                  ...        0 min,  0.003 sec
     gradient                   ...        0 min,  0.002 sec
 * total energy  :   -20.7614830 Eh     change       -0.2718810E-02 Eh
   gradient norm :     0.0159890 Eh/α   predicted    -0.2094971E-02 ( -22.95%)
   displ. norm   :     0.0934339 α      lambda       -0.9413213E-03
   maximum displ.:     0.0533988 α      in ANC's #7, #14, #25, ...

........................................................................
.............................. CYCLE    3 ..............................
........................................................................

 iter      E             dE          RMSdq      gap      omega  full diag
   1    -21.0906306 -0.210906E+02  0.121E-01    4.73       0.0  T
   2    -21.0906543 -0.236989E-04  0.696E-02    4.71       1.0  T
   3    -21.0906527  0.154784E-05  0.277E-02    4.72       1.0  T
   4    -21.0906552 -0.246835E-05  0.954E-03    4.72       2.6  T
   5    -21.0906563 -0.109284E-05  0.134E-03    4.72      18.6  T
   6    -21.0906563 -0.157306E-08  0.803E-04    4.72      31.1  T
   7    -21.0906563 -0.129240E-08  0.237E-04    4.72     105.6  T
     SCC iter.                  ...        0 min,  0.003 sec
     gradient                   ...        0 min,  0.001 sec
 * total energy  :   -20.7620175 Eh     change       -0.5345604E-03 Eh
   gradient norm :     0.0061485 Eh/α   predicted    -0.4747708E-03 ( -11.18%)
   displ. norm   :     0.0336637 α      lambda       -0.1002019E-03
   maximum displ.:     0.0257739 α      in ANC's #14, #7, #20, ...

........................................................................
.............................. CYCLE    4 ..............................
........................................................................

 iter      E             dE          RMSdq      gap      omega  full diag
   1    -21.0903555 -0.210904E+02  0.404E-02    4.71       0.0  T
   2    -21.0903560 -0.537005E-06  0.232E-02    4.71       1.1  T
   3    -21.0903559  0.143166E-06  0.449E-03    4.71       5.6  T
   4    -21.0903561 -0.195274E-06  0.116E-03    4.71      21.6  T
   5    -21.0903561 -0.184982E-07  0.343E-04    4.71      73.0  T
   6    -21.0903561 -0.107470E-09  0.112E-04    4.71     223.3  T
     SCC iter.                  ...        0 min,  0.002 sec
     gradient                   ...        0 min,  0.002 sec
 * total energy  :   -20.7620886 Eh     change       -0.7104118E-04 Eh
   gradient norm :     0.0038395 Eh/α   predicted    -0.5015787E-04 ( -29.40%)
   displ. norm   :     0.0262785 α      lambda       -0.4564169E-04
   maximum displ.:     0.0203646 α      in ANC's #14, #20, #12, ...

........................................................................
.............................. CYCLE    5 ..............................
........................................................................

 iter      E             dE          RMSdq      gap      omega  full diag
   1    -21.0894981 -0.210895E+02  0.336E-02    4.70       0.0  T
   2    -21.0894985 -0.345627E-06  0.193E-02    4.70       1.3  T
   3    -21.0894984  0.580351E-07  0.353E-03    4.70       7.1  T
   4    -21.0894985 -0.877325E-07  0.114E-03    4.70      21.9  T
   5    -21.0894985 -0.138364E-07  0.326E-04    4.70      76.6  T
   6    -21.0894985 -0.251958E-10  0.656E-05    4.70     381.0  T
     SCC iter.                  ...        0 min,  0.002 sec
     gradient                   ...        0 min,  0.002 sec
 * total energy  :   -20.7621135 Eh     change       -0.2490912E-04 Eh
   gradient norm :     0.0012603 Eh/α   predicted    -0.2283717E-04 (  -8.32%)
   displ. norm   :     0.0048003 α      lambda       -0.1719084E-05
   maximum displ.:     0.0022653 α      in ANC's #14, #4, #10, ...

........................................................................
.............................. CYCLE    6 ..............................
........................................................................

 iter      E             dE          RMSdq      gap      omega  full diag
   1    -21.0894050 -0.210894E+02  0.653E-03    4.70       0.0  T
   2    -21.0894052 -0.106501E-06  0.382E-03    4.70       6.5  T
   3    -21.0894052 -0.338227E-08  0.190E-03    4.70      13.1  T
   4    -21.0894052 -0.108000E-07  0.663E-04    4.70      37.7  T
   5    -21.0894052 -0.428033E-08  0.110E-04    4.70     227.7  T
     SCC iter.                  ...        0 min,  0.002 sec
     gradient                   ...        0 min,  0.002 sec
 * total energy  :   -20.7621147 Eh     change       -0.1187014E-05 Eh
   gradient norm :     0.0003062 Eh/α   predicted    -0.8610599E-06 ( -27.46%)
   displ. norm   :     0.0017192 α      lambda       -0.1504933E-06
   maximum displ.:     0.0008196 α      in ANC's #14, #7, #4, ...

   *** GEOMETRY OPTIMIZATION CONVERGED AFTER 6 ITERATIONS ***

------------------------------------------------------------------------
 total energy gain   :        -0.0033505 Eh       -2.1025 kcal/mol
 total RMSD          :         0.0687532 a0        0.0364 Å
 total power (kW/mol):        -1.4661262 (step) -253.4925 (real)
------------------------------------------------------------------------

 ANCopt (total)                0 d,  0 h,  0 min,  0.035 sec
 optimizer setup                ...        0 min,  0.000 sec (  0.199%)
 model hessian                  ...        0 min,  0.004 sec ( 10.969%)
 ANC generation                 ...        0 min,  0.000 sec (  0.848%)
 coordinate transformation      ...        0 min,  0.000 sec (  0.101%)
 single point calculation       ...        0 min,  0.029 sec ( 83.466%)
 optimization log               ...        0 min,  0.000 sec (  0.911%)
 hessian update                 ...        0 min,  0.000 sec (  0.568%)
 rational function              ...        0 min,  0.001 sec (  2.198%)

================
 final structure:
================
16
 xtb: 6.7.1 (edcfbbe)
C            1.52261970223073       -1.52505491681118       -0.00111342539787
N            0.35480635360342       -0.68170178766686       -0.00018540507571
C           -0.93654264036449       -1.13379540237718       -0.00027727424749
C           -1.75148469877194       -0.04822609730056        0.00064164504840
N           -0.93755366805941        1.04726261598444        0.00122953757700
C            0.34200623200068        0.65333369248745        0.00070428511315
C            1.50652379513061        1.55837739856243        0.00103468344550
H            2.12660924893141       -1.34296722173801       -0.89063480181628
H            2.12974791411605       -1.34059545631996        0.88575291799272
H            1.21022035176672       -2.56657775800750        0.00082985687752
H           -1.17914865349343       -2.17648536565060       -0.00094889931953
H           -2.81950061798733        0.02006418691880        0.00090600203458
H           -1.25025718784823        2.00834085084007        0.00196546858568
H            1.48645518032307        2.20429999142402       -0.87682451876894
H            1.48741983837442        2.20244967566593        0.88028142575203
H            2.43874885004772        1.00268559398871       -0.00009149780077

 Bond Distances (Angstroems)
 ---------------------------
C1-N2=1.4405         C1-H8=1.0905         C1-H9=1.0905         C1-H10=1.0874        N2-C1=1.4405         N2-C3=1.3682         
N2-C6=1.3351         C3-N2=1.3682         C3-C4=1.3574         C3-H11=1.0705        C4-C3=1.3574         C4-N5=1.3648         
C4-H12=1.0702        N5-C4=1.3648         N5-C6=1.3388         N5-H13=1.0107        C6-N2=1.3351         C6-N5=1.3388         
C6-C7=1.4749         C7-C6=1.4749         C7-H14=1.0901        C7-H15=1.0901        C7-H16=1.0853        H8-C1=1.0905         
H9-C1=1.0905         H10-C1=1.0874        H11-C3=1.0705        H12-C4=1.0702        H13-N5=1.0107        H14-C7=1.0901        
H15-C7=1.0901        H16-C7=1.0853        
 C  H  Rav=1.0843 sigma=0.0082  Rmin=1.0702  Rmax=1.0905     8
 C  C  Rav=1.4161 sigma=0.0587  Rmin=1.3574  Rmax=1.4749     2
 N  H  Rav=1.0107 sigma=0.0000  Rmin=1.0107  Rmax=1.0107     1
 N  C  Rav=1.3695 sigma=0.0379  Rmin=1.3351  Rmax=1.4405     5

 selected bond angles (degree)
 --------------------
H8-C1-N2=110.60                H9-C1-N2=110.60                H9-C1-H8=109.07                H10-C1-N2=109.14               
H10-C1-H8=108.69               H10-C1-H9=108.69               C3-N2-C1=124.87                C6-N2-C1=126.38                
C6-N2-C3=108.75                C4-C3-N2=107.60                H11-C3-N2=122.39               H11-C3-C4=130.01               
N5-C4-C3=106.49                H12-C4-C3=130.55               H12-C4-N5=122.95               C6-N5-C4=109.50                
H13-N5-C4=125.37               H13-N5-C6=125.13               N5-C6-N2=107.66                C7-C6-N2=127.30                
C7-C6-N5=125.03                H14-C7-C6=110.42               H15-C7-C6=110.42               H15-C7-H14=107.41              
H16-C7-C6=111.35               H16-C7-H14=108.56              H16-C7-H15=108.57              

 selected dihedral angles (degree)
 ---------------------------------
C3-N2-C1-H8=119.38            C3-N2-C1-H9=240.32            C3-N2-C1-H10=359.85           C6-N2-C1-H8=299.39            
C6-N2-C1-H9= 60.33            C6-N2-C1-H10=179.86           C4-C3-N2-C1=180.01            C4-C3-N2-C6=  0.00            
H11-C3-N2-C1=  0.00           H11-C3-N2-C6=180.00           N5-C4-C3-N2=  0.00            N5-C4-C3-H11=180.00           
H12-C4-C3-N2=180.00           H12-C4-C3-H11=  0.00          C6-N5-C4-C3=  0.00            C6-N5-C4-H12=180.00           
H13-N5-C4-C3=180.00           H13-N5-C4-H12=  0.00          N5-C6-N2-C1=179.99            N5-C6-N2-C3=  0.00            
C7-C6-N2-C1=  0.00            C7-C6-N2-C3=180.00            N2-C6-N5-C4=  0.00            N2-C6-N5-H13=180.00           
C7-C6-N5-C4=180.00            C7-C6-N5-H13=  0.00           H14-C7-C6-N2=120.71           H14-C7-C6-N5=300.71           
H15-C7-C6-N2=239.35           H15-C7-C6-N5= 59.35           H16-C7-C6-N2=  0.03           H16-C7-C6-N5=180.03           
           -------------------------------------------------
          |                Final Singlepoint                |
           -------------------------------------------------

          ...................................................
          :                      SETUP                      :
          :.................................................:
          :  # basis functions                  37          :
          :  # atomic orbitals                  37          :
          :  # shells                           23          :
          :  # electrons                        38          :
          :  max. iterations                   250          :
          :  Hamiltonian                  GFN2-xTB          :
          :  restarted?                      false          :
          :  GBSA solvation                  false          :
          :  PC potential                    false          :
          :  electronic temp.          300.0000000     K    :
          :  accuracy                    1.0000000          :
          :  -> integral cutoff          0.2500000E+02      :
          :  -> integral neglect         0.1000000E-07      :
          :  -> SCF convergence          0.1000000E-05 Eh   :
          :  -> wf. convergence          0.1000000E-03 e    :
          :  Broyden damping             0.4000000          :
          :  net charge                          1          :
          :  unpaired electrons                  0          :
          ...................................................

 iter      E             dE          RMSdq      gap      omega  full diag
   1    -21.0894052 -0.210894E+02  0.625E-05    4.70       0.0  T
   2    -21.0894052 -0.134683E-10  0.366E-05    4.70     682.5  T
   3    -21.0894052 -0.122995E-10  0.194E-05    4.70    1289.5  T

   *** convergence criteria satisfied after 3 iterations ***

         #    Occupation            Energy/Eh            Energy/eV
      -------------------------------------------------------------
         1        2.0000           -0.9049978             -24.6262
       ...           ...                  ...                  ...
        13        2.0000           -0.6794952             -18.4900
        14        2.0000           -0.6632020             -18.0466
        15        2.0000           -0.6590214             -17.9329
        16        2.0000           -0.6445728             -17.5397
        17        2.0000           -0.6427227             -17.4894
        18        2.0000           -0.6227701             -16.9464
        19        2.0000           -0.5842035             -15.8970 (HOMO)
        20                         -0.4114708             -11.1967 (LUMO)
        21                         -0.3761613             -10.2359
        22                         -0.1915286              -5.2118
        23                         -0.1355576              -3.6887
        24                         -0.0714552              -1.9444
       ...                                ...                  ...
        37                          0.4648795              12.6500
      -------------------------------------------------------------
                  HL-Gap            0.1727327 Eh            4.7003 eV
             Fermi-level           -0.4978371 Eh          -13.5468 eV

 SCC (total)                   0 d,  0 h,  0 min,  0.004 sec
 SCC setup                      ...        0 min,  0.000 sec (  2.661%)
 Dispersion                     ...        0 min,  0.000 sec (  2.888%)
 classical contributions        ...        0 min,  0.000 sec (  1.083%)
 integral evaluation            ...        0 min,  0.001 sec ( 14.627%)
 iterations                     ...        0 min,  0.001 sec ( 35.278%)
 molecular gradient             ...        0 min,  0.001 sec ( 41.290%)
 printout                       ...        0 min,  0.000 sec (  1.789%)

         :::::::::::::::::::::::::::::::::::::::::::::::::::::
         ::                     SUMMARY                     ::
         :::::::::::::::::::::::::::::::::::::::::::::::::::::
         :: total energy             -20.762114686426 Eh    ::
         :: gradient norm              0.000306739069 Eh/a0 ::
         :: HOMO-LUMO gap              4.700297026168 eV    ::
         ::.................................................::
         :: SCC energy               -21.089375949981 Eh    ::
         :: -> isotropic ES            0.089042115215 Eh    ::
         :: -> anisotropic ES         -0.010658609068 Eh    ::
         :: -> anisotropic XC          0.014097362023 Eh    ::
         :: -> dispersion             -0.009448180321 Eh    ::
         :: repulsion energy           0.327261263555 Eh    ::
         :: add. restraining           0.000000000000 Eh    ::
         :: total charge               1.000000000000 e     ::
         :::::::::::::::::::::::::::::::::::::::::::::::::::::

           -------------------------------------------------
          |                Property Printout                |
           -------------------------------------------------

    * Orbital Energies and Occupations

         #    Occupation            Energy/Eh            Energy/eV
      -------------------------------------------------------------
         1        2.0000           -0.9049978             -24.6262
       ...           ...                  ...                  ...
         7        2.0000           -0.7609858             -20.7075
         8        2.0000           -0.7576032             -20.6154
         9        2.0000           -0.7368764             -20.0514
        10        2.0000           -0.7071782             -19.2433
        11        2.0000           -0.6889309             -18.7468
        12        2.0000           -0.6825438             -18.5730
        13        2.0000           -0.6794952             -18.4900
        14        2.0000           -0.6632020             -18.0466
        15        2.0000           -0.6590214             -17.9329
        16        2.0000           -0.6445728             -17.5397
        17        2.0000           -0.6427227             -17.4894
        18        2.0000           -0.6227701             -16.9464
        19        2.0000           -0.5842035             -15.8970 (HOMO)
        20                         -0.4114708             -11.1967 (LUMO)
        21                         -0.3761613             -10.2359
        22                         -0.1915286              -5.2118
        23                         -0.1355576              -3.6887
        24                         -0.0714552              -1.9444
        25                         -0.0491983              -1.3388
        26                         -0.0330188              -0.8985
        27                         -0.0182787              -0.4974
        28                          0.0053068               0.1444
        29                          0.0257051               0.6995
        30                          0.0454947               1.2380
       ...                                ...                  ...
        37                          0.4648795              12.6500
      -------------------------------------------------------------
                  HL-Gap            0.1727327 Eh            4.7003 eV
             Fermi-level           -0.4978371 Eh          -13.5468 eV

     #   Z          covCN         q      C6AA      α(0)
     1   6 C        3.692    -0.086    22.340     6.763
     2   7 N        2.873     0.064    20.117     6.662
     3   6 C        3.058    -0.007    28.137     8.699
     4   6 C        3.026     0.005    27.876     8.660
     5   7 N        2.840    -0.040    22.009     6.968
     6   6 C        3.081     0.121    25.259     8.239
     7   6 C        3.754    -0.145    23.365     6.892
     8   1 H        0.924     0.103     1.762     2.076
     9   1 H        0.924     0.103     1.762     2.076
    10   1 H        0.925     0.108     1.713     2.047
    11   1 H        0.926     0.112     1.680     2.027
    12   1 H        0.927     0.114     1.662     2.016
    13   1 H        0.860     0.226     0.984     1.554
    14   1 H        0.925     0.110     1.697     2.037
    15   1 H        0.925     0.110     1.697     2.037
    16   1 H        0.925     0.103     1.755     2.072

 Mol. C6AA /au·bohr⁶  :       2093.136358
 Mol. C8AA /au·bohr⁸  :      47539.609958
 Mol. α(0) /au        :         70.825161


Wiberg/Mayer (AO) data.
largest (>0.10) Wiberg bond orders for each atom

 ---------------------------------------------------------------------------
     #   Z sym  total        # sym  WBO       # sym  WBO       # sym  WBO
 ---------------------------------------------------------------------------
     1   6 C    3.933 --     2 N    0.989    10 H    0.974     9 H    0.964
                             8 H    0.964
     2   7 N    3.709 --     6 C    1.348     3 C    1.206     1 C    0.989
     3   6 C    3.948 --     4 C    1.618     2 N    1.206    11 H    0.960
     4   6 C    3.946 --     3 C    1.618     5 N    1.218    12 H    0.960
     5   7 N    3.642 --     6 C    1.326     4 C    1.218    13 H    0.923
     6   6 C    3.951 --     2 N    1.348     5 N    1.326     7 C    1.049
     7   6 C    3.973 --     6 C    1.049    16 H    0.971    14 H    0.947
                            15 H    0.947
     8   1 H    0.989 --     1 C    0.964
     9   1 H    0.989 --     1 C    0.964
    10   1 H    0.988 --     1 C    0.974
    11   1 H    0.987 --     3 C    0.960
    12   1 H    0.987 --     4 C    0.960
    13   1 H    0.949 --     5 N    0.923
    14   1 H    0.988 --     7 C    0.947
    15   1 H    0.988 --     7 C    0.947
    16   1 H    0.989 --     7 C    0.971
 ---------------------------------------------------------------------------

Topologies differ in total number of bonds
Writing topology from bond orders to xtbtopo.mol

molecular dipole:
                 x           y           z       tot (Debye)
 q only:        0.301       0.290       0.001
   full:        0.201       0.448       0.001       1.247
molecular quadrupole (traceless):
                xx          xy          yy          xz          yz          zz
 q only:        4.713      -1.774       5.240      -0.004       0.011      -9.953
  q+dip:        3.956      -2.819       6.687      -0.005       0.013     -10.643
   full:        3.801      -2.632       5.929      -0.005       0.012      -9.731

           -------------------------------------------------
          |                Geometry Summary                 |
           -------------------------------------------------

      molecular mass/u    :       97.1385527
   center of mass at/Å    :        0.0588586      -0.0084220       0.0002858
  moments of inertia/u·Å² :        0.1326166E+03   0.1528242E+03   0.2791483E+03
rotational constants/cm⁻¹ :        0.1271155E+00   0.1103073E+00   0.6038953E-01

 * 16 selected distances

     #   Z          #   Z                                           value/Å
     1   6 C        2   7 N                                       1.4404977
     2   7 N        3   6 C                                       1.3682000
     3   6 C        4   6 C                                       1.3574213
     4   6 C        5   7 N                                       1.3647637
     2   7 N        6   6 C                                       1.3350973
     5   7 N        6   6 C                                       1.3388257
     6   6 C        7   6 C                                       1.4748579 (max)
     1   6 C        8   1 H                                       1.0905080
     1   6 C        9   1 H                                       1.0904871
     1   6 C       10   1 H                                       1.0873671
     3   6 C       11   1 H                                       1.0705422
     4   6 C       12   1 H                                       1.0701971
     5   7 N       13   1 H                                       1.0106709 (min)
     7   6 C       14   1 H                                       1.0900714
     7   6 C       15   1 H                                       1.0900776
     7   6 C       16   1 H                                       1.0852826

 * 4 distinct bonds (by element types)

   Z      Z             #   av. dist./Å        max./Å        min./Å
   1 H    6 C           8     1.0843167     1.0905080     1.0701971
   6 C    6 C           2     1.4161396     1.4748579     1.3574213
   1 H    7 N           1     1.0106709     1.0106709     1.0106709
   6 C    7 N           5     1.3694769     1.4404977     1.3350973


optimized geometry written to: xtbopt.xyz


           -------------------------------------------------
          | TOTAL ENERGY              -20.762114686426 Eh   |
          | GRADIENT NORM               0.000306739069 Eh/α |
          | HOMO-LUMO GAP               4.700297026168 eV   |
           -------------------------------------------------

------------------------------------------------------------------------
 * finished run on 2024/12/20 at 06:53:20.304     
------------------------------------------------------------------------
 total:
 * wall-time:     0 d,  0 h,  0 min,  0.067 sec
 *  cpu-time:     0 d,  0 h,  0 min,  0.437 sec
 * ratio c/w:     6.537 speedup
 SCF:
 * wall-time:     0 d,  0 h,  0 min,  0.010 sec
 *  cpu-time:     0 d,  0 h,  0 min,  0.068 sec
 * ratio c/w:     6.835 speedup
 ANC optimizer:
 * wall-time:     0 d,  0 h,  0 min,  0.039 sec
 *  cpu-time:     0 d,  0 h,  0 min,  0.272 sec
 * ratio c/w:     7.003 speedup

