31
 energy: -49.264030802265 gnorm: 0.000432497042 xtb: 6.7.1 (edcfbbe)
C            0.42206914492877       -0.09631929721325        0.48555840499132
N            0.36371775331899       -1.31807991150547       -0.27053465885137
C            0.14003418910629       -1.40810988525033       -1.61117955862782
C            0.18726499658393       -2.72821252545377       -1.94242906171173
N            0.43192173906502       -3.42477367795523       -0.79851821976929
C            0.54385687852271       -2.54864507267616        0.19840297768056
C            0.69213996766831       -4.84115580228354       -0.70495787201581
C            2.19296114507745       -5.11840888657453       -0.92360838695231
C            3.01331968318015       -4.35380747653654        0.07680617598946
C            3.24151539181303       -4.87343536618627        1.34796985284846
C            3.92814312511153       -4.13713697355010        2.29509604935185
C            4.36989857330061       -2.86260225815624        1.96810297191462
C            4.16897903617598       -2.33329880483453        0.70144426559954
C            3.49265096981204       -3.08479543320178       -0.24040802960909
N            5.03976601834806       -2.05513499832079        2.97126980839995
O            5.43148585178398       -2.61627678558923        3.96415358075118
O            5.12882846003423       -0.87042100103720        2.73961265190566
H            0.44014635733276       -0.31771192849602        1.55033729963840
H           -0.44668038545047        0.52295332739326        0.26266834310805
H            1.32222134535955        0.46379699380560        0.22652157198195
H           -0.03675314847123       -0.54884508162676       -2.22574857101124
H            0.05626042536369       -3.20473802660836       -2.89274437008972
H            0.73111446155050       -2.80006215040227        1.22412449667032
H            0.39032156250628       -5.18717116363507        0.28537678018907
H            0.10085247404287       -5.35962424982314       -1.46121091049088
H            2.35654734267340       -6.18974979427754       -0.81284752749786
H            2.47142551058498       -4.83024743635261       -1.93800573092361
H            2.88980705015883       -5.86369613301983        1.59353410147173
H            4.12336662967485       -4.52739163291366        3.28208971755663
H            4.55065518933855       -1.34997178824562        0.47373055645111
H            3.35570226150252       -2.69119677946481       -1.23734670895054
