      -----------------------------------------------------------      
     |                   =====================                   |     
     |                           x T B                           |     
     |                   =====================                   |     
     |                         S. Grimme                         |     
     |          Mulliken Center for Theoretical Chemistry        |     
     |                    University of Bonn                     |     
      -----------------------------------------------------------      

   * xtb version 6.7.1 (edcfbbe) compiled by 'conda@3ef47c1a292c' on 2024-11-25

   xtb is free software: you can redistribute it and/or modify it under
   the terms of the GNU Lesser General Public License as published by
   the Free Software Foundation, either version 3 of the License, or
   (at your option) any later version.
   
   xtb is distributed in the hope that it will be useful,
   but WITHOUT ANY WARRANTY; without even the implied warranty of
   MERCHANTABILITY or FITNESS FOR A PARTICULAR PURPOSE.  See the
   GNU Lesser General Public License for more details.
   
   Cite this work as:
   * C. Bannwarth, E. Caldeweyher, S. Ehlert, A. Hansen, P. Pracht,
     J. Seibert, S. Spicher, S. Grimme, WIREs Comput. Mol. Sci., 2020, 11,
     e01493. DOI: 10.1002/wcms.1493
   
   for GFN2-xTB:
   * C. Bannwarth, S. Ehlert and S. Grimme., J. Chem. Theory Comput., 2019,
     15, 1652-1671. DOI: 10.1021/acs.jctc.8b01176
   for GFN1-xTB:
   * S. Grimme, C. Bannwarth, P. Shushkov, J. Chem. Theory Comput., 2017,
     13, 1989-2009. DOI: 10.1021/acs.jctc.7b00118
   for GFN0-xTB:
   * P. Pracht, E. Caldeweyher, S. Ehlert, S. Grimme, ChemRxiv, 2019, preprint.
     DOI: 10.26434/chemrxiv.8326202.v1
   for GFN-FF:
   * S. Spicher and S. Grimme, Angew. Chem. Int. Ed., 2020, 59, 15665-15673.
     DOI: 10.1002/anie.202004239
   
   for ALPB and GBSA implicit solvation:
   * S. Ehlert, M. Stahn, S. Spicher, S. Grimme, J. Chem. Theory Comput.,
     2021, 17, 4250-4261. DOI: 10.1021/acs.jctc.1c00471
   
   for ddCOSMO and CPCM-X implicit solvation:
   * M. Stahn, S. Ehlert, S. Grimme, J. Phys. Chem. A,
     2023, XX, XXXX-XXXX. DOI: 10.1021/acs.jpca.3c04382
   
   for DFT-D4:
   * E. Caldeweyher, C. Bannwarth and S. Grimme, J. Chem. Phys., 2017,
     147, 034112. DOI: 10.1063/1.4993215
   * E. Caldeweyher, S. Ehlert, A. Hansen, H. Neugebauer, S. Spicher,
     C. Bannwarth and S. Grimme, J. Chem. Phys., 2019, 150, 154122.
     DOI: 10.1063/1.5090222
   * E. Caldeweyher, J.-M. Mewes, S. Ehlert and S. Grimme, Phys. Chem. Chem. Phys.
     2020, 22, 8499-8512. DOI: 10.1039/D0CP00502A
   
   for sTDA-xTB:
   * S. Grimme and C. Bannwarth, J. Chem. Phys., 2016, 145, 054103.
     DOI: 10.1063/1.4959605
   
   in the mass-spec context:
   * V. Asgeirsson, C. Bauer and S. Grimme, Chem. Sci., 2017, 8, 4879.
     DOI: 10.1039/c7sc00601b
   * J. Koopman and S. Grimme, ACS Omega 2019, 4, 12, 15120-15133.
     DOI: 10.1021/acsomega.9b02011
   
   for metadynamics refer to:
   * S. Grimme, J. Chem. Theory Comput., 2019, 155, 2847-2862
     DOI: 10.1021/acs.jctc.9b00143
   
   for SPH calculations refer to:
   * S. Spicher and S. Grimme, J. Chem. Theory Comput., 2021, 17, 1701-1714
     DOI: 10.1021/acs.jctc.0c01306
   
   for ONIOM refer to:
   * C. Plett, A. Katbashev, S. Ehlert, S. Grimme, M. Bursch,
     Phys. Chem. Chem. Phys., 2023, 25, 17860-17868. DOI: 10.1039/D3CP02178E
   
   for DIPRO refer to:
   * J. Kohn, N. Gildemeister, S. Grimme, D. Fazzi, A. Hansen,
     J. Chem. Phys., 2023, just accepted.
   
   for PTB refer to:
   * S. Grimme, M. Mueller, A. Hansen, J. Chem. Phys., 2023, 158, 124111.
     DOI: 10.1063/5.0137838
   
   with help from (in alphabetical order)
   P. Atkinson, C. Bannwarth, F. Bohle, G. Brandenburg, E. Caldeweyher
   M. Checinski, S. Dohm, S. Ehlert, S. Ehrlich, I. Gerasimov, C. Hölzer
   A. Katbashev, J. Kohn, J. Koopman, C. Lavigne, S. Lehtola, F. März, M. Müller,
   F. Musil, H. Neugebauer, J. Pisarek, C. Plett, P. Pracht, F. Pultar,
   J. Seibert, P. Shushkov, S. Spicher, M. Stahn, M. Steiner, T. Strunk,
   J. Stückrath, T. Rose, and J. Unsleber
   
 * started run on 2024/12/20 at 06:53:51.464     
   ID    Z sym.   atoms
    1    6 C      1-6, 8-13, 17-28
    2   16 S      7, 14
    3    8 O      15, 16
    4    1 H      29-47

           -------------------------------------------------
          |                Calculation Setup                |
           -------------------------------------------------

          program call               : xtb C0699.xyz --opt --namespace C0699 --charge +1
          calculation namespace      : C0699
          coordinate file            : C0699.xyz
          omp threads                :                     8


           -------------------------------------------------
          |                 G F N 2 - x T B                 |
           -------------------------------------------------

        Reference                      10.1021/acs.jctc.8b01176
      * Hamiltonian:
        H0-scaling (s, p, d)           1.850000    2.230000    2.230000
        zeta-weighting                 0.500000
      * Dispersion:
        s8                             2.700000
        a1                             0.520000
        a2                             5.000000
        s9                             5.000000
      * Repulsion:
        kExp                           1.500000    1.000000
        rExp                           1.000000
      * Coulomb:
        alpha                          2.000000
        third order                    shell-resolved
        anisotropic                    true
        a3                             3.000000
        a5                             4.000000
        cn-shift                       1.200000
        cn-exp                         4.000000
        max-rad                        5.000000


          ...................................................
          :                      SETUP                      :
          :.................................................:
          :  # basis functions                 143          :
          :  # atomic orbitals                 141          :
          :  # shells                           77          :
          :  # electrons                       138          :
          :  max. iterations                   250          :
          :  Hamiltonian                  GFN2-xTB          :
          :  restarted?                      false          :
          :  GBSA solvation                  false          :
          :  PC potential                    false          :
          :  electronic temp.          300.0000000     K    :
          :  accuracy                    1.0000000          :
          :  -> integral cutoff          0.2500000E+02      :
          :  -> integral neglect         0.1000000E-07      :
          :  -> SCF convergence          0.1000000E-05 Eh   :
          :  -> wf. convergence          0.1000000E-03 e    :
          :  Broyden damping             0.4000000          :
          :  net charge                          1          :
          :  unpaired electrons                  0          :
          ...................................................

 iter      E             dE          RMSdq      gap      omega  full diag
   1    -76.2825686 -0.762826E+02  0.517E+00    3.83       0.0  T
   2    -76.3387713 -0.562027E-01  0.325E+00    2.94       1.0  T
   3    -76.2262391  0.112532E+00  0.157E+00    2.95       1.0  T
   4    -76.3606480 -0.134409E+00  0.435E-01    2.68       1.0  T
   5    -76.3656310 -0.498305E-02  0.192E-01    2.77       1.0  T
   6    -76.3662251 -0.594094E-03  0.906E-02    2.77       1.0  T
   7    -76.3664158 -0.190620E-03  0.450E-02    2.78       1.0  T
   8    -76.3664192 -0.348693E-05  0.223E-02    2.78       1.0  T
   9    -76.3664300 -0.107461E-04  0.629E-03    2.78       2.3  T
  10    -76.3664305 -0.483126E-06  0.339E-03    2.78       4.3  T
  11    -76.3664305 -0.752143E-07  0.173E-03    2.78       8.4  T
  12    -76.3664306 -0.896909E-07  0.509E-04    2.78      28.6  T
  13    -76.3664306 -0.336101E-09  0.210E-04    2.78      69.6  T

   *** convergence criteria satisfied after 13 iterations ***

         #    Occupation            Energy/Eh            Energy/eV
      -------------------------------------------------------------
         1        2.0000           -0.9121593             -24.8211
       ...           ...                  ...                  ...
        63        2.0000           -0.5440562             -14.8045
        64        2.0000           -0.5421699             -14.7532
        65        2.0000           -0.5365570             -14.6005
        66        2.0000           -0.5334127             -14.5149
        67        2.0000           -0.5263203             -14.3219
        68        2.0000           -0.5252543             -14.2929
        69        2.0000           -0.5123783             -13.9425 (HOMO)
        70                         -0.4102719             -11.1641 (LUMO)
        71                         -0.3997125             -10.8767
        72                         -0.3885831             -10.5739
        73                         -0.3841423             -10.4530
        74                         -0.3730864             -10.1522
       ...                                ...                  ...
       141                          1.0297457              28.0208
      -------------------------------------------------------------
                  HL-Gap            0.1021065 Eh            2.7785 eV
             Fermi-level           -0.4613251 Eh          -12.5533 eV

 SCC (total)                   0 d,  0 h,  0 min,  0.052 sec
 SCC setup                      ...        0 min,  0.000 sec (  0.380%)
 Dispersion                     ...        0 min,  0.001 sec (  1.480%)
 classical contributions        ...        0 min,  0.000 sec (  0.170%)
 integral evaluation            ...        0 min,  0.005 sec (  9.407%)
 iterations                     ...        0 min,  0.037 sec ( 70.450%)
 molecular gradient             ...        0 min,  0.009 sec ( 17.732%)
 printout                       ...        0 min,  0.000 sec (  0.350%)

         :::::::::::::::::::::::::::::::::::::::::::::::::::::
         ::                     SUMMARY                     ::
         :::::::::::::::::::::::::::::::::::::::::::::::::::::
         :: total energy             -75.189688017314 Eh    ::
         :: gradient norm              0.086231335505 Eh/a0 ::
         :: HOMO-LUMO gap              2.778458665090 eV    ::
         ::.................................................::
         :: SCC energy               -76.364380164383 Eh    ::
         :: -> isotropic ES            0.135803806879 Eh    ::
         :: -> anisotropic ES         -0.021424348662 Eh    ::
         :: -> anisotropic XC          0.045215327347 Eh    ::
         :: -> dispersion             -0.065969991878 Eh    ::
         :: repulsion energy           1.174692147069 Eh    ::
         :: add. restraining           0.000000000000 Eh    ::
         :: total charge               1.000000000000 e     ::
         :::::::::::::::::::::::::::::::::::::::::::::::::::::

      ----------------------------------------------------------- 
     |                   =====================                   |
     |                        A N C O P T                        |
     |                   =====================                   |
     |               Approximate Normal Coordinate               |
     |                Rational Function Optimizer                |
      ----------------------------------------------------------- 
      ----------------------------------------------------------- 
     |                   =====================                   |
     |                        A N C O P T                        |
     |                   =====================                   |
     |               Approximate Normal Coordinate               |
     |                Rational Function Optimizer                |
      ----------------------------------------------------------- 

          ...................................................
          :                      SETUP                      :
          :.................................................:
          :   optimization level            normal          :
          :   max. optcycles                   200          :
          :   ANC micro-cycles                  20          :
          :   degrees of freedom               135          :
          :.................................................:
          :   RF solver                   davidson          :
          :   write xtbopt.log                true          :
          :   linear?                        false          :
          :   energy convergence         0.5000000E-05 Eh   :
          :   grad. convergence          0.1000000E-02 Eh/α :
          :   maxmium RF displ.          1.0000000          :
          :   Hlow (freq-cutoff)         0.1000000E-01      :
          :   Hmax (freq-cutoff)         5.0000000          :
          :   S6 in model hess.         20.0000000          :
          ...................................................

generating ANC from exact Hessian ...
Using Lindh-Hessian (1995)
 Shifting diagonal of input Hessian by    9.8157501513092982E-003
 Lowest  eigenvalues of input Hessian
    0.000000    0.000000    0.000000    0.000000    0.000000    0.000000
    0.010000    0.010217    0.010351    0.010535    0.010679    0.010795
    0.010997    0.011302    0.011777    0.013681    0.014121    0.015623
 Highest eigenvalues
    1.931767    1.935872    1.941644    1.946382    2.374961    3.279636


........................................................................
.............................. CYCLE    1 ..............................
........................................................................

 iter      E             dE          RMSdq      gap      omega  full diag
   1    -76.3664306 -0.763664E+02  0.834E-05    2.78       0.0  T
   2    -76.3664306 -0.744365E-10  0.587E-05    2.78     248.7  T
   3    -76.3664306 -0.756728E-10  0.346E-05    2.78     421.2  T
     SCC iter.                  ...        0 min,  0.012 sec
     gradient                   ...        0 min,  0.012 sec
 * total energy  :   -75.1896880 Eh     change       -0.8810019E-09 Eh
   gradient norm :     0.0862328 Eh/α   predicted     0.0000000E+00 (-100.00%)
   displ. norm   :     0.2973625 α      lambda       -0.1401058E-01
   maximum displ.:     0.0924556 α      in ANC's #79, #74, #30, ...

........................................................................
.............................. CYCLE    2 ..............................
........................................................................

 iter      E             dE          RMSdq      gap      omega  full diag
   1    -76.4379861 -0.764380E+02  0.250E-01    2.88       0.0  T
   2    -76.4380762 -0.900983E-04  0.139E-01    2.90       1.0  T
   3    -76.4379943  0.818967E-04  0.634E-02    2.93       1.0  T
   4    -76.4380945 -0.100164E-03  0.254E-02    2.91       1.0  T
   5    -76.4381147 -0.201501E-04  0.772E-03    2.91       1.9  T
   6    -76.4381152 -0.524855E-06  0.369E-03    2.91       4.0  T
   7    -76.4381156 -0.445319E-06  0.135E-03    2.91      10.8  T
   8    -76.4381157 -0.230149E-07  0.661E-04    2.91      22.1  T
   9    -76.4381157 -0.331535E-08  0.311E-04    2.91      47.0  T
     SCC iter.                  ...        0 min,  0.024 sec
     gradient                   ...        0 min,  0.009 sec
 * total energy  :   -75.1992873 Eh     change       -0.9599294E-02 Eh
   gradient norm :     0.0414728 Eh/α   predicted    -0.7633435E-02 ( -20.48%)
   displ. norm   :     0.3179759 α      lambda       -0.4579515E-02
   maximum displ.:     0.1282625 α      in ANC's #11, #10, #13, ...

........................................................................
.............................. CYCLE    3 ..............................
........................................................................

 iter      E             dE          RMSdq      gap      omega  full diag
   1    -76.4706603 -0.764707E+02  0.177E-01    2.97       0.0  T
   2    -76.4707255 -0.651531E-04  0.101E-01    2.99       1.0  T
   3    -76.4706986  0.268960E-04  0.485E-02    3.01       1.0  T
   4    -76.4707403 -0.416831E-04  0.189E-02    3.00       1.0  T
   5    -76.4707507 -0.104226E-04  0.590E-03    3.01       2.5  T
   6    -76.4707509 -0.170211E-06  0.256E-03    3.01       5.7  T
   7    -76.4707511 -0.192082E-06  0.878E-04    3.01      16.6  T
   8    -76.4707511 -0.124931E-07  0.447E-04    3.01      32.6  T
     SCC iter.                  ...        0 min,  0.021 sec
     gradient                   ...        0 min,  0.009 sec
 * total energy  :   -75.2021425 Eh     change       -0.2855230E-02 Eh
   gradient norm :     0.0146948 Eh/α   predicted    -0.2523562E-02 ( -11.62%)
   displ. norm   :     0.2727264 α      lambda       -0.1162410E-02
   maximum displ.:     0.1365286 α      in ANC's #11, #10, #3, ...

........................................................................
.............................. CYCLE    4 ..............................
........................................................................

 iter      E             dE          RMSdq      gap      omega  full diag
   1    -76.4723953 -0.764724E+02  0.908E-02    3.03       0.0  T
   2    -76.4724145 -0.192573E-04  0.526E-02    3.04       1.0  T
   3    -76.4724079  0.662699E-05  0.259E-02    3.05       1.0  T
   4    -76.4724191 -0.112474E-04  0.955E-03    3.04       1.5  T
   5    -76.4724222 -0.309427E-05  0.296E-03    3.05       4.9  T
   6    -76.4724223 -0.463182E-07  0.127E-03    3.05      11.5  T
   7    -76.4724223 -0.513062E-07  0.399E-04    3.05      36.6  T
   8    -76.4724223 -0.168106E-08  0.231E-04    3.05      63.2  T
     SCC iter.                  ...        0 min,  0.022 sec
     gradient                   ...        0 min,  0.009 sec
 * total energy  :   -75.2030184 Eh     change       -0.8758685E-03 Eh
   gradient norm :     0.0084936 Eh/α   predicted    -0.6244720E-03 ( -28.70%)
   displ. norm   :     0.4034563 α      lambda       -0.1094617E-02
   maximum displ.:     0.1982074 α      in ANC's #11, #3, #10, ...

........................................................................
.............................. CYCLE    5 ..............................
........................................................................

 iter      E             dE          RMSdq      gap      omega  full diag
   1    -76.4683505 -0.764684E+02  0.108E-01    3.08       0.0  T
   2    -76.4683768 -0.263321E-04  0.578E-02    3.08       1.0  T
   3    -76.4683712  0.564491E-05  0.276E-02    3.08       1.0  T
   4    -76.4683783 -0.708056E-05  0.115E-02    3.08       1.3  T
   5    -76.4683833 -0.507393E-05  0.301E-03    3.08       4.8  T
   6    -76.4683834 -0.557273E-07  0.119E-03    3.08      12.2  T
   7    -76.4683834 -0.449640E-07  0.456E-04    3.08      32.0  T
   8    -76.4683834 -0.690918E-09  0.229E-04    3.08      63.8  T
     SCC iter.                  ...        0 min,  0.021 sec
     gradient                   ...        0 min,  0.009 sec
 * total energy  :   -75.2038508 Eh     change       -0.8323811E-03 Eh
   gradient norm :     0.0107046 Eh/α   predicted    -0.6364022E-03 ( -23.54%)
   displ. norm   :     0.4623182 α      lambda       -0.9581848E-03
   maximum displ.:     0.2144040 α      in ANC's #11, #3, #14, ...

........................................................................
.............................. CYCLE    6 ..............................
........................................................................

 iter      E             dE          RMSdq      gap      omega  full diag
   1    -76.4635999 -0.764636E+02  0.116E-01    3.11       0.0  T
   2    -76.4636347 -0.347617E-04  0.579E-02    3.11       1.0  T
   3    -76.4636334  0.126574E-05  0.278E-02    3.10       1.0  T
   4    -76.4636352 -0.180230E-05  0.116E-02    3.10       1.3  T
   5    -76.4636402 -0.493063E-05  0.323E-03    3.10       4.5  T
   6    -76.4636402 -0.523129E-07  0.118E-03    3.10      12.4  T
   7    -76.4636402 -0.299860E-07  0.529E-04    3.10      27.5  T
   8    -76.4636402 -0.449532E-08  0.235E-04    3.10      62.1  T
     SCC iter.                  ...        0 min,  0.021 sec
     gradient                   ...        0 min,  0.009 sec
 * total energy  :   -75.2045718 Eh     change       -0.7210049E-03 Eh
   gradient norm :     0.0173506 Eh/α   predicted    -0.5814987E-03 ( -19.35%)
   displ. norm   :     0.4203848 α      lambda       -0.8843621E-03
   maximum displ.:     0.1887187 α      in ANC's #3, #11, #14, ...

........................................................................
.............................. CYCLE    7 ..............................
........................................................................

 iter      E             dE          RMSdq      gap      omega  full diag
   1    -76.4620484 -0.764620E+02  0.105E-01    3.12       0.0  T
   2    -76.4620719 -0.235551E-04  0.533E-02    3.12       1.0  T
   3    -76.4620693  0.264860E-05  0.250E-02    3.11       1.0  T
   4    -76.4620739 -0.459810E-05  0.107E-02    3.11       1.4  T
   5    -76.4620772 -0.333650E-05  0.309E-03    3.11       4.7  T
   6    -76.4620773 -0.709826E-07  0.114E-03    3.11      12.8  T
   7    -76.4620773 -0.325236E-07  0.525E-04    3.11      27.8  T
   8    -76.4620773 -0.614496E-08  0.226E-04    3.11      64.4  T
     SCC iter.                  ...        0 min,  0.021 sec
     gradient                   ...        0 min,  0.009 sec
 * total energy  :   -75.2052599 Eh     change       -0.6881478E-03 Eh
   gradient norm :     0.0214857 Eh/α   predicted    -0.5203401E-03 ( -24.39%)
   displ. norm   :     0.4071722 α      lambda       -0.1181461E-02
   maximum displ.:     0.1766983 α      in ANC's #6, #3, #11, ...

........................................................................
.............................. CYCLE    8 ..............................
........................................................................

 iter      E             dE          RMSdq      gap      omega  full diag
   1    -76.4658259 -0.764658E+02  0.113E-01    3.11       0.0  T
   2    -76.4658404 -0.144236E-04  0.612E-02    3.10       1.0  T
   3    -76.4658264  0.139219E-04  0.278E-02    3.10       1.0  T
   4    -76.4658462 -0.197334E-04  0.971E-03    3.10       1.5  T
   5    -76.4658479 -0.174353E-05  0.297E-03    3.10       4.9  T
   6    -76.4658481 -0.173773E-06  0.127E-03    3.10      11.5  T
   7    -76.4658482 -0.519333E-07  0.474E-04    3.10      30.8  T
   8    -76.4658482 -0.189914E-08  0.253E-04    3.10      57.6  T
     SCC iter.                  ...        0 min,  0.021 sec
     gradient                   ...        0 min,  0.009 sec
 * total energy  :   -75.2061420 Eh     change       -0.8820919E-03 Eh
   gradient norm :     0.0167470 Eh/α   predicted    -0.6886734E-03 ( -21.93%)
   displ. norm   :     0.4931195 α      lambda       -0.1002394E-02
   maximum displ.:     0.2231416 α      in ANC's #6, #3, #14, ...

........................................................................
.............................. CYCLE    9 ..............................
........................................................................

 iter      E             dE          RMSdq      gap      omega  full diag
   1    -76.4689302 -0.764689E+02  0.123E-01    3.12       0.0  T
   2    -76.4689554 -0.251490E-04  0.632E-02    3.12       1.0  T
   3    -76.4689455  0.986695E-05  0.305E-02    3.11       1.0  T
   4    -76.4689602 -0.147415E-04  0.119E-02    3.12       1.2  T
   5    -76.4689645 -0.424224E-05  0.407E-03    3.12       3.6  T
   6    -76.4689646 -0.141704E-06  0.161E-03    3.12       9.0  T
   7    -76.4689647 -0.110141E-06  0.503E-04    3.12      29.0  T
   8    -76.4689647 -0.173837E-08  0.276E-04    3.12      52.9  T
     SCC iter.                  ...        0 min,  0.021 sec
     gradient                   ...        0 min,  0.009 sec
 * total energy  :   -75.2069418 Eh     change       -0.7997435E-03 Eh
   gradient norm :     0.0209621 Eh/α   predicted    -0.6230761E-03 ( -22.09%)
   displ. norm   :     0.5100805 α      lambda       -0.1403613E-02
   maximum displ.:     0.2580353 α      in ANC's #6, #8, #1, ...

........................................................................
.............................. CYCLE   10 ..............................
........................................................................

 iter      E             dE          RMSdq      gap      omega  full diag
   1    -76.4785009 -0.764785E+02  0.140E-01    3.11       0.0  T
   2    -76.4785281 -0.271902E-04  0.765E-02    3.12       1.0  T
   3    -76.4785094  0.186952E-04  0.308E-02    3.12       1.0  T
   4    -76.4785319 -0.225100E-04  0.120E-02    3.13       1.2  T
   5    -76.4785365 -0.460447E-05  0.461E-03    3.13       3.2  T
   6    -76.4785366 -0.754504E-07  0.184E-03    3.13       7.9  T
   7    -76.4785368 -0.170074E-06  0.572E-04    3.13      25.5  T
   8    -76.4785368 -0.400289E-08  0.279E-04    3.13      52.3  T
     SCC iter.                  ...        0 min,  0.023 sec
     gradient                   ...        0 min,  0.024 sec
 * total energy  :   -75.2078497 Eh     change       -0.9079188E-03 Eh
   gradient norm :     0.0152481 Eh/α   predicted    -0.8844040E-03 (  -2.59%)
   displ. norm   :     0.6917081 α      lambda       -0.1362689E-02
   maximum displ.:     0.3156172 α      in ANC's #6, #3, #1, ...

........................................................................
.............................. CYCLE   11 ..............................
........................................................................

 iter      E             dE          RMSdq      gap      omega  full diag
   1    -76.4721956 -0.764722E+02  0.200E-01    3.18       0.0  T
   2    -76.4722734 -0.777874E-04  0.944E-02    3.19       1.0  T
   3    -76.4722601  0.133093E-04  0.466E-02    3.20       1.0  T
   4    -76.4722869 -0.268372E-04  0.198E-02    3.20       1.0  T
   5    -76.4722955 -0.860146E-05  0.754E-03    3.20       1.9  T
   6    -76.4722960 -0.488624E-06  0.213E-03    3.20       6.8  T
   7    -76.4722962 -0.193598E-06  0.904E-04    3.20      16.1  T
   8    -76.4722962 -0.800570E-08  0.474E-04    3.20      30.8  T
     SCC iter.                  ...        0 min,  0.021 sec
     gradient                   ...        0 min,  0.009 sec
 * total energy  :   -75.2086441 Eh     change       -0.7943819E-03 Eh
   gradient norm :     0.0259364 Eh/α   predicted    -0.1007359E-02 (  26.81%)
   displ. norm   :     0.2788161 α      lambda       -0.1016092E-02
   maximum displ.:     0.1331553 α      in ANC's #1, #8, #6, ...

........................................................................
.............................. CYCLE   12 ..............................
........................................................................

 iter      E             dE          RMSdq      gap      omega  full diag
   1    -76.4729804 -0.764730E+02  0.915E-02    3.21       0.0  T
   2    -76.4729975 -0.170882E-04  0.468E-02    3.22       1.0  T
   3    -76.4729969  0.531277E-06  0.191E-02    3.23       1.0  T
   4    -76.4729973 -0.365398E-06  0.837E-03    3.22       1.7  T
   5    -76.4729995 -0.217048E-05  0.329E-03    3.23       4.4  T
   6    -76.4729996 -0.792172E-07  0.849E-04    3.22      17.2  T
   7    -76.4729996 -0.167519E-07  0.343E-04    3.22      42.6  T
     SCC iter.                  ...        0 min,  0.018 sec
     gradient                   ...        0 min,  0.009 sec
 * total energy  :   -75.2094373 Eh     change       -0.7932031E-03 Eh
   gradient norm :     0.0134717 Eh/α   predicted    -0.5475417E-03 ( -30.97%)
   displ. norm   :     0.5383862 α      lambda       -0.9767845E-03
   maximum displ.:     0.2650649 α      in ANC's #1, #6, #8, ...

........................................................................
.............................. CYCLE   13 ..............................
........................................................................

 iter      E             dE          RMSdq      gap      omega  full diag
   1    -76.4699412 -0.764699E+02  0.143E-01    3.24       0.0  T
   2    -76.4699667 -0.254948E-04  0.727E-02    3.26       1.0  T
   3    -76.4699614  0.536056E-05  0.273E-02    3.26       1.0  T
   4    -76.4699680 -0.667648E-05  0.119E-02    3.27       1.2  T
   5    -76.4699718 -0.379430E-05  0.459E-03    3.26       3.2  T
   6    -76.4699720 -0.153967E-06  0.983E-04    3.26      14.8  T
   7    -76.4699720 -0.258555E-07  0.467E-04    3.26      31.3  T
     SCC iter.                  ...        0 min,  0.018 sec
     gradient                   ...        0 min,  0.011 sec
 * total energy  :   -75.2101635 Eh     change       -0.7261795E-03 Eh
   gradient norm :     0.0082741 Eh/α   predicted    -0.6299681E-03 ( -13.25%)
   displ. norm   :     0.4812503 α      lambda       -0.5924288E-03
   maximum displ.:     0.2534549 α      in ANC's #1, #6, #2, ...

........................................................................
.............................. CYCLE   14 ..............................
........................................................................

 iter      E             dE          RMSdq      gap      omega  full diag
   1    -76.4701985 -0.764702E+02  0.112E-01    3.27       0.0  T
   2    -76.4702093 -0.108286E-04  0.585E-02    3.28       1.0  T
   3    -76.4702012  0.804199E-05  0.220E-02    3.28       1.0  T
   4    -76.4702116 -0.103216E-04  0.887E-03    3.28       1.6  T
   5    -76.4702133 -0.168284E-05  0.283E-03    3.28       5.1  T
   6    -76.4702133 -0.343751E-07  0.754E-04    3.28      19.3  T
   7    -76.4702133 -0.187230E-07  0.352E-04    3.28      41.4  T
     SCC iter.                  ...        0 min,  0.018 sec
     gradient                   ...        0 min,  0.009 sec
 * total energy  :   -75.2106297 Eh     change       -0.4662159E-03 Eh
   gradient norm :     0.0077642 Eh/α   predicted    -0.3648338E-03 ( -21.75%)
   displ. norm   :     0.5134991 α      lambda       -0.5154910E-03
   maximum displ.:     0.2786220 α      in ANC's #1, #2, #6, ...

........................................................................
.............................. CYCLE   15 ..............................
........................................................................

 iter      E             dE          RMSdq      gap      omega  full diag
   1    -76.4717131 -0.764717E+02  0.108E-01    3.28       0.0  T
   2    -76.4717206 -0.748798E-05  0.576E-02    3.29       1.0  T
   3    -76.4717098  0.108114E-04  0.218E-02    3.29       1.0  T
   4    -76.4717236 -0.137907E-04  0.770E-03    3.29       1.9  T
   5    -76.4717246 -0.990440E-06  0.223E-03    3.29       6.6  T
   6    -76.4717246 -0.353364E-07  0.771E-04    3.29      18.9  T
   7    -76.4717246 -0.204014E-07  0.337E-04    3.29      43.2  T
     SCC iter.                  ...        0 min,  0.023 sec
     gradient                   ...        0 min,  0.009 sec
 * total energy  :   -75.2110483 Eh     change       -0.4186418E-03 Eh
   gradient norm :     0.0063644 Eh/α   predicted    -0.3257270E-03 ( -22.19%)
   displ. norm   :     0.5244058 α      lambda       -0.5161628E-03
   maximum displ.:     0.3018214 α      in ANC's #2, #1, #9, ...

........................................................................
.............................. CYCLE   16 ..............................
........................................................................

 iter      E             dE          RMSdq      gap      omega  full diag
   1    -76.4771914 -0.764772E+02  0.970E-02    3.27       0.0  T
   2    -76.4771953 -0.391944E-05  0.549E-02    3.28       1.0  T
   3    -76.4771847  0.106002E-04  0.171E-02    3.27       1.0  T
   4    -76.4771976 -0.128883E-04  0.502E-03    3.27       2.9  T
   5    -76.4771979 -0.259286E-06  0.137E-03    3.27      10.7  T
   6    -76.4771979 -0.376272E-07  0.601E-04    3.27      24.3  T
   7    -76.4771979 -0.793256E-08  0.288E-04    3.27      50.7  T
     SCC iter.                  ...        0 min,  0.019 sec
     gradient                   ...        0 min,  0.011 sec
 * total energy  :   -75.2114306 Eh     change       -0.3822928E-03 Eh
   gradient norm :     0.0101613 Eh/α   predicted    -0.3290564E-03 ( -13.93%)
   displ. norm   :     0.7317611 α      lambda       -0.6518136E-03
   maximum displ.:     0.3927130 α      in ANC's #1, #2, #3, ...

........................................................................
.............................. CYCLE   17 ..............................
........................................................................

 iter      E             dE          RMSdq      gap      omega  full diag
   1    -76.4708136 -0.764708E+02  0.152E-01    3.29       0.0  T
   2    -76.4708284 -0.148431E-04  0.836E-02    3.29       1.0  T
   3    -76.4708054  0.229907E-04  0.316E-02    3.29       1.0  T
   4    -76.4708349 -0.294548E-04  0.101E-02    3.29       1.5  T
   5    -76.4708362 -0.127645E-05  0.304E-03    3.29       4.8  T
   6    -76.4708363 -0.133384E-06  0.110E-03    3.29      13.3  T
   7    -76.4708363 -0.297008E-07  0.501E-04    3.29      29.1  T
   8    -76.4708363 -0.641293E-09  0.246E-04    3.29      59.4  T
     SCC iter.                  ...        0 min,  0.021 sec
     gradient                   ...        0 min,  0.009 sec
 * total energy  :   -75.2117409 Eh     change       -0.3103002E-03 Eh
   gradient norm :     0.0122498 Eh/α   predicted    -0.5004307E-03 (  61.27%)
   displ. norm   :     0.3129539 α      lambda       -0.4934571E-03
   maximum displ.:     0.2119346 α      in ANC's #2, #1, #9, ...

........................................................................
.............................. CYCLE   18 ..............................
........................................................................

 iter      E             dE          RMSdq      gap      omega  full diag
   1    -76.4759970 -0.764760E+02  0.648E-02    3.28       0.0  T
   2    -76.4759996 -0.261279E-05  0.379E-02    3.27       1.0  T
   3    -76.4759923  0.730583E-05  0.142E-02    3.27       1.0  T
   4    -76.4760010 -0.873138E-05  0.217E-03    3.27       6.7  T
   5    -76.4760011 -0.346776E-07  0.117E-03    3.27      12.4  T
   6    -76.4760011 -0.264518E-07  0.514E-04    3.27      28.4  T
   7    -76.4760011 -0.600230E-08  0.235E-04    3.27      62.1  T
     SCC iter.                  ...        0 min,  0.018 sec
     gradient                   ...        0 min,  0.009 sec
 * total energy  :   -75.2121304 Eh     change       -0.3894911E-03 Eh
   gradient norm :     0.0075946 Eh/α   predicted    -0.2708953E-03 ( -30.45%)
   displ. norm   :     0.5999493 α      lambda       -0.5428366E-03
   maximum displ.:     0.4012576 α      in ANC's #2, #1, #9, ...

........................................................................
.............................. CYCLE   19 ..............................
........................................................................

 iter      E             dE          RMSdq      gap      omega  full diag
   1    -76.4771166 -0.764771E+02  0.118E-01    3.27       0.0  T
   2    -76.4771200 -0.343304E-05  0.688E-02    3.27       1.0  T
   3    -76.4771042  0.158246E-04  0.191E-02    3.27       1.0  T
   4    -76.4771225 -0.183323E-04  0.307E-03    3.27       4.8  T
   5    -76.4771226 -0.308643E-07  0.168E-03    3.27       8.7  T
   6    -76.4771227 -0.848475E-07  0.639E-04    3.27      22.8  T
   7    -76.4771227 -0.888122E-08  0.294E-04    3.27      49.6  T
     SCC iter.                  ...        0 min,  0.018 sec
     gradient                   ...        0 min,  0.009 sec
 * total energy  :   -75.2125646 Eh     change       -0.4342187E-03 Eh
   gradient norm :     0.0085128 Eh/α   predicted    -0.3691133E-03 ( -14.99%)
   displ. norm   :     0.6513984 α      lambda       -0.4768014E-03
   maximum displ.:     0.4419031 α      in ANC's #2, #1, #9, ...

........................................................................
.............................. CYCLE   20 ..............................
........................................................................

 iter      E             dE          RMSdq      gap      omega  full diag
   1    -76.4776483 -0.764776E+02  0.133E-01    3.27       0.0  T
   2    -76.4776514 -0.310666E-05  0.771E-02    3.27       1.0  T
   3    -76.4776363  0.151076E-04  0.186E-02    3.27       1.0  T
   4    -76.4776538 -0.175279E-04  0.344E-03    3.27       4.2  T
   5    -76.4776538  0.172894E-07  0.157E-03    3.27       9.3  T
   6    -76.4776539 -0.101252E-06  0.493E-04    3.27      29.6  T
   7    -76.4776539 -0.247799E-08  0.279E-04    3.27      52.3  T
     SCC iter.                  ...        0 min,  0.018 sec
     gradient                   ...        0 min,  0.009 sec
 * total energy  :   -75.2129530 Eh     change       -0.3883323E-03 Eh
   gradient norm :     0.0082888 Eh/α   predicted    -0.3395599E-03 ( -12.56%)
   displ. norm   :     0.6790951 α      lambda       -0.4244337E-03
   maximum displ.:     0.4614350 α      in ANC's #2, #1, #9, ...
 * RMSD in coord.:     1.0410012 α      energy gain  -0.2326494E-01 Eh

generating ANC from exact Hessian ...
Using Lindh-Hessian (1995)
 Shifting diagonal of input Hessian by    9.7331415233116777E-003
 Lowest  eigenvalues of input Hessian
    0.000000    0.000000    0.000000    0.000000    0.000000    0.000000
    0.010000    0.010147    0.010488    0.010498    0.010657    0.010775
    0.010959    0.011407    0.011949    0.013933    0.014676    0.015958
 Highest eigenvalues
    2.001651    2.003831    2.008235    2.009461    2.548526    3.404116


........................................................................
.............................. CYCLE   21 ..............................
........................................................................

 iter      E             dE          RMSdq      gap      omega  full diag
   1    -76.4736373 -0.764736E+02  0.142E-01    3.27       0.0  T
   2    -76.4736408 -0.350738E-05  0.828E-02    3.28       1.0  T
   3    -76.4736221  0.187600E-04  0.207E-02    3.28       1.0  T
   4    -76.4736438 -0.216745E-04  0.333E-03    3.28       4.4  T
   5    -76.4736437  0.539486E-07  0.173E-03    3.28       8.4  T
   6    -76.4736438 -0.126121E-06  0.521E-04    3.28      28.0  T
   7    -76.4736438 -0.412014E-08  0.295E-04    3.28      49.4  T
     SCC iter.                  ...        0 min,  0.019 sec
     gradient                   ...        0 min,  0.009 sec
 * total energy  :   -75.2132803 Eh     change       -0.3273603E-03 Eh
   gradient norm :     0.0088636 Eh/α   predicted     0.0000000E+00 (-100.00%)
   displ. norm   :     0.0604531 α      lambda       -0.1504244E-03
   maximum displ.:     0.0326835 α      in ANC's #2, #1, #10, ...

........................................................................
.............................. CYCLE   22 ..............................
........................................................................

 iter      E             dE          RMSdq      gap      omega  full diag
   1    -76.4779638 -0.764780E+02  0.269E-02    3.28       0.0  T
   2    -76.4779643 -0.472874E-06  0.151E-02    3.28       1.0  T
   3    -76.4779630  0.122459E-05  0.625E-03    3.28       2.3  T
   4    -76.4779645 -0.147859E-05  0.176E-03    3.28       8.3  T
   5    -76.4779646 -0.468000E-07  0.690E-04    3.28      21.1  T
   6    -76.4779646 -0.897163E-08  0.259E-04    3.28      56.3  T
     SCC iter.                  ...        0 min,  0.016 sec
     gradient                   ...        0 min,  0.009 sec
 * total energy  :   -75.2133964 Eh     change       -0.1161216E-03 Eh
   gradient norm :     0.0057114 Eh/α   predicted    -0.7548735E-04 ( -34.99%)
   displ. norm   :     0.1337657 α      lambda       -0.1701592E-03
   maximum displ.:     0.0799120 α      in ANC's #2, #1, #10, ...

........................................................................
.............................. CYCLE   23 ..............................
........................................................................

 iter      E             dE          RMSdq      gap      omega  full diag
   1    -76.4811652 -0.764812E+02  0.514E-02    3.28       0.0  T
   2    -76.4811668 -0.163610E-05  0.288E-02    3.28       1.0  T
   3    -76.4811642  0.258726E-05  0.972E-03    3.28       1.5  T
   4    -76.4811672 -0.300140E-05  0.338E-03    3.28       4.3  T
   5    -76.4811675 -0.251233E-06  0.124E-03    3.28      11.7  T
   6    -76.4811675 -0.196726E-07  0.424E-04    3.28      34.4  T
   7    -76.4811675 -0.657911E-08  0.201E-04    3.28      72.6  T
     SCC iter.                  ...        0 min,  0.018 sec
     gradient                   ...        0 min,  0.009 sec
 * total energy  :   -75.2135103 Eh     change       -0.1139091E-03 Eh
   gradient norm :     0.0034917 Eh/α   predicted    -0.8660342E-04 ( -23.97%)
   displ. norm   :     0.1219605 α      lambda       -0.7714201E-04
   maximum displ.:     0.0782511 α      in ANC's #2, #1, #10, ...

........................................................................
.............................. CYCLE   24 ..............................
........................................................................

 iter      E             dE          RMSdq      gap      omega  full diag
   1    -76.4806204 -0.764806E+02  0.407E-02    3.28       0.0  T
   2    -76.4806212 -0.772661E-06  0.231E-02    3.28       1.0  T
   3    -76.4806203  0.856635E-06  0.579E-03    3.28       2.5  T
   4    -76.4806212 -0.907444E-06  0.247E-03    3.28       5.9  T
   5    -76.4806214 -0.186952E-06  0.736E-04    3.28      19.8  T
   6    -76.4806214 -0.335736E-08  0.261E-04    3.28      55.9  T
     SCC iter.                  ...        0 min,  0.016 sec
     gradient                   ...        0 min,  0.009 sec
 * total energy  :   -75.2135697 Eh     change       -0.5932573E-04 Eh
   gradient norm :     0.0032903 Eh/α   predicted    -0.3914523E-04 ( -34.02%)
   displ. norm   :     0.1422756 α      lambda       -0.7128547E-04
   maximum displ.:     0.0927542 α      in ANC's #2, #1, #7, ...

........................................................................
.............................. CYCLE   25 ..............................
........................................................................

 iter      E             dE          RMSdq      gap      omega  full diag
   1    -76.4787863 -0.764788E+02  0.433E-02    3.28       0.0  T
   2    -76.4787869 -0.653153E-06  0.249E-02    3.28       1.0  T
   3    -76.4787859  0.105557E-05  0.559E-03    3.28       2.6  T
   4    -76.4787870 -0.113253E-05  0.223E-03    3.28       6.5  T
   5    -76.4787872 -0.163490E-06  0.600E-04    3.28      24.3  T
   6    -76.4787872 -0.307502E-08  0.281E-04    3.28      51.9  T
     SCC iter.                  ...        0 min,  0.041 sec
     gradient                   ...        0 min,  0.009 sec
 * total energy  :   -75.2136261 Eh     change       -0.5645311E-04 Eh
   gradient norm :     0.0030316 Eh/α   predicted    -0.3638299E-04 ( -35.55%)
   displ. norm   :     0.1560271 α      lambda       -0.6505182E-04
   maximum displ.:     0.1008724 α      in ANC's #2, #1, #7, ...

........................................................................
.............................. CYCLE   26 ..............................
........................................................................

 iter      E             dE          RMSdq      gap      omega  full diag
   1    -76.4771822 -0.764772E+02  0.440E-02    3.27       0.0  T
   2    -76.4771828 -0.564326E-06  0.256E-02    3.28       1.0  T
   3    -76.4771806  0.220409E-05  0.708E-03    3.28       2.1  T
   4    -76.4771831 -0.251777E-05  0.156E-03    3.27       9.4  T
   5    -76.4771832 -0.632242E-07  0.585E-04    3.27      24.9  T
   6    -76.4771832 -0.133322E-07  0.227E-04    3.27      64.3  T
     SCC iter.                  ...        0 min,  0.016 sec
     gradient                   ...        0 min,  0.009 sec
 * total energy  :   -75.2136795 Eh     change       -0.5334830E-04 Eh
   gradient norm :     0.0032259 Eh/α   predicted    -0.3332529E-04 ( -37.53%)
   displ. norm   :     0.1816324 α      lambda       -0.6823722E-04
   maximum displ.:     0.1151686 α      in ANC's #2, #1, #4, ...

........................................................................
.............................. CYCLE   27 ..............................
........................................................................

 iter      E             dE          RMSdq      gap      omega  full diag
   1    -76.4764185 -0.764764E+02  0.486E-02    3.27       0.0  T
   2    -76.4764192 -0.702840E-06  0.284E-02    3.27       1.0  T
   3    -76.4764156  0.364939E-05  0.889E-03    3.27       1.6  T
   4    -76.4764198 -0.422483E-05  0.116E-03    3.27      12.5  T
   5    -76.4764198 -0.136830E-07  0.629E-04    3.27      23.2  T
   6    -76.4764198 -0.186006E-07  0.177E-04    3.27      82.5  T
     SCC iter.                  ...        0 min,  0.016 sec
     gradient                   ...        0 min,  0.009 sec
 * total energy  :   -75.2137369 Eh     change       -0.5743205E-04 Eh
   gradient norm :     0.0038848 Eh/α   predicted    -0.3524698E-04 ( -38.63%)
   displ. norm   :     0.2315529 α      lambda       -0.8021745E-04
   maximum displ.:     0.1447185 α      in ANC's #2, #1, #4, ...

........................................................................
.............................. CYCLE   28 ..............................
........................................................................

 iter      E             dE          RMSdq      gap      omega  full diag
   1    -76.4764896 -0.764765E+02  0.599E-02    3.27       0.0  T
   2    -76.4764907 -0.111402E-05  0.350E-02    3.27       1.0  T
   3    -76.4764852  0.551564E-05  0.108E-02    3.27       1.3  T
   4    -76.4764916 -0.639164E-05  0.126E-03    3.27      11.6  T
   5    -76.4764916 -0.857679E-08  0.713E-04    3.27      20.5  T
   6    -76.4764916 -0.166529E-07  0.235E-04    3.27      62.1  T
     SCC iter.                  ...        0 min,  0.032 sec
     gradient                   ...        0 min,  0.009 sec
 * total energy  :   -75.2138045 Eh     change       -0.6755176E-04 Eh
   gradient norm :     0.0045375 Eh/α   predicted    -0.4226154E-04 ( -37.44%)
   displ. norm   :     0.2972974 α      lambda       -0.9356672E-04
   maximum displ.:     0.1848933 α      in ANC's #2, #1, #4, ...

........................................................................
.............................. CYCLE   29 ..............................
........................................................................

 iter      E             dE          RMSdq      gap      omega  full diag
   1    -76.4770360 -0.764770E+02  0.758E-02    3.27       0.0  T
   2    -76.4770377 -0.169597E-05  0.444E-02    3.26       1.0  T
   3    -76.4770305  0.720654E-05  0.122E-02    3.26       1.2  T
   4    -76.4770388 -0.836422E-05  0.165E-03    3.26       8.8  T
   5    -76.4770389 -0.152234E-07  0.862E-04    3.26      16.9  T
   6    -76.4770389 -0.120153E-07  0.373E-04    3.26      39.1  T
     SCC iter.                  ...        0 min,  0.016 sec
     gradient                   ...        0 min,  0.013 sec
 * total energy  :   -75.2138829 Eh     change       -0.7840860E-04 Eh
   gradient norm :     0.0045733 Eh/α   predicted    -0.5091871E-04 ( -35.06%)
   displ. norm   :     0.3722164 α      lambda       -0.1065855E-03
   maximum displ.:     0.2313091 α      in ANC's #2, #1, #3, ...

........................................................................
.............................. CYCLE   30 ..............................
........................................................................

 iter      E             dE          RMSdq      gap      omega  full diag
   1    -76.4775071 -0.764775E+02  0.945E-02    3.26       0.0  T
   2    -76.4775094 -0.237191E-05  0.553E-02    3.26       1.0  T
   3    -76.4775008  0.862509E-05  0.133E-02    3.26       1.1  T
   4    -76.4775109 -0.100659E-04  0.242E-03    3.26       6.0  T
   5    -76.4775109 -0.345047E-07  0.101E-03    3.26      14.4  T
   6    -76.4775109 -0.102032E-07  0.464E-04    3.26      31.4  T
   7    -76.4775109 -0.927081E-08  0.177E-04    3.26      82.6  T
     SCC iter.                  ...        0 min,  0.019 sec
     gradient                   ...        0 min,  0.009 sec
 * total energy  :   -75.2139717 Eh     change       -0.8887960E-04 Eh
   gradient norm :     0.0036176 Eh/α   predicted    -0.6067705E-04 ( -31.73%)
   displ. norm   :     0.4425308 α      lambda       -0.1156610E-03
   maximum displ.:     0.2755420 α      in ANC's #2, #1, #6, ...

........................................................................
.............................. CYCLE   31 ..............................
........................................................................

 iter      E             dE          RMSdq      gap      omega  full diag
   1    -76.4775093 -0.764775E+02  0.112E-01    3.26       0.0  T
   2    -76.4775124 -0.304610E-05  0.654E-02    3.26       1.0  T
   3    -76.4775021  0.102590E-04  0.148E-02    3.26       1.0  T
   4    -76.4775142 -0.120468E-04  0.343E-03    3.27       4.3  T
   5    -76.4775142 -0.688041E-07  0.104E-03    3.26      14.0  T
   6    -76.4775142 -0.249196E-07  0.474E-04    3.26      30.8  T
   7    -76.4775143 -0.734534E-08  0.200E-04    3.26      72.9  T
     SCC iter.                  ...        0 min,  0.018 sec
     gradient                   ...        0 min,  0.009 sec
 * total energy  :   -75.2140659 Eh     change       -0.9415717E-04 Eh
   gradient norm :     0.0023009 Eh/α   predicted    -0.6916032E-04 ( -26.55%)
   displ. norm   :     0.4366114 α      lambda       -0.1051849E-03
   maximum displ.:     0.2739660 α      in ANC's #2, #1, #6, ...

........................................................................
.............................. CYCLE   32 ..............................
........................................................................

 iter      E             dE          RMSdq      gap      omega  full diag
   1    -76.4775006 -0.764775E+02  0.110E-01    3.27       0.0  T
   2    -76.4775036 -0.301799E-05  0.637E-02    3.27       1.0  T
   3    -76.4774934  0.101733E-04  0.153E-02    3.27       1.0  T
   4    -76.4775054 -0.119545E-04  0.402E-03    3.27       3.6  T
   5    -76.4775055 -0.102035E-06  0.124E-03    3.27      11.7  T
   6    -76.4775055 -0.738086E-07  0.434E-04    3.27      33.6  T
   7    -76.4775055 -0.489808E-08  0.200E-04    3.27      73.1  T
     SCC iter.                  ...        0 min,  0.018 sec
     gradient                   ...        0 min,  0.009 sec
 * total energy  :   -75.2141483 Eh     change       -0.8240023E-04 Eh
   gradient norm :     0.0032005 Eh/α   predicted    -0.6262008E-04 ( -24.00%)
   displ. norm   :     0.3795358 α      lambda       -0.8257805E-04
   maximum displ.:     0.2404816 α      in ANC's #2, #1, #6, ...

........................................................................
.............................. CYCLE   33 ..............................
........................................................................

 iter      E             dE          RMSdq      gap      omega  full diag
   1    -76.4778061 -0.764778E+02  0.949E-02    3.27       0.0  T
   2    -76.4778088 -0.271535E-05  0.544E-02    3.28       1.0  T
   3    -76.4778000  0.881640E-05  0.150E-02    3.28       1.0  T
   4    -76.4778104 -0.103245E-04  0.405E-03    3.28       3.6  T
   5    -76.4778106 -0.216910E-06  0.133E-03    3.28      10.9  T
   6    -76.4778106 -0.655209E-07  0.463E-04    3.28      31.5  T
   7    -76.4778106 -0.467844E-08  0.187E-04    3.28      77.9  T
     SCC iter.                  ...        0 min,  0.019 sec
     gradient                   ...        0 min,  0.009 sec
 * total energy  :   -75.2142117 Eh     change       -0.6338223E-04 Eh
   gradient norm :     0.0047792 Eh/α   predicted    -0.4723678E-04 ( -25.47%)
   displ. norm   :     0.3295541 α      lambda       -0.6613823E-04
   maximum displ.:     0.2103890 α      in ANC's #2, #1, #6, ...

........................................................................
.............................. CYCLE   34 ..............................
........................................................................

 iter      E             dE          RMSdq      gap      omega  full diag
   1    -76.4779732 -0.764780E+02  0.821E-02    3.28       0.0  T
   2    -76.4779757 -0.253560E-05  0.467E-02    3.29       1.0  T
   3    -76.4779694  0.630979E-05  0.134E-02    3.29       1.1  T
   4    -76.4779766 -0.726026E-05  0.394E-03    3.29       3.7  T
   5    -76.4779771 -0.428455E-06  0.132E-03    3.29      11.1  T
   6    -76.4779771 -0.249179E-07  0.544E-04    3.29      26.8  T
   7    -76.4779771 -0.102154E-07  0.184E-04    3.29      79.4  T
     SCC iter.                  ...        0 min,  0.019 sec
     gradient                   ...        0 min,  0.009 sec
 * total energy  :   -75.2142643 Eh     change       -0.5263697E-04 Eh
   gradient norm :     0.0048058 Eh/α   predicted    -0.3666351E-04 ( -30.35%)
   displ. norm   :     0.2787145 α      lambda       -0.6596191E-04
   maximum displ.:     0.1782239 α      in ANC's #2, #6, #1, ...

........................................................................
.............................. CYCLE   35 ..............................
........................................................................

 iter      E             dE          RMSdq      gap      omega  full diag
   1    -76.4788098 -0.764788E+02  0.694E-02    3.29       0.0  T
   2    -76.4788124 -0.257485E-05  0.393E-02    3.29       1.0  T
   3    -76.4788087  0.369039E-05  0.116E-02    3.29       1.3  T
   4    -76.4788127 -0.397625E-05  0.402E-03    3.29       3.6  T
   5    -76.4788134 -0.686712E-06  0.121E-03    3.29      12.0  T
   6    -76.4788134 -0.725619E-08  0.530E-04    3.29      27.5  T
   7    -76.4788134 -0.116934E-07  0.171E-04    3.29      85.3  T
     SCC iter.                  ...        0 min,  0.018 sec
     gradient                   ...        0 min,  0.009 sec
 * total energy  :   -75.2143173 Eh     change       -0.5299528E-04 Eh
   gradient norm :     0.0028841 Eh/α   predicted    -0.3554721E-04 ( -32.92%)
   displ. norm   :     0.3256384 α      lambda       -0.6762979E-04
   maximum displ.:     0.2081891 α      in ANC's #2, #6, #9, ...

........................................................................
.............................. CYCLE   36 ..............................
........................................................................

 iter      E             dE          RMSdq      gap      omega  full diag
   1    -76.4778690 -0.764779E+02  0.821E-02    3.29       0.0  T
   2    -76.4778716 -0.264200E-05  0.473E-02    3.29       1.0  T
   3    -76.4778680  0.359394E-05  0.108E-02    3.29       1.4  T
   4    -76.4778720 -0.391302E-05  0.366E-03    3.30       4.0  T
   5    -76.4778726 -0.602305E-06  0.108E-03    3.29      13.5  T
   6    -76.4778726 -0.113448E-08  0.494E-04    3.29      29.5  T
   7    -76.4778726 -0.101634E-07  0.162E-04    3.29      90.0  T
     SCC iter.                  ...        0 min,  0.018 sec
     gradient                   ...        0 min,  0.009 sec
 * total energy  :   -75.2143705 Eh     change       -0.5317957E-04 Eh
   gradient norm :     0.0022246 Eh/α   predicted    -0.3740567E-04 ( -29.66%)
   displ. norm   :     0.3343853 α      lambda       -0.6980460E-04
   maximum displ.:     0.2088447 α      in ANC's #2, #6, #9, ...

........................................................................
.............................. CYCLE   37 ..............................
........................................................................

 iter      E             dE          RMSdq      gap      omega  full diag
   1    -76.4790188 -0.764790E+02  0.840E-02    3.29       0.0  T
   2    -76.4790211 -0.237592E-05  0.486E-02    3.29       1.0  T
   3    -76.4790169  0.419921E-05  0.108E-02    3.30       1.3  T
   4    -76.4790216 -0.467420E-05  0.335E-03    3.30       4.4  T
   5    -76.4790221 -0.495340E-06  0.106E-03    3.30      13.7  T
   6    -76.4790221 -0.356688E-08  0.499E-04    3.30      29.2  T
   7    -76.4790221 -0.109195E-07  0.151E-04    3.30      96.5  T
     SCC iter.                  ...        0 min,  0.018 sec
     gradient                   ...        0 min,  0.009 sec
 * total energy  :   -75.2144227 Eh     change       -0.5220789E-04 Eh
   gradient norm :     0.0047070 Eh/α   predicted    -0.3880888E-04 ( -25.66%)
   displ. norm   :     0.4196365 α      lambda       -0.6948836E-04
   maximum displ.:     0.2686113 α      in ANC's #2, #6, #9, ...

........................................................................
.............................. CYCLE   38 ..............................
........................................................................

 iter      E             dE          RMSdq      gap      omega  full diag
   1    -76.4769850 -0.764770E+02  0.107E-01    3.29       0.0  T
   2    -76.4769874 -0.234957E-05  0.626E-02    3.29       1.0  T
   3    -76.4769795  0.785864E-05  0.128E-02    3.29       1.1  T
   4    -76.4769888 -0.928784E-05  0.254E-03    3.29       5.7  T
   5    -76.4769889 -0.864859E-07  0.895E-04    3.29      16.3  T
   6    -76.4769889 -0.136148E-07  0.364E-04    3.29      40.0  T
     SCC iter.                  ...        0 min,  0.016 sec
     gradient                   ...        0 min,  0.009 sec
 * total energy  :   -75.2144756 Eh     change       -0.5287913E-04 Eh
   gradient norm :     0.0063401 Eh/α   predicted    -0.4086428E-04 ( -22.72%)
   displ. norm   :     0.4341504 α      lambda       -0.9374226E-04
   maximum displ.:     0.2727275 α      in ANC's #2, #6, #9, ...

........................................................................
.............................. CYCLE   39 ..............................
........................................................................

 iter      E             dE          RMSdq      gap      omega  full diag
   1    -76.4773304 -0.764773E+02  0.111E-01    3.29       0.0  T
   2    -76.4773331 -0.277425E-05  0.652E-02    3.29       1.0  T
   3    -76.4773233  0.981006E-05  0.142E-02    3.29       1.0  T
   4    -76.4773349 -0.115656E-04  0.255E-03    3.29       5.7  T
   5    -76.4773349 -0.191378E-07  0.989E-04    3.29      14.7  T
   6    -76.4773349 -0.174816E-07  0.400E-04    3.29      36.4  T
     SCC iter.                  ...        0 min,  0.016 sec
     gradient                   ...        0 min,  0.009 sec
 * total energy  :   -75.2145476 Eh     change       -0.7206466E-04 Eh
   gradient norm :     0.0057304 Eh/α   predicted    -0.5570827E-04 ( -22.70%)
   displ. norm   :     0.3603645 α      lambda       -0.9072209E-04
   maximum displ.:     0.2287175 α      in ANC's #2, #6, #9, ...

........................................................................
.............................. CYCLE   40 ..............................
........................................................................

 iter      E             dE          RMSdq      gap      omega  full diag
   1    -76.4785630 -0.764786E+02  0.940E-02    3.28       0.0  T
   2    -76.4785664 -0.337915E-05  0.553E-02    3.28       1.0  T
   3    -76.4785601  0.632614E-05  0.126E-02    3.28       1.2  T
   4    -76.4785675 -0.740270E-05  0.306E-03    3.28       4.8  T
   5    -76.4785677 -0.249996E-06  0.119E-03    3.28      12.2  T
   6    -76.4785677 -0.415568E-09  0.470E-04    3.28      31.0  T
   7    -76.4785677 -0.810837E-08  0.168E-04    3.28      86.7  T
     SCC iter.                  ...        0 min,  0.019 sec
     gradient                   ...        0 min,  0.009 sec
 * total energy  :   -75.2146164 Eh     change       -0.6878045E-04 Eh
   gradient norm :     0.0030209 Eh/α   predicted    -0.5125336E-04 ( -25.48%)
   displ. norm   :     0.4383754 α      lambda       -0.7877886E-04
   maximum displ.:     0.2881807 α      in ANC's #2, #6, #9, ...

........................................................................
.............................. CYCLE   41 ..............................
........................................................................

 iter      E             dE          RMSdq      gap      omega  full diag
   1    -76.4771468 -0.764771E+02  0.115E-01    3.28       0.0  T
   2    -76.4771507 -0.389879E-05  0.676E-02    3.27       1.0  T
   3    -76.4771425  0.822113E-05  0.137E-02    3.27       1.1  T
   4    -76.4771521 -0.965198E-05  0.328E-03    3.27       4.4  T
   5    -76.4771524 -0.238420E-06  0.129E-03    3.27      11.3  T
   6    -76.4771524 -0.275010E-08  0.441E-04    3.27      33.1  T
   7    -76.4771524 -0.532243E-08  0.186E-04    3.27      78.4  T
     SCC iter.                  ...        0 min,  0.018 sec
     gradient                   ...        0 min,  0.009 sec
 * total energy  :   -75.2146720 Eh     change       -0.5561499E-04 Eh
   gradient norm :     0.0036888 Eh/α   predicted    -0.4696085E-04 ( -15.56%)
   displ. norm   :     0.2816435 α      lambda       -0.1099758E-03
   maximum displ.:     0.1736232 α      in ANC's #2, #9, #6, ...

........................................................................
.............................. CYCLE   42 ..............................
........................................................................

 iter      E             dE          RMSdq      gap      omega  full diag
   1    -76.4817924 -0.764818E+02  0.810E-02    3.27       0.0  T
   2    -76.4817971 -0.468600E-05  0.475E-02    3.27       1.0  T
   3    -76.4817940  0.304876E-05  0.121E-02    3.27       1.2  T
   4    -76.4817974 -0.342406E-05  0.377E-03    3.27       3.9  T
   5    -76.4817981 -0.633109E-06  0.122E-03    3.27      12.0  T
   6    -76.4817981 -0.104372E-07  0.403E-04    3.27      36.2  T
   7    -76.4817981 -0.471358E-08  0.173E-04    3.27      84.2  T
     SCC iter.                  ...        0 min,  0.018 sec
     gradient                   ...        0 min,  0.009 sec
 * total energy  :   -75.2147162 Eh     change       -0.4419913E-04 Eh
   gradient norm :     0.0067324 Eh/α   predicted    -0.5935206E-04 (  34.28%)
   displ. norm   :     0.3809198 α      lambda       -0.8143944E-04
   maximum displ.:     0.2554340 α      in ANC's #2, #6, #9, ...
 * RMSD in coord.:     0.8616595 α      energy gain  -0.1763288E-02 Eh

generating ANC from exact Hessian ...
Using Lindh-Hessian (1995)
 Shifting diagonal of input Hessian by    9.7663340651204869E-003
 Lowest  eigenvalues of input Hessian
    0.000000    0.000000    0.000000    0.000000    0.000000    0.000000
    0.010000    0.010111    0.010488    0.010555    0.010678    0.010788
    0.010904    0.011406    0.011957    0.013897    0.014937    0.016038
 Highest eigenvalues
    2.006344    2.006709    2.011121    2.012501    2.530143    3.418514


........................................................................
.............................. CYCLE   43 ..............................
........................................................................

 iter      E             dE          RMSdq      gap      omega  full diag
   1    -76.4778791 -0.764779E+02  0.101E-01    3.26       0.0  T
   2    -76.4778809 -0.180363E-05  0.593E-02    3.26       1.0  T
   3    -76.4778740  0.689668E-05  0.118E-02    3.26       1.2  T
   4    -76.4778822 -0.812361E-05  0.180E-03    3.26       8.1  T
   5    -76.4778822 -0.423888E-08  0.772E-04    3.26      18.9  T
   6    -76.4778822 -0.191281E-07  0.275E-04    3.26      53.1  T
     SCC iter.                  ...        0 min,  0.017 sec
     gradient                   ...        0 min,  0.009 sec
 * total energy  :   -75.2147691 Eh     change       -0.5289141E-04 Eh
   gradient norm :     0.0066771 Eh/α   predicted     0.0000000E+00 (-100.00%)
   displ. norm   :     0.0489084 α      lambda       -0.6361473E-04
   maximum displ.:     0.0278308 α      in ANC's #9, #1, #4, ...

........................................................................
.............................. CYCLE   44 ..............................
........................................................................

 iter      E             dE          RMSdq      gap      omega  full diag
   1    -76.4793525 -0.764794E+02  0.174E-02    3.27       0.0  T
   2    -76.4793532 -0.667507E-06  0.101E-02    3.27       1.4  T
   3    -76.4793532  0.300783E-07  0.439E-03    3.27       3.3  T
   4    -76.4793532 -0.396788E-07  0.132E-03    3.27      11.1  T
   5    -76.4793533 -0.764319E-07  0.380E-04    3.27      38.4  T
   6    -76.4793533 -0.115139E-08  0.140E-04    3.27     103.9  T
     SCC iter.                  ...        0 min,  0.016 sec
     gradient                   ...        0 min,  0.009 sec
 * total energy  :   -75.2148201 Eh     change       -0.5097573E-04 Eh
   gradient norm :     0.0037989 Eh/α   predicted    -0.3188536E-04 ( -37.45%)
   displ. norm   :     0.1385765 α      lambda       -0.9783224E-04
   maximum displ.:     0.0815533 α      in ANC's #9, #1, #4, ...

........................................................................
.............................. CYCLE   45 ..............................
........................................................................

 iter      E             dE          RMSdq      gap      omega  full diag
   1    -76.4809454 -0.764809E+02  0.447E-02    3.27       0.0  T
   2    -76.4809486 -0.324881E-05  0.258E-02    3.28       1.0  T
   3    -76.4809483  0.386083E-06  0.100E-02    3.28       1.5  T
   4    -76.4809486 -0.374036E-06  0.305E-03    3.28       4.8  T
   5    -76.4809491 -0.441854E-06  0.893E-04    3.28      16.3  T
   6    -76.4809491 -0.613126E-08  0.306E-04    3.28      47.7  T
     SCC iter.                  ...        0 min,  0.019 sec
     gradient                   ...        0 min,  0.009 sec
 * total energy  :   -75.2148861 Eh     change       -0.6603679E-04 Eh
   gradient norm :     0.0024078 Eh/α   predicted    -0.4985892E-04 ( -24.50%)
   displ. norm   :     0.1281290 α      lambda       -0.4897000E-04
   maximum displ.:     0.0743915 α      in ANC's #9, #1, #4, ...

........................................................................
.............................. CYCLE   46 ..............................
........................................................................

 iter      E             dE          RMSdq      gap      omega  full diag
   1    -76.4809911 -0.764810E+02  0.404E-02    3.28       0.0  T
   2    -76.4809923 -0.118035E-05  0.233E-02    3.28       1.0  T
   3    -76.4809916  0.682311E-06  0.686E-03    3.28       2.1  T
   4    -76.4809923 -0.688341E-06  0.219E-03    3.28       6.6  T
   5    -76.4809926 -0.243341E-06  0.593E-04    3.28      24.6  T
   6    -76.4809926 -0.182236E-08  0.228E-04    3.28      63.9  T
     SCC iter.                  ...        0 min,  0.016 sec
     gradient                   ...        0 min,  0.009 sec
 * total energy  :   -75.2149260 Eh     change       -0.3980708E-04 Eh
   gradient norm :     0.0042609 Eh/α   predicted    -0.2488767E-04 ( -37.48%)
   displ. norm   :     0.1778147 α      lambda       -0.6201999E-04
   maximum displ.:     0.0986608 α      in ANC's #9, #1, #4, ...

........................................................................
.............................. CYCLE   47 ..............................
........................................................................

 iter      E             dE          RMSdq      gap      omega  full diag
   1    -76.4802181 -0.764802E+02  0.560E-02    3.29       0.0  T
   2    -76.4802189 -0.806242E-06  0.324E-02    3.29       1.0  T
   3    -76.4802172  0.174453E-05  0.710E-03    3.29       2.1  T
   4    -76.4802191 -0.191710E-05  0.197E-03    3.29       7.4  T
   5    -76.4802193 -0.180916E-06  0.558E-04    3.29      26.1  T
   6    -76.4802193 -0.153452E-08  0.252E-04    3.29      58.0  T
     SCC iter.                  ...        0 min,  0.016 sec
     gradient                   ...        0 min,  0.009 sec
 * total energy  :   -75.2149766 Eh     change       -0.5068465E-04 Eh
   gradient norm :     0.0048408 Eh/α   predicted    -0.3199093E-04 ( -36.88%)
   displ. norm   :     0.2395938 α      lambda       -0.7129533E-04
   maximum displ.:     0.1298990 α      in ANC's #9, #1, #4, ...

........................................................................
.............................. CYCLE   48 ..............................
........................................................................

 iter      E             dE          RMSdq      gap      omega  full diag
   1    -76.4789811 -0.764790E+02  0.749E-02    3.29       0.0  T
   2    -76.4789819 -0.817022E-06  0.437E-02    3.29       1.0  T
   3    -76.4789789  0.301719E-05  0.793E-03    3.29       1.8  T
   4    -76.4789824 -0.346022E-05  0.158E-03    3.29       9.3  T
   5    -76.4789824 -0.731337E-07  0.548E-04    3.29      26.6  T
   6    -76.4789824 -0.588635E-08  0.268E-04    3.29      54.4  T
     SCC iter.                  ...        0 min,  0.017 sec
     gradient                   ...        0 min,  0.009 sec
 * total energy  :   -75.2150311 Eh     change       -0.5448361E-04 Eh
   gradient norm :     0.0043421 Eh/α   predicted    -0.3769550E-04 ( -30.81%)
   displ. norm   :     0.2487597 α      lambda       -0.6174256E-04
   maximum displ.:     0.1331113 α      in ANC's #9, #1, #4, ...

........................................................................
.............................. CYCLE   49 ..............................
........................................................................

 iter      E             dE          RMSdq      gap      omega  full diag
   1    -76.4780616 -0.764781E+02  0.769E-02    3.29       0.0  T
   2    -76.4780629 -0.125119E-05  0.449E-02    3.29       1.0  T
   3    -76.4780599  0.295379E-05  0.781E-03    3.29       1.9  T
   4    -76.4780633 -0.334640E-05  0.194E-03    3.29       7.5  T
   5    -76.4780634 -0.156152E-06  0.563E-04    3.29      25.9  T
   6    -76.4780634 -0.329990E-09  0.326E-04    3.29      44.8  T
     SCC iter.                  ...        0 min,  0.016 sec
     gradient                   ...        0 min,  0.009 sec
 * total energy  :   -75.2150774 Eh     change       -0.4623477E-04 Eh
   gradient norm :     0.0036058 Eh/α   predicted    -0.3278269E-04 ( -29.10%)
   displ. norm   :     0.2382193 α      lambda       -0.6138101E-04
   maximum displ.:     0.1256209 α      in ANC's #9, #1, #4, ...

........................................................................
.............................. CYCLE   50 ..............................
........................................................................

 iter      E             dE          RMSdq      gap      omega  full diag
   1    -76.4779918 -0.764780E+02  0.727E-02    3.29       0.0  T
   2    -76.4779940 -0.219772E-05  0.424E-02    3.29       1.0  T
   3    -76.4779911  0.290431E-05  0.891E-03    3.29       1.6  T
   4    -76.4779943 -0.320264E-05  0.263E-03    3.29       5.5  T
   5    -76.4779946 -0.357637E-06  0.684E-04    3.29      21.3  T
   6    -76.4779946 -0.981473E-09  0.327E-04    3.29      44.5  T
     SCC iter.                  ...        0 min,  0.016 sec
     gradient                   ...        0 min,  0.009 sec
 * total energy  :   -75.2151241 Eh     change       -0.4670510E-04 Eh
   gradient norm :     0.0032959 Eh/α   predicted    -0.3243539E-04 ( -30.55%)
   displ. norm   :     0.2186849 α      lambda       -0.6471488E-04
   maximum displ.:     0.1130230 α      in ANC's #9, #1, #5, ...

........................................................................
.............................. CYCLE   51 ..............................
........................................................................

 iter      E             dE          RMSdq      gap      omega  full diag
   1    -76.4789625 -0.764790E+02  0.662E-02    3.29       0.0  T
   2    -76.4789655 -0.300688E-05  0.383E-02    3.29       1.0  T
   3    -76.4789623  0.321941E-05  0.108E-02    3.28       1.4  T
   4    -76.4789660 -0.367297E-05  0.300E-03    3.28       4.9  T
   5    -76.4789664 -0.442901E-06  0.847E-04    3.28      17.2  T
   6    -76.4789664 -0.285320E-08  0.342E-04    3.28      42.6  T
     SCC iter.                  ...        0 min,  0.016 sec
     gradient                   ...        0 min,  0.009 sec
 * total energy  :   -75.2151712 Eh     change       -0.4714320E-04 Eh
   gradient norm :     0.0036410 Eh/α   predicted    -0.3390610E-04 ( -28.08%)
   displ. norm   :     0.2083341 α      lambda       -0.4656219E-04
   maximum displ.:     0.1120838 α      in ANC's #9, #1, #5, ...

........................................................................
.............................. CYCLE   52 ..............................
........................................................................

 iter      E             dE          RMSdq      gap      omega  full diag
   1    -76.4795571 -0.764796E+02  0.628E-02    3.28       0.0  T
   2    -76.4795589 -0.188541E-05  0.364E-02    3.28       1.0  T
   3    -76.4795547  0.420261E-05  0.104E-02    3.28       1.4  T
   4    -76.4795597 -0.497453E-05  0.186E-03    3.28       7.9  T
   5    -76.4795598 -0.133083E-06  0.709E-04    3.28      20.6  T
   6    -76.4795598 -0.251292E-08  0.309E-04    3.28      47.2  T
     SCC iter.                  ...        0 min,  0.016 sec
     gradient                   ...        0 min,  0.009 sec
 * total energy  :   -75.2152073 Eh     change       -0.3614161E-04 Eh
   gradient norm :     0.0035461 Eh/α   predicted    -0.2429443E-04 ( -32.78%)
   displ. norm   :     0.2485079 α      lambda       -0.5287173E-04
   maximum displ.:     0.1388521 α      in ANC's #9, #1, #8, ...

........................................................................
.............................. CYCLE   53 ..............................
........................................................................

 iter      E             dE          RMSdq      gap      omega  full diag
   1    -76.4800430 -0.764800E+02  0.748E-02    3.28       0.0  T
   2    -76.4800448 -0.179504E-05  0.437E-02    3.28       1.0  T
   3    -76.4800381  0.671430E-05  0.121E-02    3.28       1.2  T
   4    -76.4800460 -0.790579E-05  0.126E-03    3.28      11.6  T
   5    -76.4800461 -0.194686E-07  0.707E-04    3.28      20.6  T
   6    -76.4800461 -0.684409E-08  0.290E-04    3.28      50.2  T
     SCC iter.                  ...        0 min,  0.016 sec
     gradient                   ...        0 min,  0.009 sec
 * total energy  :   -75.2152507 Eh     change       -0.4335755E-04 Eh
   gradient norm :     0.0025290 Eh/α   predicted    -0.2806983E-04 ( -35.26%)
   displ. norm   :     0.3351430 α      lambda       -0.7355215E-04
   maximum displ.:     0.1907402 α      in ANC's #9, #1, #8, ...

........................................................................
.............................. CYCLE   54 ..............................
........................................................................

 iter      E             dE          RMSdq      gap      omega  full diag
   1    -76.4801276 -0.764801E+02  0.101E-01    3.28       0.0  T
   2    -76.4801300 -0.242596E-05  0.591E-02    3.27       1.0  T
   3    -76.4801190  0.110227E-04  0.150E-02    3.28       1.0  T
   4    -76.4801318 -0.128792E-04  0.143E-03    3.27      10.2  T
   5    -76.4801318  0.519023E-09  0.819E-04    3.27      17.8  T
   6    -76.4801319 -0.184122E-07  0.267E-04    3.27      54.6  T
     SCC iter.                  ...        0 min,  0.016 sec
     gradient                   ...        0 min,  0.009 sec
 * total energy  :   -75.2153125 Eh     change       -0.6174635E-04 Eh
   gradient norm :     0.0021603 Eh/α   predicted    -0.4091296E-04 ( -33.74%)
   displ. norm   :     0.3623857 α      lambda       -0.9380742E-04
   maximum displ.:     0.1973162 α      in ANC's #1, #9, #8, ...

........................................................................
.............................. CYCLE   55 ..............................
........................................................................

 iter      E             dE          RMSdq      gap      omega  full diag
   1    -76.4806567 -0.764807E+02  0.107E-01    3.27       0.0  T
   2    -76.4806590 -0.236415E-05  0.629E-02    3.27       1.0  T
   3    -76.4806496  0.939880E-05  0.139E-02    3.27       1.0  T
   4    -76.4806606 -0.110137E-04  0.184E-03    3.27       7.9  T
   5    -76.4806607 -0.379330E-07  0.810E-04    3.27      18.0  T
   6    -76.4806607 -0.697857E-08  0.332E-04    3.27      43.9  T
     SCC iter.                  ...        0 min,  0.017 sec
     gradient                   ...        0 min,  0.009 sec
 * total energy  :   -75.2153914 Eh     change       -0.7897521E-04 Eh
   gradient norm :     0.0042715 Eh/α   predicted    -0.5308028E-04 ( -32.79%)
   displ. norm   :     0.4449221 α      lambda       -0.1130930E-03
   maximum displ.:     0.2381819 α      in ANC's #9, #1, #8, ...

........................................................................
.............................. CYCLE   56 ..............................
........................................................................

 iter      E             dE          RMSdq      gap      omega  full diag
   1    -76.4792383 -0.764792E+02  0.131E-01    3.27       0.0  T
   2    -76.4792412 -0.290444E-05  0.768E-02    3.27       1.0  T
   3    -76.4792300  0.112036E-04  0.151E-02    3.27       1.0  T
   4    -76.4792431 -0.131272E-04  0.251E-03    3.27       5.8  T
   5    -76.4792432 -0.710770E-07  0.960E-04    3.27      15.2  T
   6    -76.4792432 -0.187173E-07  0.424E-04    3.27      34.4  T
     SCC iter.                  ...        0 min,  0.016 sec
     gradient                   ...        0 min,  0.009 sec
 * total energy  :   -75.2154833 Eh     change       -0.9186853E-04 Eh
   gradient norm :     0.0063594 Eh/α   predicted    -0.6774189E-04 ( -26.26%)
   displ. norm   :     0.5086545 α      lambda       -0.1719837E-03
   maximum displ.:     0.2670257 α      in ANC's #8, #1, #7, ...

........................................................................
.............................. CYCLE   57 ..............................
........................................................................

 iter      E             dE          RMSdq      gap      omega  full diag
   1    -76.4809738 -0.764810E+02  0.144E-01    3.27       0.0  T
   2    -76.4809780 -0.412302E-05  0.839E-02    3.27       1.0  T
   3    -76.4809677  0.102463E-04  0.163E-02    3.27       1.0  T
   4    -76.4809794 -0.117227E-04  0.460E-03    3.28       3.2  T
   5    -76.4809800 -0.532883E-06  0.158E-03    3.28       9.2  T
   6    -76.4809800 -0.406462E-07  0.645E-04    3.28      22.6  T
   7    -76.4809800 -0.162417E-07  0.247E-04    3.28      59.1  T
     SCC iter.                  ...        0 min,  0.018 sec
     gradient                   ...        0 min,  0.009 sec
[...]
          :  GBSA solvation                  false          :
          :  PC potential                    false          :
          :  electronic temp.          300.0000000     K    :
          :  accuracy                    1.0000000          :
          :  -> integral cutoff          0.2500000E+02      :
          :  -> integral neglect         0.1000000E-07      :
          :  -> SCF convergence          0.1000000E-05 Eh   :
          :  -> wf. convergence          0.1000000E-03 e    :
          :  Broyden damping             0.4000000          :
          :  net charge                          1          :
          :  unpaired electrons                  0          :
          ...................................................

 iter      E             dE          RMSdq      gap      omega  full diag
   1    -76.4851894 -0.764852E+02  0.460E-05    3.36       0.0  T
   2    -76.4851894 -0.134435E-10  0.320E-05    3.36     456.3  T
   3    -76.4851894 -0.274980E-10  0.193E-05    3.36     756.8  T

   *** convergence criteria satisfied after 3 iterations ***

         #    Occupation            Energy/Eh            Energy/eV
      -------------------------------------------------------------
         1        2.0000           -0.8916011             -24.2617
       ...           ...                  ...                  ...
        63        2.0000           -0.5367456             -14.6056
        64        2.0000           -0.5349341             -14.5563
        65        2.0000           -0.5286110             -14.3842
        66        2.0000           -0.5254472             -14.2981
        67        2.0000           -0.5253089             -14.2944
        68        2.0000           -0.5245781             -14.2745
        69        2.0000           -0.5179452             -14.0940 (HOMO)
        70                         -0.3943545             -10.7309 (LUMO)
        71                         -0.3809259             -10.3655
        72                         -0.3781720             -10.2906
        73                         -0.3625794              -9.8663
        74                         -0.3577263              -9.7342
       ...                                ...                  ...
       141                          1.0925365              29.7294
      -------------------------------------------------------------
                  HL-Gap            0.1235907 Eh            3.3631 eV
             Fermi-level           -0.4561499 Eh          -12.4125 eV

 SCC (total)                   0 d,  0 h,  0 min,  0.021 sec
 SCC setup                      ...        0 min,  0.000 sec (  0.502%)
 Dispersion                     ...        0 min,  0.000 sec (  1.494%)
 classical contributions        ...        0 min,  0.000 sec (  0.209%)
 integral evaluation            ...        0 min,  0.003 sec ( 13.471%)
 iterations                     ...        0 min,  0.008 sec ( 39.137%)
 molecular gradient             ...        0 min,  0.009 sec ( 44.229%)
 printout                       ...        0 min,  0.000 sec (  0.878%)

         :::::::::::::::::::::::::::::::::::::::::::::::::::::
         ::                     SUMMARY                     ::
         :::::::::::::::::::::::::::::::::::::::::::::::::::::
         :: total energy             -75.221836849737 Eh    ::
         :: gradient norm              0.000523175901 Eh/a0 ::
         :: HOMO-LUMO gap              3.363074801535 eV    ::
         ::.................................................::
         :: SCC energy               -76.484109900389 Eh    ::
         :: -> isotropic ES            0.120904655084 Eh    ::
         :: -> anisotropic ES         -0.022845891673 Eh    ::
         :: -> anisotropic XC          0.042261619563 Eh    ::
         :: -> dispersion             -0.067756192898 Eh    ::
         :: repulsion energy           1.262273050651 Eh    ::
         :: add. restraining           0.000000000000 Eh    ::
         :: total charge               1.000000000000 e     ::
         :::::::::::::::::::::::::::::::::::::::::::::::::::::

           -------------------------------------------------
          |                Property Printout                |
           -------------------------------------------------

    * Orbital Energies and Occupations

         #    Occupation            Energy/Eh            Energy/eV
      -------------------------------------------------------------
         1        2.0000           -0.8916011             -24.2617
       ...           ...                  ...                  ...
        57        2.0000           -0.5502802             -14.9739
        58        2.0000           -0.5492497             -14.9458
        59        2.0000           -0.5464823             -14.8705
        60        2.0000           -0.5427405             -14.7687
        61        2.0000           -0.5398064             -14.6889
        62        2.0000           -0.5386974             -14.6587
        63        2.0000           -0.5367456             -14.6056
        64        2.0000           -0.5349341             -14.5563
        65        2.0000           -0.5286110             -14.3842
        66        2.0000           -0.5254472             -14.2981
        67        2.0000           -0.5253089             -14.2944
        68        2.0000           -0.5245781             -14.2745
        69        2.0000           -0.5179452             -14.0940 (HOMO)
        70                         -0.3943545             -10.7309 (LUMO)
        71                         -0.3809259             -10.3655
        72                         -0.3781720             -10.2906
        73                         -0.3625794              -9.8663
        74                         -0.3577263              -9.7342
        75                         -0.3525785              -9.5942
        76                         -0.3438301              -9.3561
        77                         -0.3432222              -9.3396
        78                         -0.3280179              -8.9258
        79                         -0.3166550              -8.6166
        80                         -0.2656442              -7.2285
       ...                                ...                  ...
       141                          1.0925365              29.7294
      -------------------------------------------------------------
                  HL-Gap            0.1235907 Eh            3.3631 eV
             Fermi-level           -0.4561499 Eh          -12.4125 eV

     #   Z          covCN         q      C6AA      α(0)
     1   6 C        2.967    -0.012    28.310     8.727
     2   6 C        2.969    -0.029    28.732     8.792
     3   6 C        2.920    -0.017    28.432     8.744
     4   6 C        2.919    -0.015    28.393     8.738
     5   6 C        2.922    -0.018    28.469     8.750
     6   6 C        2.934    -0.030    28.750     8.794
     7  16 S        3.282     0.311   128.998    19.116
     8   6 C        2.996     0.008    27.833     8.654
     9   6 C        3.002    -0.087    30.166     9.009
    10   6 C        2.951    -0.021    28.536     8.762
    11   6 C        2.919    -0.013    28.327     8.728
    12   6 C        2.921    -0.015    28.381     8.736
    13   6 C        2.942    -0.026    28.662     8.781
    14  16 S        3.862     1.007   106.443    17.364
    15   8 O        0.860    -0.538    24.647     6.656
    16   8 O        0.968    -0.557    25.027     6.710
    17   6 C        2.974    -0.077    29.918     8.972
    18   6 C        2.963    -0.026    28.649     8.779
    19   6 C        2.922    -0.017    28.433     8.744
    20   6 C        2.920    -0.015    28.379     8.736
    21   6 C        2.922    -0.016    28.419     8.742
    22   6 C        2.959    -0.023    28.584     8.769
    23   6 C        2.973     0.009    27.805     8.649
    24   6 C        2.940    -0.025    28.636     8.776
    25   6 C        2.924    -0.014    28.353     8.732
    26   6 C        2.919    -0.013    28.342     8.730
    27   6 C        2.923    -0.014    28.367     8.734
    28   6 C        2.974    -0.021    28.516     8.759
    29   1 H        0.926     0.060     2.201     2.320
    30   1 H        0.926     0.072     2.065     2.247
    31   1 H        0.926     0.072     2.061     2.245
    32   1 H        0.926     0.069     2.101     2.267
    33   1 H        0.926     0.053     2.278     2.360
    34   1 H        0.926     0.067     2.115     2.274
    35   1 H        0.926     0.085     1.927     2.171
    36   1 H        0.926     0.085     1.933     2.174
    37   1 H        0.926     0.073     2.055     2.242
    38   1 H        0.926     0.054     2.276     2.359
    39   1 H        0.926     0.070     2.086     2.259
    40   1 H        0.926     0.073     2.051     2.240
    41   1 H        0.926     0.073     2.054     2.241
    42   1 H        0.926     0.073     2.055     2.242
    43   1 H        0.926     0.042     2.418     2.432
    44   1 H        0.926     0.070     2.085     2.258
    45   1 H        0.926     0.074     2.046     2.237
    46   1 H        0.926     0.074     2.044     2.236
    47   1 H        0.926     0.067     2.115     2.274

 Mol. C6AA /au·bohr⁶  :      35048.224713
 Mol. C8AA /au·bohr⁸  :     962106.222033
 Mol. α(0) /au        :        303.263731


Wiberg/Mayer (AO) data.
largest (>0.10) Wiberg bond orders for each atom

 ---------------------------------------------------------------------------
     #   Z sym  total        # sym  WBO       # sym  WBO       # sym  WBO
 ---------------------------------------------------------------------------
     1   6 C    3.948 --     6 C    1.410     2 C    1.405     7 S    0.929
                             4 C    0.104
     2   6 C    3.987 --     3 C    1.441     1 C    1.405    29 H    0.966
                             5 C    0.108
     3   6 C    3.986 --     2 C    1.441     4 C    1.437    30 H    0.966
                             6 C    0.109
     4   6 C    3.986 --     3 C    1.437     5 C    1.435    31 H    0.967
                             1 C    0.104
     5   6 C    3.987 --     6 C    1.439     4 C    1.435    32 H    0.966
                             2 C    0.108
     6   6 C    3.989 --     5 C    1.439     1 C    1.410    33 H    0.961
                             3 C    0.109
     7  16 S    3.189 --     8 C    0.941     1 C    0.929    23 C    0.924
                            16 O    0.117
     8   6 C    3.959 --    13 C    1.413     9 C    1.395     7 S    0.941
                            11 C    0.104
     9   6 C    3.972 --    10 C    1.428     8 C    1.395    14 S    0.761
                            12 C    0.106
    10   6 C    3.986 --    11 C    1.431     9 C    1.428    34 H    0.962
                            13 C    0.106
    11   6 C    3.984 --    12 C    1.438    10 C    1.431    35 H    0.964
                             8 C    0.104
    12   6 C    3.985 --    11 C    1.438    13 C    1.432    36 H    0.963
                             9 C    0.106
    13   6 C    3.984 --    12 C    1.432     8 C    1.413    37 H    0.958
                            10 C    0.106
    14  16 S    4.881 --    15 O    1.680    16 O    1.568     9 C    0.761
                            17 C    0.759
    15   8 O    1.975 --    14 S    1.680    16 O    0.103
    16   8 O    1.974 --    14 S    1.568     7 S    0.117    15 O    0.103
    17   6 C    3.954 --    22 C    1.415    18 C    1.411    14 S    0.759
                            20 C    0.104
    18   6 C    3.989 --    19 C    1.443    17 C    1.411    38 H    0.966
                            21 C    0.111
    19   6 C    3.988 --    18 C    1.443    20 C    1.434    39 H    0.967
                            22 C    0.109
    20   6 C    3.985 --    21 C    1.440    19 C    1.434    40 H    0.967
                            17 C    0.104
    21   6 C    3.987 --    20 C    1.440    22 C    1.435    41 H    0.966
                            18 C    0.111
    22   6 C    3.985 --    21 C    1.435    17 C    1.415    42 H    0.962
                            19 C    0.109
    23   6 C    3.935 --    24 C    1.409    28 C    1.408     7 S    0.924
                            26 C    0.104
    24   6 C    3.989 --    25 C    1.432    23 C    1.409    43 H    0.964
                            27 C    0.109
    25   6 C    3.987 --    26 C    1.438    24 C    1.432    44 H    0.965
                            28 C    0.109
    26   6 C    3.986 --    25 C    1.438    27 C    1.436    45 H    0.967
                            23 C    0.104
    27   6 C    3.986 --    28 C    1.438    26 C    1.436    46 H    0.965
                            24 C    0.109
    28   6 C    3.986 --    27 C    1.438    23 C    1.408    47 H    0.965
                            25 C    0.109
    29   1 H    0.996 --     2 C    0.966
    30   1 H    0.994 --     3 C    0.966
    31   1 H    0.994 --     4 C    0.967
    32   1 H    0.995 --     5 C    0.966
    33   1 H    0.997 --     6 C    0.961
    34   1 H    0.995 --    10 C    0.962
    35   1 H    0.991 --    11 C    0.964
    36   1 H    0.992 --    12 C    0.963
    37   1 H    0.994 --    13 C    0.958
    38   1 H    0.997 --    18 C    0.966
    39   1 H    0.994 --    19 C    0.967
    40   1 H    0.994 --    20 C    0.967
    41   1 H    0.993 --    21 C    0.966
    42   1 H    0.995 --    22 C    0.962
    43   1 H    0.998 --    24 C    0.964
    44   1 H    0.995 --    25 C    0.965
    45   1 H    0.993 --    26 C    0.967
    46   1 H    0.994 --    27 C    0.965
    47   1 H    0.995 --    28 C    0.965
 ---------------------------------------------------------------------------

Topologies differ in total number of bonds
Writing topology from bond orders to xtbtopo.mol

molecular dipole:
                 x           y           z       tot (Debye)
 q only:        4.480       0.082       1.557
   full:        4.691       0.120       1.509      12.530
molecular quadrupole (traceless):
                xx          xy          yy          xz          yz          zz
 q only:       25.483      27.049       1.368      -6.369     -12.659     -26.851
  q+dip:       30.403      25.182      -2.697      -5.367     -13.890     -27.706
   full:       27.654      25.987      -1.229      -6.207     -12.638     -26.424

           -------------------------------------------------
          |                Geometry Summary                 |
           -------------------------------------------------

      molecular mass/u    :      403.5369205
   center of mass at/Å    :        3.0234002      -0.3981826       0.0521054
  moments of inertia/u·Å² :        0.1776804E+04   0.4224109E+04   0.4968730E+04
rotational constants/cm⁻¹ :        0.9487613E-02   0.3990813E-02   0.3392745E-02

 * 48 selected distances

     #   Z          #   Z                                           value/Å
     1   6 C        2   6 C                                       1.3882002
     2   6 C        3   6 C                                       1.3845716
     3   6 C        4   6 C                                       1.3858234
     4   6 C        5   6 C                                       1.3860819
     1   6 C        6   6 C                                       1.3858131
     5   6 C        6   6 C                                       1.3850975
     8   6 C        9   6 C                                       1.3863317
     9   6 C       10   6 C                                       1.3819070
    10   6 C       11   6 C                                       1.3865882
    11   6 C       12   6 C                                       1.3858120
     8   6 C       13   6 C                                       1.3869602
    12   6 C       13   6 C                                       1.3867547
     9   6 C       14  16 S                                       1.8112993 (max)
    14  16 S       15   8 O                                       1.4327415
    14  16 S       16   8 O                                       1.4511220
    14  16 S       17   6 C                                       1.7833763
    17   6 C       18   6 C                                       1.3827479
    18   6 C       19   6 C                                       1.3848758
    19   6 C       20   6 C                                       1.3876504
    20   6 C       21   6 C                                       1.3867700
    17   6 C       22   6 C                                       1.3821578
    21   6 C       22   6 C                                       1.3858480
     7  16 S       23   6 C                                       1.7981998
    23   6 C       24   6 C                                       1.3839263
    24   6 C       25   6 C                                       1.3850265
    25   6 C       26   6 C                                       1.3847804
    26   6 C       27   6 C                                       1.3855128
    23   6 C       28   6 C                                       1.3845367
    27   6 C       28   6 C                                       1.3838929
     2   6 C       29   1 H                                       1.0790766
     3   6 C       30   1 H                                       1.0783659
     4   6 C       31   1 H                                       1.0786238
     5   6 C       32   1 H                                       1.0787581
     6   6 C       33   1 H                                       1.0785936
    10   6 C       34   1 H                                       1.0789907
    11   6 C       35   1 H                                       1.0783364
    12   6 C       36   1 H                                       1.0786178
    13   6 C       37   1 H                                       1.0786857
    18   6 C       38   1 H                                       1.0788495
    19   6 C       39   1 H                                       1.0786955
    20   6 C       40   1 H                                       1.0791235
    21   6 C       41   1 H                                       1.0786969
    22   6 C       42   1 H                                       1.0787029
    24   6 C       43   1 H                                       1.0799545
    25   6 C       44   1 H                                       1.0785390
    26   6 C       45   1 H                                       1.0787248
    27   6 C       46   1 H                                       1.0785614
    28   6 C       47   1 H                                       1.0782644 (min)

 * 4 distinct bonds (by element types)

   Z      Z             #   av. dist./Å        max./Å        min./Å
   1 H    6 C          19     1.0787453     1.0799545     1.0782644
   6 C    6 C          24     1.3853194     1.3882002     1.3819070
   6 C   16 S           3     1.7976251     1.8112993     1.7833763
   8 O   16 S           2     1.4419317     1.4511220     1.4327415


optimized geometry written to: xtbopt.xyz


           -------------------------------------------------
          | TOTAL ENERGY              -75.221836849737 Eh   |
          | GRADIENT NORM               0.000523175901 Eh/α |
          | HOMO-LUMO GAP               3.363074801535 eV   |
           -------------------------------------------------

------------------------------------------------------------------------
 * finished run on 2024/12/20 at 06:53:56.553     
------------------------------------------------------------------------
 total:
 * wall-time:     0 d,  0 h,  0 min,  5.090 sec
 *  cpu-time:     0 d,  0 h,  0 min, 40.172 sec
 * ratio c/w:     7.893 speedup
 SCF:
 * wall-time:     0 d,  0 h,  0 min,  0.052 sec
 *  cpu-time:     0 d,  0 h,  0 min,  0.414 sec
 * ratio c/w:     7.953 speedup
 ANC optimizer:
 * wall-time:     0 d,  0 h,  0 min,  5.018 sec
 *  cpu-time:     0 d,  0 h,  0 min, 39.617 sec
 * ratio c/w:     7.895 speedup

