      -----------------------------------------------------------      
     |                   =====================                   |     
     |                           x T B                           |     
     |                   =====================                   |     
     |                         S. Grimme                         |     
     |          Mulliken Center for Theoretical Chemistry        |     
     |                    University of Bonn                     |     
      -----------------------------------------------------------      

   * xtb version 6.7.1 (edcfbbe) compiled by 'conda@3ef47c1a292c' on 2024-11-25

   xtb is free software: you can redistribute it and/or modify it under
   the terms of the GNU Lesser General Public License as published by
   the Free Software Foundation, either version 3 of the License, or
   (at your option) any later version.
   
   xtb is distributed in the hope that it will be useful,
   but WITHOUT ANY WARRANTY; without even the implied warranty of
   MERCHANTABILITY or FITNESS FOR A PARTICULAR PURPOSE.  See the
   GNU Lesser General Public License for more details.
   
   Cite this work as:
   * C. Bannwarth, E. Caldeweyher, S. Ehlert, A. Hansen, P. Pracht,
     J. Seibert, S. Spicher, S. Grimme, WIREs Comput. Mol. Sci., 2020, 11,
     e01493. DOI: 10.1002/wcms.1493
   
   for GFN2-xTB:
   * C. Bannwarth, S. Ehlert and S. Grimme., J. Chem. Theory Comput., 2019,
     15, 1652-1671. DOI: 10.1021/acs.jctc.8b01176
   for GFN1-xTB:
   * S. Grimme, C. Bannwarth, P. Shushkov, J. Chem. Theory Comput., 2017,
     13, 1989-2009. DOI: 10.1021/acs.jctc.7b00118
   for GFN0-xTB:
   * P. Pracht, E. Caldeweyher, S. Ehlert, S. Grimme, ChemRxiv, 2019, preprint.
     DOI: 10.26434/chemrxiv.8326202.v1
   for GFN-FF:
   * S. Spicher and S. Grimme, Angew. Chem. Int. Ed., 2020, 59, 15665-15673.
     DOI: 10.1002/anie.202004239
   
   for ALPB and GBSA implicit solvation:
   * S. Ehlert, M. Stahn, S. Spicher, S. Grimme, J. Chem. Theory Comput.,
     2021, 17, 4250-4261. DOI: 10.1021/acs.jctc.1c00471
   
   for ddCOSMO and CPCM-X implicit solvation:
   * M. Stahn, S. Ehlert, S. Grimme, J. Phys. Chem. A,
     2023, XX, XXXX-XXXX. DOI: 10.1021/acs.jpca.3c04382
   
   for DFT-D4:
   * E. Caldeweyher, C. Bannwarth and S. Grimme, J. Chem. Phys., 2017,
     147, 034112. DOI: 10.1063/1.4993215
   * E. Caldeweyher, S. Ehlert, A. Hansen, H. Neugebauer, S. Spicher,
     C. Bannwarth and S. Grimme, J. Chem. Phys., 2019, 150, 154122.
     DOI: 10.1063/1.5090222
   * E. Caldeweyher, J.-M. Mewes, S. Ehlert and S. Grimme, Phys. Chem. Chem. Phys.
     2020, 22, 8499-8512. DOI: 10.1039/D0CP00502A
   
   for sTDA-xTB:
   * S. Grimme and C. Bannwarth, J. Chem. Phys., 2016, 145, 054103.
     DOI: 10.1063/1.4959605
   
   in the mass-spec context:
   * V. Asgeirsson, C. Bauer and S. Grimme, Chem. Sci., 2017, 8, 4879.
     DOI: 10.1039/c7sc00601b
   * J. Koopman and S. Grimme, ACS Omega 2019, 4, 12, 15120-15133.
     DOI: 10.1021/acsomega.9b02011
   
   for metadynamics refer to:
   * S. Grimme, J. Chem. Theory Comput., 2019, 155, 2847-2862
     DOI: 10.1021/acs.jctc.9b00143
   
   for SPH calculations refer to:
   * S. Spicher and S. Grimme, J. Chem. Theory Comput., 2021, 17, 1701-1714
     DOI: 10.1021/acs.jctc.0c01306
   
   for ONIOM refer to:
   * C. Plett, A. Katbashev, S. Ehlert, S. Grimme, M. Bursch,
     Phys. Chem. Chem. Phys., 2023, 25, 17860-17868. DOI: 10.1039/D3CP02178E
   
   for DIPRO refer to:
   * J. Kohn, N. Gildemeister, S. Grimme, D. Fazzi, A. Hansen,
     J. Chem. Phys., 2023, just accepted.
   
   for PTB refer to:
   * S. Grimme, M. Mueller, A. Hansen, J. Chem. Phys., 2023, 158, 124111.
     DOI: 10.1063/5.0137838
   
   with help from (in alphabetical order)
   P. Atkinson, C. Bannwarth, F. Bohle, G. Brandenburg, E. Caldeweyher
   M. Checinski, S. Dohm, S. Ehlert, S. Ehrlich, I. Gerasimov, C. Hölzer
   A. Katbashev, J. Kohn, J. Koopman, C. Lavigne, S. Lehtola, F. März, M. Müller,
   F. Musil, H. Neugebauer, J. Pisarek, C. Plett, P. Pracht, F. Pultar,
   J. Seibert, P. Shushkov, S. Spicher, M. Stahn, M. Steiner, T. Strunk,
   J. Stückrath, T. Rose, and J. Unsleber
   
 * started run on 2024/12/20 at 06:53:43.019     
   ID    Z sym.   atoms
    1    8 O      1
    2    6 C      2, 3, 5, 6, 8, 9
    3    7 N      4, 7
    4    1 H      10-20

           -------------------------------------------------
          |                Calculation Setup                |
           -------------------------------------------------

          program call               : xtb C0695.xyz --opt --namespace C0695 --charge +1
          calculation namespace      : C0695
          coordinate file            : C0695.xyz
          omp threads                :                     8


           -------------------------------------------------
          |                 G F N 2 - x T B                 |
           -------------------------------------------------

        Reference                      10.1021/acs.jctc.8b01176
      * Hamiltonian:
        H0-scaling (s, p, d)           1.850000    2.230000    2.230000
        zeta-weighting                 0.500000
      * Dispersion:
        s8                             2.700000
        a1                             0.520000
        a2                             5.000000
        s9                             5.000000
      * Repulsion:
        kExp                           1.500000    1.000000
        rExp                           1.000000
      * Coulomb:
        alpha                          2.000000
        third order                    shell-resolved
        anisotropic                    true
        a3                             3.000000
        a5                             4.000000
        cn-shift                       1.200000
        cn-exp                         4.000000
        max-rad                        5.000000


          ...................................................
          :                      SETUP                      :
          :.................................................:
          :  # basis functions                  47          :
          :  # atomic orbitals                  47          :
          :  # shells                           29          :
          :  # electrons                        50          :
          :  max. iterations                   250          :
          :  Hamiltonian                  GFN2-xTB          :
          :  restarted?                      false          :
          :  GBSA solvation                  false          :
          :  PC potential                    false          :
          :  electronic temp.          300.0000000     K    :
          :  accuracy                    1.0000000          :
          :  -> integral cutoff          0.2500000E+02      :
          :  -> integral neglect         0.1000000E-07      :
          :  -> SCF convergence          0.1000000E-05 Eh   :
          :  -> wf. convergence          0.1000000E-03 e    :
          :  Broyden damping             0.4000000          :
          :  net charge                          1          :
          :  unpaired electrons                  0          :
          ...................................................

 iter      E             dE          RMSdq      gap      omega  full diag
   1    -28.2365443 -0.282365E+02  0.396E+00    5.40       0.0  T
   2    -28.3225917 -0.860474E-01  0.259E+00    4.21       1.0  T
   3    -28.3277288 -0.513713E-02  0.137E+00    3.78       1.0  T
   4    -28.3278561 -0.127285E-03  0.246E-01    3.44       1.0  T
   5    -28.3283230 -0.466910E-03  0.124E-01    3.63       1.0  T
   6    -28.3285049 -0.181851E-03  0.447E-02    3.63       1.0  T
   7    -28.3285074 -0.251290E-05  0.190E-02    3.64       1.2  T
   8    -28.3285080 -0.651892E-06  0.552E-03    3.65       4.1  T
   9    -28.3285084 -0.317615E-06  0.234E-03    3.64       9.5  T
  10    -28.3285084 -0.178574E-07  0.934E-04    3.64      23.9  T
  11    -28.3285084 -0.266587E-08  0.283E-04    3.64      79.0  T

   *** convergence criteria satisfied after 11 iterations ***

         #    Occupation            Energy/Eh            Energy/eV
      -------------------------------------------------------------
         1        2.0000           -0.8921429             -24.2764
       ...           ...                  ...                  ...
        19        2.0000           -0.6432140             -17.5027
        20        2.0000           -0.6391083             -17.3910
        21        2.0000           -0.6337424             -17.2450
        22        2.0000           -0.6111544             -16.6304
        23        2.0000           -0.5959040             -16.2154
        24        2.0000           -0.5872118             -15.9788
        25        2.0000           -0.5482645             -14.9190 (HOMO)
        26                         -0.4143346             -11.2746 (LUMO)
        27                         -0.3740002             -10.1771
        28                         -0.2180852              -5.9344
        29                         -0.1580195              -4.2999
        30                         -0.1128779              -3.0716
       ...                                ...                  ...
        47                          0.4502931              12.2531
      -------------------------------------------------------------
                  HL-Gap            0.1339300 Eh            3.6444 eV
             Fermi-level           -0.4812995 Eh          -13.0968 eV

 SCC (total)                   0 d,  0 h,  0 min,  0.010 sec
 SCC setup                      ...        0 min,  0.000 sec (  1.063%)
 Dispersion                     ...        0 min,  0.000 sec (  1.429%)
 classical contributions        ...        0 min,  0.000 sec (  0.391%)
 integral evaluation            ...        0 min,  0.001 sec (  6.351%)
 iterations                     ...        0 min,  0.007 sec ( 75.717%)
 molecular gradient             ...        0 min,  0.001 sec ( 13.975%)
 printout                       ...        0 min,  0.000 sec (  0.921%)

         :::::::::::::::::::::::::::::::::::::::::::::::::::::
         ::                     SUMMARY                     ::
         :::::::::::::::::::::::::::::::::::::::::::::::::::::
         :: total energy             -27.979873315906 Eh    ::
         :: gradient norm              0.045648370145 Eh/a0 ::
         :: HOMO-LUMO gap              3.644420170655 eV    ::
         ::.................................................::
         :: SCC energy               -28.328514620863 Eh    ::
         :: -> isotropic ES            0.104378914536 Eh    ::
         :: -> anisotropic ES         -0.010068629832 Eh    ::
         :: -> anisotropic XC          0.014416843513 Eh    ::
         :: -> dispersion             -0.012739863573 Eh    ::
         :: repulsion energy           0.348641304957 Eh    ::
         :: add. restraining           0.000000000000 Eh    ::
         :: total charge               1.000000000000 e     ::
         :::::::::::::::::::::::::::::::::::::::::::::::::::::

      ----------------------------------------------------------- 
     |                   =====================                   |
     |                        A N C O P T                        |
     |                   =====================                   |
     |               Approximate Normal Coordinate               |
     |                Rational Function Optimizer                |
      ----------------------------------------------------------- 
      ----------------------------------------------------------- 
     |                   =====================                   |
     |                        A N C O P T                        |
     |                   =====================                   |
     |               Approximate Normal Coordinate               |
     |                Rational Function Optimizer                |
      ----------------------------------------------------------- 

          ...................................................
          :                      SETUP                      :
          :.................................................:
          :   optimization level            normal          :
          :   max. optcycles                   200          :
          :   ANC micro-cycles                  20          :
          :   degrees of freedom                54          :
          :.................................................:
          :   RF solver                   davidson          :
          :   write xtbopt.log                true          :
          :   linear?                        false          :
          :   energy convergence         0.5000000E-05 Eh   :
          :   grad. convergence          0.1000000E-02 Eh/α :
          :   maxmium RF displ.          1.0000000          :
          :   Hlow (freq-cutoff)         0.1000000E-01      :
          :   Hmax (freq-cutoff)         5.0000000          :
          :   S6 in model hess.         20.0000000          :
          ...................................................

generating ANC from exact Hessian ...
Using Lindh-Hessian (1995)
 Shifting diagonal of input Hessian by    8.3350017604826212E-003
 Lowest  eigenvalues of input Hessian
    0.000000    0.000000    0.000000    0.000000    0.000000    0.000000
    0.010000    0.011876    0.012701    0.018601    0.019337    0.023288
    0.023764    0.031713    0.038192    0.040021    0.045514    0.053595
 Highest eigenvalues
    1.435404    1.662232    1.887495    1.964956    2.060965    2.119187


........................................................................
.............................. CYCLE    1 ..............................
........................................................................

 iter      E             dE          RMSdq      gap      omega  full diag
   1    -28.3285084 -0.283285E+02  0.962E-05    3.64       0.0  T
   2    -28.3285084 -0.278106E-10  0.455E-05    3.64     491.6  T
   3    -28.3285084 -0.231992E-11  0.294E-05    3.64     761.4  T
     SCC iter.                  ...        0 min,  0.002 sec
     gradient                   ...        0 min,  0.001 sec
 * total energy  :   -27.9798733 Eh     change       -0.2559801E-09 Eh
   gradient norm :     0.0456483 Eh/α   predicted     0.0000000E+00 (-100.00%)
   displ. norm   :     0.2604784 α      lambda       -0.5712667E-02
   maximum displ.:     0.1427947 α      in ANC's #2, #8, #7, ...

........................................................................
.............................. CYCLE    2 ..............................
........................................................................

 iter      E             dE          RMSdq      gap      omega  full diag
   1    -28.3489091 -0.283489E+02  0.218E-01    3.82       0.0  T
   2    -28.3489986 -0.894725E-04  0.118E-01    3.81       1.0  T
   3    -28.3489994 -0.738958E-06  0.497E-02    3.80       1.0  T
   4    -28.3490023 -0.296143E-05  0.109E-02    3.81       2.0  T
   5    -28.3490041 -0.181919E-05  0.356E-03    3.81       6.3  T
   6    -28.3490042 -0.398472E-07  0.161E-03    3.81      13.8  T
   7    -28.3490042 -0.492994E-08  0.548E-04    3.81      40.8  T
   8    -28.3490042 -0.123850E-08  0.250E-04    3.81      89.3  T
     SCC iter.                  ...        0 min,  0.004 sec
     gradient                   ...        0 min,  0.001 sec
 * total energy  :   -27.9838225 Eh     change       -0.3949160E-02 Eh
   gradient norm :     0.0223143 Eh/α   predicted    -0.3050420E-02 ( -22.76%)
   displ. norm   :     0.2523359 α      lambda       -0.1929575E-02
   maximum displ.:     0.1879579 α      in ANC's #2, #8, #1, ...

........................................................................
.............................. CYCLE    3 ..............................
........................................................................

 iter      E             dE          RMSdq      gap      omega  full diag
   1    -28.3592119 -0.283592E+02  0.154E-01    3.90       0.0  T
   2    -28.3592651 -0.532579E-04  0.813E-02    3.91       1.0  T
   3    -28.3592657 -0.525089E-06  0.379E-02    3.90       1.0  T
   4    -28.3592670 -0.137238E-05  0.902E-03    3.91       2.5  T
   5    -28.3592684 -0.131467E-05  0.225E-03    3.91       9.9  T
   6    -28.3592684 -0.138772E-07  0.106E-03    3.91      21.2  T
   7    -28.3592684 -0.159420E-08  0.400E-04    3.91      55.8  T
   8    -28.3592684 -0.691902E-09  0.168E-04    3.91     133.1  T
     SCC iter.                  ...        0 min,  0.004 sec
     gradient                   ...        0 min,  0.001 sec
 * total energy  :   -27.9849818 Eh     change       -0.1159296E-02 Eh
   gradient norm :     0.0079441 Eh/α   predicted    -0.1026828E-02 ( -11.43%)
   displ. norm   :     0.1618802 α      lambda       -0.3606791E-03
   maximum displ.:     0.1243460 α      in ANC's #2, #1, #8, ...

........................................................................
.............................. CYCLE    4 ..............................
........................................................................

 iter      E             dE          RMSdq      gap      omega  full diag
   1    -28.3592838 -0.283593E+02  0.683E-02    3.92       0.0  T
   2    -28.3592858 -0.204663E-05  0.392E-02    3.92       1.0  T
   3    -28.3592857  0.854875E-07  0.779E-03    3.92       2.9  T
   4    -28.3592860 -0.274804E-06  0.205E-03    3.92      10.9  T
   5    -28.3592860 -0.400553E-07  0.926E-04    3.92      24.1  T
   6    -28.3592860 -0.148133E-08  0.209E-04    3.92     106.9  T
     SCC iter.                  ...        0 min,  0.003 sec
     gradient                   ...        0 min,  0.001 sec
 * total energy  :   -27.9852403 Eh     change       -0.2585280E-03 Eh
   gradient norm :     0.0048515 Eh/α   predicted    -0.1850674E-03 ( -28.41%)
   displ. norm   :     0.1596192 α      lambda       -0.2043223E-03
   maximum displ.:     0.1040758 α      in ANC's #1, #2, #8, ...

........................................................................
.............................. CYCLE    5 ..............................
........................................................................

 iter      E             dE          RMSdq      gap      omega  full diag
   1    -28.3578917 -0.283579E+02  0.657E-02    3.92       0.0  T
   2    -28.3578926 -0.962381E-06  0.389E-02    3.92       1.0  T
   3    -28.3578925  0.101136E-06  0.476E-03    3.93       4.7  T
   4    -28.3578928 -0.237719E-06  0.160E-03    3.92      13.9  T
   5    -28.3578928 -0.247791E-07  0.816E-04    3.92      27.4  T
   6    -28.3578928 -0.311216E-08  0.271E-04    3.92      82.5  T
     SCC iter.                  ...        0 min,  0.003 sec
     gradient                   ...        0 min,  0.001 sec
 * total energy  :   -27.9853711 Eh     change       -0.1307985E-03 Eh
   gradient norm :     0.0031817 Eh/α   predicted    -0.1048114E-03 ( -19.87%)
   displ. norm   :     0.0876718 α      lambda       -0.5922001E-04
   maximum displ.:     0.0764757 α      in ANC's #1, #2, #6, ...

........................................................................
.............................. CYCLE    6 ..............................
........................................................................

 iter      E             dE          RMSdq      gap      omega  full diag
   1    -28.3575507 -0.283576E+02  0.309E-02    3.92       0.0  T
   2    -28.3575512 -0.454781E-06  0.183E-02    3.92       1.2  T
   3    -28.3575510  0.173965E-06  0.486E-03    3.92       4.6  T
   4    -28.3575512 -0.233205E-06  0.120E-03    3.92      18.6  T
   5    -28.3575513 -0.200715E-07  0.451E-04    3.92      49.6  T
   6    -28.3575513 -0.477449E-09  0.176E-04    3.92     127.3  T
     SCC iter.                  ...        0 min,  0.003 sec
     gradient                   ...        0 min,  0.001 sec
 * total energy  :   -27.9854191 Eh     change       -0.4802356E-04 Eh
   gradient norm :     0.0025510 Eh/α   predicted    -0.2985809E-04 ( -37.83%)
   displ. norm   :     0.0866040 α      lambda       -0.5570911E-04
   maximum displ.:     0.0781062 α      in ANC's #1, #6, #5, ...

........................................................................
.............................. CYCLE    7 ..............................
........................................................................

 iter      E             dE          RMSdq      gap      omega  full diag
   1    -28.3576647 -0.283577E+02  0.281E-02    3.92       0.0  T
   2    -28.3576651 -0.387437E-06  0.165E-02    3.92       1.4  T
   3    -28.3576649  0.161109E-06  0.498E-03    3.92       4.5  T
   4    -28.3576652 -0.237961E-06  0.126E-03    3.92      17.8  T
   5    -28.3576652 -0.171320E-07  0.530E-04    3.92      42.2  T
   6    -28.3576652 -0.444331E-09  0.167E-04    3.92     134.2  T
     SCC iter.                  ...        0 min,  0.003 sec
     gradient                   ...        0 min,  0.001 sec
 * total energy  :   -27.9854673 Eh     change       -0.4816324E-04 Eh
   gradient norm :     0.0018741 Eh/α   predicted    -0.2806370E-04 ( -41.73%)
   displ. norm   :     0.1638337 α      lambda       -0.6141504E-04
   maximum displ.:     0.1449746 α      in ANC's #1, #6, #2, ...

........................................................................
.............................. CYCLE    8 ..............................
........................................................................

 iter      E             dE          RMSdq      gap      omega  full diag
   1    -28.3580117 -0.283580E+02  0.509E-02    3.93       0.0  T
   2    -28.3580123 -0.603146E-06  0.301E-02    3.93       1.0  T
   3    -28.3580120  0.292323E-06  0.621E-03    3.93       3.6  T
   4    -28.3580125 -0.500711E-06  0.189E-03    3.93      11.8  T
   5    -28.3580125 -0.189197E-07  0.873E-04    3.93      25.6  T
   6    -28.3580125 -0.188588E-08  0.183E-04    3.93     121.9  T
     SCC iter.                  ...        0 min,  0.003 sec
     gradient                   ...        0 min,  0.001 sec
 * total energy  :   -27.9855433 Eh     change       -0.7603887E-04 Eh
   gradient norm :     0.0025992 Eh/α   predicted    -0.3107453E-04 ( -59.13%)
   displ. norm   :     0.1096205 α      lambda       -0.5523408E-04
   maximum displ.:     0.0965673 α      in ANC's #1, #6, #5, ...

........................................................................
.............................. CYCLE    9 ..............................
........................................................................

 iter      E             dE          RMSdq      gap      omega  full diag
   1    -28.3582290 -0.283582E+02  0.316E-02    3.94       0.0  T
   2    -28.3582291 -0.119581E-06  0.188E-02    3.93       1.2  T
   3    -28.3582292 -0.258411E-07  0.173E-03    3.93      12.9  T
   4    -28.3582292 -0.235659E-07  0.940E-04    3.93      23.8  T
   5    -28.3582292 -0.293561E-08  0.355E-04    3.93      63.0  T
     SCC iter.                  ...        0 min,  0.002 sec
     gradient                   ...        0 min,  0.001 sec
 * total energy  :   -27.9855958 Eh     change       -0.5247867E-04 Eh
   gradient norm :     0.0025943 Eh/α   predicted    -0.2795318E-04 ( -46.73%)
   displ. norm   :     0.1419278 α      lambda       -0.7550848E-04
   maximum displ.:     0.1217191 α      in ANC's #1, #2, #5, ...

........................................................................
.............................. CYCLE   10 ..............................
........................................................................

 iter      E             dE          RMSdq      gap      omega  full diag
   1    -28.3584399 -0.283584E+02  0.397E-02    3.94       0.0  T
   2    -28.3584401 -0.240642E-06  0.235E-02    3.94       1.0  T
   3    -28.3584401 -0.452101E-07  0.204E-03    3.93      11.0  T
   4    -28.3584402 -0.256117E-07  0.109E-03    3.94      20.4  T
   5    -28.3584402 -0.370188E-08  0.571E-04    3.94      39.2  T
   6    -28.3584402 -0.189257E-08  0.115E-04    3.94     194.8  T
     SCC iter.                  ...        0 min,  0.003 sec
     gradient                   ...        0 min,  0.001 sec
 * total energy  :   -27.9856664 Eh     change       -0.7061633E-04 Eh
   gradient norm :     0.0020825 Eh/α   predicted    -0.3851831E-04 ( -45.45%)
   displ. norm   :     0.1926871 α      lambda       -0.9593435E-04
   maximum displ.:     0.1644907 α      in ANC's #1, #5, #2, ...

........................................................................
.............................. CYCLE   11 ..............................
........................................................................

 iter      E             dE          RMSdq      gap      omega  full diag
   1    -28.3583909 -0.283584E+02  0.528E-02    3.94       0.0  T
   2    -28.3583913 -0.421541E-06  0.311E-02    3.94       1.0  T
   3    -28.3583913 -0.179634E-07  0.318E-03    3.93       7.0  T
   4    -28.3583914 -0.103899E-06  0.152E-03    3.93      14.7  T
   5    -28.3583915 -0.115303E-07  0.747E-04    3.93      29.9  T
   6    -28.3583915 -0.183555E-08  0.149E-04    3.93     149.9  T
     SCC iter.                  ...        0 min,  0.003 sec
     gradient                   ...        0 min,  0.001 sec
 * total energy  :   -27.9857539 Eh     change       -0.8751871E-04 Eh
   gradient norm :     0.0017175 Eh/α   predicted    -0.4975287E-04 ( -43.15%)
   displ. norm   :     0.3195890 α      lambda       -0.9495099E-04
   maximum displ.:     0.2747480 α      in ANC's #1, #4, #5, ...

........................................................................
.............................. CYCLE   12 ..............................
........................................................................

 iter      E             dE          RMSdq      gap      omega  full diag
   1    -28.3579031 -0.283579E+02  0.862E-02    3.93       0.0  T
   2    -28.3579041 -0.996672E-06  0.508E-02    3.93       1.0  T
   3    -28.3579042 -0.214921E-07  0.510E-03    3.92       4.4  T
   4    -28.3579045 -0.293314E-06  0.241E-03    3.93       9.3  T
   5    -28.3579045 -0.278465E-07  0.115E-03    3.93      19.5  T
   6    -28.3579045 -0.366816E-08  0.226E-04    3.93      99.1  T
   7    -28.3579045 -0.135792E-09  0.111E-04    3.93     201.9  T
     SCC iter.                  ...        0 min,  0.003 sec
     gradient                   ...        0 min,  0.009 sec
 * total energy  :   -27.9858764 Eh     change       -0.1225071E-03 Eh
   gradient norm :     0.0028250 Eh/α   predicted    -0.4963182E-04 ( -59.49%)
   displ. norm   :     0.1814641 α      lambda       -0.7684872E-04
   maximum displ.:     0.1586520 α      in ANC's #1, #4, #5, ...

........................................................................
.............................. CYCLE   13 ..............................
........................................................................

 iter      E             dE          RMSdq      gap      omega  full diag
   1    -28.3580913 -0.283581E+02  0.488E-02    3.92       0.0  T
   2    -28.3580915 -0.271536E-06  0.288E-02    3.92       1.0  T
   3    -28.3580916 -0.443398E-07  0.242E-03    3.92       9.3  T
   4    -28.3580916 -0.495790E-07  0.125E-03    3.92      17.8  T
   5    -28.3580916 -0.561641E-08  0.590E-04    3.92      37.9  T
   6    -28.3580916 -0.174575E-08  0.111E-04    3.92     200.9  T
     SCC iter.                  ...        0 min,  0.021 sec
     gradient                   ...        0 min,  0.001 sec
 * total energy  :   -27.9859489 Eh     change       -0.7250300E-04 Eh
   gradient norm :     0.0029851 Eh/α   predicted    -0.3969384E-04 ( -45.25%)
   displ. norm   :     0.2327298 α      lambda       -0.1060616E-03
   maximum displ.:     0.2036724 α      in ANC's #1, #4, #5, ...

........................................................................
.............................. CYCLE   14 ..............................
........................................................................

 iter      E             dE          RMSdq      gap      omega  full diag
   1    -28.3582678 -0.283583E+02  0.633E-02    3.92       0.0  T
   2    -28.3582682 -0.358782E-06  0.373E-02    3.92       1.0  T
   3    -28.3582683 -0.992854E-07  0.267E-03    3.92       8.4  T
   4    -28.3582683 -0.448502E-07  0.153E-03    3.92      14.6  T
   5    -28.3582683 -0.847641E-08  0.591E-04    3.92      37.8  T
   6    -28.3582683 -0.186783E-08  0.128E-04    3.92     175.1  T
     SCC iter.                  ...        0 min,  0.006 sec
     gradient                   ...        0 min,  0.002 sec
 * total energy  :   -27.9860495 Eh     change       -0.1005687E-03 Eh
   gradient norm :     0.0027901 Eh/α   predicted    -0.5590794E-04 ( -44.41%)
   displ. norm   :     0.3429135 α      lambda       -0.1595771E-03
   maximum displ.:     0.2990114 α      in ANC's #1, #4, #5, ...

........................................................................
.............................. CYCLE   15 ..............................
........................................................................

 iter      E             dE          RMSdq      gap      omega  full diag
   1    -28.3578471 -0.283578E+02  0.936E-02    3.91       0.0  T
   2    -28.3578479 -0.745934E-06  0.552E-02    3.91       1.0  T
   3    -28.3578480 -0.148388E-06  0.430E-03    3.91       5.2  T
   4    -28.3578482 -0.156146E-06  0.232E-03    3.91       9.7  T
   5    -28.3578482 -0.208449E-07  0.790E-04    3.91      28.3  T
   6    -28.3578482 -0.141836E-08  0.168E-04    3.91     133.2  T
     SCC iter.                  ...        0 min,  0.003 sec
     gradient                   ...        0 min,  0.003 sec
 * total energy  :   -27.9861962 Eh     change       -0.1467223E-03 Eh
   gradient norm :     0.0031476 Eh/α   predicted    -0.8918420E-04 ( -39.22%)
   displ. norm   :     0.5264658 α      lambda       -0.2321473E-03
   maximum displ.:     0.4584984 α      in ANC's #1, #4, #5, ...

........................................................................
.............................. CYCLE   16 ..............................
........................................................................

 iter      E             dE          RMSdq      gap      omega  full diag
   1    -28.3559653 -0.283560E+02  0.144E-01    3.90       0.0  T
   2    -28.3559673 -0.201758E-05  0.849E-02    3.90       1.0  T
   3    -28.3559672  0.103781E-06  0.846E-03    3.90       2.6  T
   4    -28.3559681 -0.854891E-06  0.370E-03    3.90       6.0  T
   5    -28.3559682 -0.558482E-07  0.156E-03    3.90      14.3  T
   6    -28.3559682 -0.363810E-08  0.282E-04    3.90      79.4  T
   7    -28.3559682 -0.255760E-09  0.159E-04    3.90     140.5  T
     SCC iter.                  ...        0 min,  0.004 sec
     gradient                   ...        0 min,  0.005 sec
 * total energy  :   -27.9863683 Eh     change       -0.1720784E-03 Eh
   gradient norm :     0.0073670 Eh/α   predicted    -0.1482502E-03 ( -13.85%)
   displ. norm   :     0.3710674 α      lambda       -0.1661356E-03
   maximum displ.:     0.3220991 α      in ANC's #1, #4, #2, ...

........................................................................
.............................. CYCLE   17 ..............................
........................................................................

 iter      E             dE          RMSdq      gap      omega  full diag
   1    -28.3561549 -0.283562E+02  0.103E-01    3.90       0.0  T
   2    -28.3561556 -0.725595E-06  0.606E-02    3.90       1.0  T
   3    -28.3561557 -0.368969E-07  0.493E-03    3.90       4.5  T
   4    -28.3561559 -0.277760E-06  0.235E-03    3.90       9.5  T
   5    -28.3561560 -0.137187E-07  0.672E-04    3.90      33.3  T
   6    -28.3561560 -0.180735E-08  0.175E-04    3.90     127.5  T
     SCC iter.                  ...        0 min,  0.003 sec
     gradient                   ...        0 min,  0.003 sec
 * total energy  :   -27.9864953 Eh     change       -0.1270320E-03 Eh
   gradient norm :     0.0086616 Eh/α   predicted    -0.9450983E-04 ( -25.60%)
   displ. norm   :     0.3385366 α      lambda       -0.2792429E-03
   maximum displ.:     0.2800951 α      in ANC's #1, #2, #4, ...

........................................................................
.............................. CYCLE   18 ..............................
........................................................................

 iter      E             dE          RMSdq      gap      omega  full diag
   1    -28.3604871 -0.283605E+02  0.104E-01    3.92       0.0  T
   2    -28.3604884 -0.135082E-05  0.612E-02    3.92       1.0  T
   3    -28.3604886 -0.172087E-06  0.424E-03    3.92       5.3  T
   4    -28.3604887 -0.639942E-07  0.189E-03    3.92      11.8  T
   5    -28.3604887 -0.120209E-08  0.979E-04    3.92      22.8  T
   6    -28.3604887 -0.634414E-08  0.209E-04    3.92     107.0  T
     SCC iter.                  ...        0 min,  0.005 sec
     gradient                   ...        0 min,  0.005 sec
 * total energy  :   -27.9866747 Eh     change       -0.1793300E-03 Eh
   gradient norm :     0.0043427 Eh/α   predicted    -0.1556249E-03 ( -13.22%)
   displ. norm   :     0.6341424 α      lambda       -0.2416354E-03
   maximum displ.:     0.5376207 α      in ANC's #1, #4, #2, ...

........................................................................
.............................. CYCLE   19 ..............................
........................................................................

 iter      E             dE          RMSdq      gap      omega  full diag
   1    -28.3553586 -0.283554E+02  0.184E-01    3.92       0.0  T
   2    -28.3553641 -0.550131E-05  0.108E-01    3.91       1.0  T
   3    -28.3553625  0.162090E-05  0.151E-02    3.91       1.5  T
   4    -28.3553652 -0.265647E-05  0.515E-03    3.91       4.3  T
   5    -28.3553654 -0.228350E-06  0.234E-03    3.91       9.6  T
   6    -28.3553654 -0.679684E-08  0.372E-04    3.91      60.1  T
   7    -28.3553654 -0.995705E-09  0.153E-04    3.91     146.6  T
     SCC iter.                  ...        0 min,  0.007 sec
     gradient                   ...        0 min,  0.007 sec
 * total energy  :   -27.9867902 Eh     change       -0.1155403E-03 Eh
   gradient norm :     0.0082427 Eh/α   predicted    -0.1694035E-03 (  46.62%)
   displ. norm   :     0.1017194 α      lambda       -0.1845766E-03
   maximum displ.:     0.0727434 α      in ANC's #1, #10, #2, ...

........................................................................
.............................. CYCLE   20 ..............................
........................................................................

 iter      E             dE          RMSdq      gap      omega  full diag
   1    -28.3583878 -0.283584E+02  0.420E-02    3.90       0.0  T
   2    -28.3583885 -0.707080E-06  0.248E-02    3.90       1.0  T
   3    -28.3583885 -0.412640E-07  0.346E-03    3.91       6.5  T
   4    -28.3583886 -0.880786E-07  0.158E-03    3.91      14.2  T
   5    -28.3583886 -0.176621E-07  0.847E-04    3.91      26.4  T
   6    -28.3583886 -0.240568E-08  0.305E-04    3.91      73.3  T
     SCC iter.                  ...        0 min,  0.003 sec
     gradient                   ...        0 min,  0.010 sec
 * total energy  :   -27.9869062 Eh     change       -0.1159893E-03 Eh
   gradient norm :     0.0046759 Eh/α   predicted    -0.9324466E-04 ( -19.61%)
   displ. norm   :     0.3419971 α      lambda       -0.1646231E-03
   maximum displ.:     0.2717287 α      in ANC's #1, #2, #4, ...
 * RMSD in coord.:     0.9825226 α      energy gain  -0.7032893E-02 Eh

generating ANC from exact Hessian ...
Using Lindh-Hessian (1995)
 Shifting diagonal of input Hessian by    8.0486160814763411E-003
 Lowest  eigenvalues of input Hessian
    0.000000    0.000000    0.000000    0.000000    0.000000    0.000000
    0.010000    0.011644    0.013278    0.019229    0.020299    0.025666
    0.026357    0.034408    0.041894    0.042790    0.048364    0.056918
 Highest eigenvalues
    1.520698    1.737819    2.017050    2.053573    2.177102    2.255634


........................................................................
.............................. CYCLE   21 ..............................
........................................................................

 iter      E             dE          RMSdq      gap      omega  full diag
   1    -28.3596007 -0.283596E+02  0.111E-01    3.93       0.0  T
   2    -28.3596020 -0.132633E-05  0.658E-02    3.92       1.0  T
   3    -28.3596014  0.572453E-06  0.808E-03    3.92       2.8  T
   4    -28.3596024 -0.946480E-06  0.274E-03    3.92       8.2  T
   5    -28.3596024 -0.348543E-07  0.125E-03    3.92      17.8  T
   6    -28.3596024 -0.289324E-08  0.198E-04    3.92     112.7  T
   7    -28.3596024 -0.144883E-09  0.918E-05    3.92     243.6  T
     SCC iter.                  ...        0 min,  0.028 sec
     gradient                   ...        0 min,  0.009 sec
 * total energy  :   -27.9870128 Eh     change       -0.1065917E-03 Eh
   gradient norm :     0.0040339 Eh/α   predicted     0.0000000E+00 (-100.00%)
   displ. norm   :     0.0280959 α      lambda       -0.3848357E-04
   maximum displ.:     0.0138137 α      in ANC's #3, #1, #4, ...

........................................................................
.............................. CYCLE   22 ..............................
........................................................................

 iter      E             dE          RMSdq      gap      omega  full diag
   1    -28.3602780 -0.283603E+02  0.175E-02    3.92       0.0  T
   2    -28.3602783 -0.255808E-06  0.102E-02    3.93       2.2  T
   3    -28.3602783 -0.467476E-08  0.264E-03    3.93       8.5  T
   4    -28.3602783 -0.210506E-07  0.653E-04    3.93      34.2  T
   5    -28.3602783 -0.275211E-08  0.369E-04    3.93      60.6  T
     SCC iter.                  ...        0 min,  0.012 sec
     gradient                   ...        0 min,  0.003 sec
 * total energy  :   -27.9870410 Eh     change       -0.2816929E-04 Eh
   gradient norm :     0.0016509 Eh/α   predicted    -0.1928739E-04 ( -31.53%)
   displ. norm   :     0.0842559 α      lambda       -0.3089015E-04
   maximum displ.:     0.0429181 α      in ANC's #1, #3, #4, ...

........................................................................
.............................. CYCLE   23 ..............................
........................................................................

 iter      E             dE          RMSdq      gap      omega  full diag
   1    -28.3609888 -0.283610E+02  0.422E-02    3.93       0.0  T
   2    -28.3609896 -0.785448E-06  0.253E-02    3.93       1.0  T
   3    -28.3609896  0.348953E-07  0.482E-03    3.93       4.6  T
   4    -28.3609897 -0.144852E-06  0.157E-03    3.93      14.3  T
   5    -28.3609898 -0.208924E-07  0.778E-04    3.93      28.7  T
   6    -28.3609898 -0.211161E-08  0.194E-04    3.93     115.2  T
     SCC iter.                  ...        0 min,  0.010 sec
     gradient                   ...        0 min,  0.004 sec
 * total energy  :   -27.9870677 Eh     change       -0.2669125E-04 Eh
   gradient norm :     0.0023755 Eh/α   predicted    -0.1549450E-04 ( -41.95%)
   displ. norm   :     0.0543845 α      lambda       -0.1840223E-04
   maximum displ.:     0.0313376 α      in ANC's #1, #3, #4, ...

........................................................................
.............................. CYCLE   24 ..............................
........................................................................

 iter      E             dE          RMSdq      gap      omega  full diag
   1    -28.3608802 -0.283609E+02  0.242E-02    3.93       0.0  T
   2    -28.3608802 -0.781077E-07  0.147E-02    3.93       1.5  T
   3    -28.3608802  0.123911E-07  0.186E-03    3.93      12.0  T
   4    -28.3608803 -0.438748E-07  0.767E-04    3.93      29.2  T
   5    -28.3608803 -0.200246E-08  0.295E-04    3.93      75.7  T
     SCC iter.                  ...        0 min,  0.017 sec
     gradient                   ...        0 min,  0.009 sec
 * total energy  :   -27.9870847 Eh     change       -0.1702782E-04 Eh
   gradient norm :     0.0023040 Eh/α   predicted    -0.9299814E-05 ( -45.38%)
   displ. norm   :     0.2014751 α      lambda       -0.6303455E-04
   maximum displ.:     0.1182578 α      in ANC's #1, #3, #4, ...

........................................................................
.............................. CYCLE   25 ..............................
........................................................................

 iter      E             dE          RMSdq      gap      omega  full diag
   1    -28.3600629 -0.283601E+02  0.868E-02    3.94       0.0  T
   2    -28.3600638 -0.949893E-06  0.525E-02    3.94       1.0  T
   3    -28.3600638  0.625678E-07  0.632E-03    3.93       3.5  T
   4    -28.3600642 -0.455146E-06  0.274E-03    3.94       8.2  T
   5    -28.3600643 -0.234394E-07  0.934E-04    3.94      23.9  T
   6    -28.3600643 -0.461263E-08  0.224E-04    3.94     100.0  T
     SCC iter.                  ...        0 min,  0.012 sec
     gradient                   ...        0 min,  0.003 sec
 * total energy  :   -27.9871270 Eh     change       -0.4235391E-04 Eh
   gradient norm :     0.0017779 Eh/α   predicted    -0.3280139E-04 ( -22.55%)
   displ. norm   :     0.1591065 α      lambda       -0.2012171E-04
   maximum displ.:     0.1082889 α      in ANC's #1, #4, #3, ...

........................................................................
.............................. CYCLE   26 ..............................
........................................................................

 iter      E             dE          RMSdq      gap      omega  full diag
   1    -28.3597953 -0.283598E+02  0.616E-02    3.94       0.0  T
   2    -28.3597958 -0.526381E-06  0.370E-02    3.94       1.0  T
   3    -28.3597958  0.614851E-07  0.468E-03    3.94       4.8  T
   4    -28.3597960 -0.240660E-06  0.195E-03    3.94      11.4  T
   5    -28.3597960 -0.146553E-07  0.783E-04    3.94      28.6  T
   6    -28.3597960 -0.305507E-08  0.185E-04    3.94     120.8  T
     SCC iter.                  ...        0 min,  0.009 sec
     gradient                   ...        0 min,  0.019 sec
 * total energy  :   -27.9871474 Eh     change       -0.2034665E-04 Eh
   gradient norm :     0.0020690 Eh/α   predicted    -0.1017939E-04 ( -49.97%)
   displ. norm   :     0.0544990 α      lambda       -0.2129013E-04
   maximum displ.:     0.0428811 α      in ANC's #1, #5, #4, ...

........................................................................
.............................. CYCLE   27 ..............................
........................................................................

 iter      E             dE          RMSdq      gap      omega  full diag
   1    -28.3604194 -0.283604E+02  0.165E-02    3.94       0.0  T
   2    -28.3604195 -0.376601E-07  0.967E-03    3.94       2.3  T
   3    -28.3604195  0.564649E-08  0.114E-03    3.94      19.7  T
   4    -28.3604195 -0.149781E-07  0.454E-04    3.94      49.3  T
   5    -28.3604195 -0.124931E-08  0.189E-04    3.94     118.3  T
     SCC iter.                  ...        0 min,  0.007 sec
     gradient                   ...        0 min,  0.003 sec
 * total energy  :   -27.9871652 Eh     change       -0.1784186E-04 Eh
   gradient norm :     0.0018015 Eh/α   predicted    -0.1067745E-04 ( -40.16%)
   displ. norm   :     0.1865066 α      lambda       -0.3724105E-04
   maximum displ.:     0.1428273 α      in ANC's #1, #4, #5, ...

........................................................................
.............................. CYCLE   28 ..............................
........................................................................

 iter      E             dE          RMSdq      gap      omega  full diag
   1    -28.3613281 -0.283613E+02  0.540E-02    3.94       0.0  T
   2    -28.3613283 -0.263332E-06  0.317E-02    3.94       1.0  T
   3    -28.3613283  0.512469E-07  0.314E-03    3.94       7.1  T
   4    -28.3613284 -0.129234E-06  0.125E-03    3.94      17.8  T
   5    -28.3613284 -0.692981E-08  0.521E-04    3.94      42.9  T
   6    -28.3613284 -0.874486E-09  0.116E-04    3.94     193.1  T
     SCC iter.                  ...        0 min,  0.016 sec
     gradient                   ...        0 min,  0.005 sec
 * total energy  :   -27.9872061 Eh     change       -0.4083991E-04 Eh
   gradient norm :     0.0027948 Eh/α   predicted    -0.1891356E-04 ( -53.69%)
   displ. norm   :     0.1364364 α      lambda       -0.3115414E-04
   maximum displ.:     0.1058564 α      in ANC's #1, #4, #5, ...

........................................................................
.............................. CYCLE   29 ..............................
........................................................................

 iter      E             dE          RMSdq      gap      omega  full diag
   1    -28.3612330 -0.283612E+02  0.390E-02    3.95       0.0  T
   2    -28.3612331 -0.978397E-07  0.230E-02    3.95       1.0  T
   3    -28.3612331  0.163617E-07  0.199E-03    3.95      11.2  T
   4    -28.3612331 -0.517876E-07  0.833E-04    3.95      26.8  T
   5    -28.3612331 -0.231280E-08  0.275E-04    3.95      81.3  T
     SCC iter.                  ...        0 min,  0.006 sec
     gradient                   ...        0 min,  0.003 sec
 * total energy  :   -27.9872341 Eh     change       -0.2800069E-04 Eh
   gradient norm :     0.0028408 Eh/α   predicted    -0.1587354E-04 ( -43.31%)
   displ. norm   :     0.1493978 α      lambda       -0.3875098E-04
   maximum displ.:     0.1177108 α      in ANC's #1, #4, #5, ...

........................................................................
.............................. CYCLE   30 ..............................
........................................................................

 iter      E             dE          RMSdq      gap      omega  full diag
   1    -28.3610060 -0.283610E+02  0.413E-02    3.95       0.0  T
   2    -28.3610061 -0.103186E-06  0.243E-02    3.95       1.0  T
   3    -28.3610061 -0.115976E-07  0.164E-03    3.95      13.6  T
   4    -28.3610062 -0.247649E-07  0.869E-04    3.95      25.7  T
   5    -28.3610062 -0.378073E-08  0.212E-04    3.95     105.2  T
     SCC iter.                  ...        0 min,  0.006 sec
     gradient                   ...        0 min,  0.003 sec
 * total energy  :   -27.9872674 Eh     change       -0.3329850E-04 Eh
   gradient norm :     0.0022398 Eh/α   predicted    -0.1981502E-04 ( -40.49%)
   displ. norm   :     0.1675581 α      lambda       -0.3727628E-04
   maximum displ.:     0.1330667 α      in ANC's #1, #4, #5, ...

........................................................................
.............................. CYCLE   31 ..............................
........................................................................

 iter      E             dE          RMSdq      gap      omega  full diag
   1    -28.3605306 -0.283605E+02  0.461E-02    3.95       0.0  T
   2    -28.3605308 -0.139943E-06  0.271E-02    3.95       1.0  T
   3    -28.3605308 -0.277421E-07  0.171E-03    3.95      13.0  T
   4    -28.3605308 -0.183960E-07  0.951E-04    3.95      23.5  T
   5    -28.3605308 -0.494380E-08  0.283E-04    3.95      78.9  T
     SCC iter.                  ...        0 min,  0.010 sec
     gradient                   ...        0 min,  0.004 sec
 * total energy  :   -27.9872971 Eh     change       -0.2971835E-04 Eh
   gradient norm :     0.0020992 Eh/α   predicted    -0.1916324E-04 ( -35.52%)
   displ. norm   :     0.1592800 α      lambda       -0.2703631E-04
   maximum displ.:     0.1281535 α      in ANC's #1, #4, #5, ...

........................................................................
.............................. CYCLE   32 ..............................
........................................................................

 iter      E             dE          RMSdq      gap      omega  full diag
   1    -28.3602193 -0.283602E+02  0.436E-02    3.95       0.0  T
   2    -28.3602194 -0.119844E-06  0.257E-02    3.95       1.0  T
   3    -28.3602194 -0.298691E-07  0.154E-03    3.95      14.5  T
   4    -28.3602194 -0.124914E-07  0.857E-04    3.95      26.1  T
   5    -28.3602194 -0.281485E-08  0.256E-04    3.95      87.4  T
     SCC iter.                  ...        0 min,  0.009 sec
     gradient                   ...        0 min,  0.003 sec
 * total energy  :   -27.9873178 Eh     change       -0.2067574E-04 Eh
   gradient norm :     0.0021947 Eh/α   predicted    -0.1386412E-04 ( -32.94%)
   displ. norm   :     0.1950509 α      lambda       -0.2403278E-04
   maximum displ.:     0.1570275 α      in ANC's #1, #4, #5, ...

........................................................................
.............................. CYCLE   33 ..............................
........................................................................

 iter      E             dE          RMSdq      gap      omega  full diag
   1    -28.3598900 -0.283599E+02  0.539E-02    3.95       0.0  T
   2    -28.3598902 -0.174074E-06  0.317E-02    3.95       1.0  T
   3    -28.3598902 -0.484025E-07  0.185E-03    3.95      12.1  T
   4    -28.3598902 -0.157916E-07  0.105E-03    3.95      21.2  T
   5    -28.3598903 -0.435696E-08  0.283E-04    3.95      79.1  T
   6    -28.3598903 -0.753619E-09  0.598E-05    3.95     374.2  T
     SCC iter.                  ...        0 min,  0.004 sec
     gradient                   ...        0 min,  0.003 sec
 * total energy  :   -27.9873340 Eh     change       -0.1624956E-04 Eh
   gradient norm :     0.0024056 Eh/α   predicted    -0.1247584E-04 ( -23.22%)
   displ. norm   :     0.1192509 α      lambda       -0.1638316E-04
   maximum displ.:     0.0982061 α      in ANC's #1, #4, #5, ...

........................................................................
.............................. CYCLE   34 ..............................
........................................................................

 iter      E             dE          RMSdq      gap      omega  full diag
   1    -28.3605488 -0.283605E+02  0.333E-02    3.96       0.0  T
   2    -28.3605489 -0.121174E-06  0.195E-02    3.95       1.1  T
   3    -28.3605489 -0.174689E-07  0.141E-03    3.95      15.8  T
   4    -28.3605489 -0.103144E-07  0.753E-04    3.95      29.7  T
   5    -28.3605489 -0.263288E-08  0.373E-04    3.95      60.0  T
     SCC iter.                  ...        0 min,  0.003 sec
     gradient                   ...        0 min,  0.003 sec
 * total energy  :   -27.9873448 Eh     change       -0.1081236E-04 Eh
   gradient norm :     0.0016396 Eh/α   predicted    -0.8312511E-05 ( -23.12%)
   displ. norm   :     0.3015864 α      lambda       -0.1528436E-04
   maximum displ.:     0.2329204 α      in ANC's #1, #4, #5, ...

........................................................................
.............................. CYCLE   35 ..............................
........................................................................

 iter      E             dE          RMSdq      gap      omega  full diag
   1    -28.3595099 -0.283595E+02  0.880E-02    3.96       0.0  T
   2    -28.3595108 -0.904367E-06  0.517E-02    3.95       1.0  T
   3    -28.3595109 -0.128285E-06  0.364E-03    3.95       6.1  T
   4    -28.3595110 -0.709762E-07  0.196E-03    3.95      11.4  T
   5    -28.3595110 -0.164013E-07  0.954E-04    3.95      23.5  T
   6    -28.3595110 -0.537974E-08  0.197E-04    3.95     113.7  T
     SCC iter.                  ...        0 min,  0.005 sec
     gradient                   ...        0 min,  0.003 sec
 * total energy  :   -27.9873414 Eh     change        0.3419488E-05 Eh
   gradient norm :     0.0036472 Eh/α   predicted    -0.7951872E-05 (-332.55%)
   displ. norm   :     0.0863570 α      lambda       -0.2754911E-04
   maximum displ.:     0.0678192 α      in ANC's #1, #4, #5, ...

........................................................................
.............................. CYCLE   36 ..............................
........................................................................

 iter      E             dE          RMSdq      gap      omega  full diag
   1    -28.3610108 -0.283610E+02  0.257E-02    3.95       0.0  T
   2    -28.3610111 -0.246365E-06  0.150E-02    3.96       1.5  T
   3    -28.3610111 -0.136865E-08  0.198E-03    3.96      11.3  T
   4    -28.3610111 -0.179739E-07  0.742E-04    3.96      30.1  T
   5    -28.3610111 -0.530028E-08  0.359E-04    3.96      62.2  T
     SCC iter.                  ...        0 min,  0.003 sec
     gradient                   ...        0 min,  0.003 sec
 * total energy  :   -27.9873565 Eh     change       -0.1513182E-04 Eh
   gradient norm :     0.0016046 Eh/α   predicted    -0.1387996E-04 (  -8.27%)
   displ. norm   :     0.0130347 α      lambda       -0.3267293E-05
   maximum displ.:     0.0081410 α      in ANC's #3, #1, #5, ...

........................................................................
.............................. CYCLE   37 ..............................
........................................................................

 iter      E             dE          RMSdq      gap      omega  full diag
   1    -28.3612455 -0.283612E+02  0.769E-03    3.96       0.0  T
   2    -28.3612455 -0.254731E-07  0.458E-03    3.96       4.9  T
   3    -28.3612455  0.835382E-08  0.100E-03    3.96      22.3  T
   4    -28.3612455 -0.127306E-07  0.361E-04    3.96      62.0  T
   5    -28.3612455 -0.115238E-08  0.154E-04    3.96     145.1  T
     SCC iter.                  ...        0 min,  0.003 sec
     gradient                   ...        0 min,  0.003 sec
 * total energy  :   -27.9873595 Eh     change       -0.2965702E-05 Eh
   gradient norm :     0.0006000 Eh/α   predicted    -0.1637572E-05 ( -44.78%)
   displ. norm   :     0.0328574 α      lambda       -0.2051780E-05
   maximum displ.:     0.0175218 α      in ANC's #4, #1, #5, ...

   *** GEOMETRY OPTIMIZATION CONVERGED AFTER 37 ITERATIONS ***

------------------------------------------------------------------------
 total energy gain   :        -0.0074862 Eh       -4.6977 kcal/mol
 total RMSD          :         1.3636182 a0        0.7216 Å
 total power (kW/mol):        -0.5312159 (step)  -39.6930 (real)
------------------------------------------------------------------------

 ANCopt (total)                0 d,  0 h,  0 min,  0.495 sec
 optimizer setup                ...        0 min,  0.000 sec (  0.016%)
 model hessian                  ...        0 min,  0.024 sec (  4.817%)
 ANC generation                 ...        0 min,  0.005 sec (  0.995%)
 coordinate transformation      ...        0 min,  0.000 sec (  0.061%)
 single point calculation       ...        0 min,  0.453 sec ( 91.581%)
 optimization log               ...        0 min,  0.003 sec (  0.555%)
 hessian update                 ...        0 min,  0.005 sec (  1.078%)
 rational function              ...        0 min,  0.003 sec (  0.603%)

================
 final structure:
================
20
 xtb: 6.7.1 (edcfbbe)
O            1.33108349875213       -0.05449491275187        0.71028291625106
C            0.70041896018678       -1.29468200445007        0.91397162975251
C            1.17998772294021       -2.23874771675333       -0.19821393903355
N            2.61632919277833       -2.36541962108154       -0.15607602198932
C            3.49374548060471       -1.42522781118412       -0.60000074465059
C            4.74633861310016       -1.87525494249255       -0.31211480615506
N            4.61273754641951       -3.08245068833545        0.30550802509840
C            3.31445044910476       -3.35647091826269        0.39326354187790
C            5.69724415782395       -3.90951245236663        0.76111243671033
H            0.94066865278879        0.61269757076716        1.28376866324186
H            0.96413000880808       -1.71008688300998        1.89760974307429
H           -0.39013040664041       -1.21234642148312        0.84688329679516
H            0.72078973610587       -3.22055230740380       -0.08210076185306
H            0.90143100089367       -1.81051734358606       -1.16334295608628
H            3.16773202049244       -0.51319721204173       -1.05645992799273
H            5.70090496933410       -1.42848804293139       -0.50170416202336
H            2.89608665635619       -4.24305600748824        0.82951505665965
H            5.30969303446909       -4.75259721838820        1.32826014850738
H            6.26741812938339       -4.28576720562596       -0.08942682349865
H            6.36696057629933       -3.32907786113035        1.39534468531409

 Bond Distances (Angstroems)
 ---------------------------
O1-C2=1.4062         O1-H10=0.9625        C2-O1=1.4062         C2-C3=1.5356         C2-H11=1.0998        C2-H12=1.0957        
C3-C2=1.5356         C3-N4=1.4425         C3-H13=1.0901        C3-H14=1.0920        N4-C3=1.4425         N4-C5=1.3605         
N4-C8=1.3309         C5-N4=1.3605         C5-C6=1.3618         C5-H15=1.0707        C6-C5=1.3618         C6-N7=1.3626         
C6-H16=1.0709        N7-C6=1.3626         N7-C8=1.3298         N7-C9=1.4380         C8-N4=1.3309         C8-N7=1.3298         
C8-H17=1.0730        C9-N7=1.4380         C9-H18=1.0875        C9-H19=1.0909        C9-H20=1.0898        H10-O1=0.9625        
H11-C2=1.0998        H12-C2=1.0957        H13-C3=1.0901        H14-C3=1.0920        H15-C5=1.0707        H16-C6=1.0709        
H17-C8=1.0730        H18-C9=1.0875        H19-C9=1.0909        H20-C9=1.0898        
 C  H  Rav=1.0860 sigma=0.0101  Rmin=1.0707  Rmax=1.0998    10
 C  C  Rav=1.4487 sigma=0.0869  Rmin=1.3618  Rmax=1.5356     2
 N  C  Rav=1.3774 sigma=0.0463  Rmin=1.3298  Rmax=1.4425     6
 O  H  Rav=0.9625 sigma=0.0000  Rmin=0.9625  Rmax=0.9625     1
 O  C  Rav=1.4062 sigma=0.0000  Rmin=1.4062  Rmax=1.4062     1

 selected bond angles (degree)
 --------------------
H10-O1-C2=110.07               C3-C2-O1=107.29                H11-C2-O1=110.80               H11-C2-C3=109.92               
H12-C2-O1=111.79               H12-C2-C3=108.22               H12-C2-H11=108.77              N4-C3-C2=110.11                
H13-C3-C2=110.18               H13-C3-N4=109.71               H14-C3-C2=108.62               H14-C3-N4=108.32               
H14-C3-H13=109.87              C5-N4-C3=124.89                C8-N4-C3=126.85                C8-N4-C5=108.12                
C6-C5-N4=107.21                H15-C5-N4=122.10               H15-C5-C6=130.67               N7-C6-C5=107.36                
H16-C6-C5=130.14               H16-C6-N7=122.50               C8-N7-C6=107.95                C9-N7-C6=125.40                
C9-N7-C8=126.65                N7-C8-N4=109.36                H17-C8-N4=125.35               H17-C8-N7=125.29               
H18-C9-N7=110.02               H19-C9-N7=110.21               H19-C9-H18=108.99              H20-C9-N7=109.97               
H20-C9-H18=109.17              H20-C9-H19=108.44              

 selected dihedral angles (degree)
 ---------------------------------
C3-C2-O1-H10=169.68           H11-C2-O1-H10=289.68          H12-C2-O1-H10= 51.18          N4-C3-C2-O1= 58.60            
N4-C3-C2-H11=298.05           N4-C3-C2-H12=179.39           H13-C3-C2-O1=179.75           H13-C3-C2-H11= 59.19          
H13-C3-C2-H12=300.53          H14-C3-C2-O1=300.15           H14-C3-C2-H11=179.59          H14-C3-C2-H12= 60.93          
C5-N4-C3-C2=283.80            C5-N4-C3-H13=162.37           C5-N4-C3-H14= 42.45           C8-N4-C3-C2= 98.92            
C8-N4-C3-H13=337.49           C8-N4-C3-H14=217.56           C6-C5-N4-C3=176.22            C6-C5-N4-C8=  0.33            
H15-C5-N4-C3=357.75           H15-C5-N4-C8=181.86           N7-C6-C5-N4=359.89            N7-C6-C5-H15=178.18           
H16-C6-C5-N4=179.82           H16-C6-C5-H15=358.11          C8-N7-C6-C5=359.85            C8-N7-C6-H16=179.91           
C9-N7-C6-C5=179.15            C9-N7-C6-H16=359.21           N7-C8-N4-C3=183.78            N7-C8-N4-C5=359.57            
H17-C8-N4-C3=  4.38           H17-C8-N4-C5=180.17           N4-C8-N7-C6=  0.36            N4-C8-N7-C9=181.07            
H17-C8-N7-C6=179.76           H17-C8-N7-C9=  0.48           H18-C9-N7-C6=172.81           H18-C9-N7-C8=351.97           
H19-C9-N7-C6=293.03           H19-C9-N7-C8=112.19           H20-C9-N7-C6= 52.52           H20-C9-N7-C8=231.69           
           -------------------------------------------------
          |                Final Singlepoint                |
           -------------------------------------------------

          ...................................................
          :                      SETUP                      :
          :.................................................:
          :  # basis functions                  47          :
          :  # atomic orbitals                  47          :
          :  # shells                           29          :
          :  # electrons                        50          :
          :  max. iterations                   250          :
          :  Hamiltonian                  GFN2-xTB          :
          :  restarted?                      false          :
          :  GBSA solvation                  false          :
          :  PC potential                    false          :
          :  electronic temp.          300.0000000     K    :
          :  accuracy                    1.0000000          :
          :  -> integral cutoff          0.2500000E+02      :
          :  -> integral neglect         0.1000000E-07      :
          :  -> SCF convergence          0.1000000E-05 Eh   :
          :  -> wf. convergence          0.1000000E-03 e    :
          :  Broyden damping             0.4000000          :
          :  net charge                          1          :
          :  unpaired electrons                  0          :
          ...................................................

 iter      E             dE          RMSdq      gap      omega  full diag
   1    -28.3612455 -0.283612E+02  0.353E-05    3.96       0.0  T
   2    -28.3612455 -0.512301E-11  0.199E-05    3.96    1121.3  T
   3    -28.3612455 -0.109068E-11  0.123E-05    3.96    1819.2  T

   *** convergence criteria satisfied after 3 iterations ***

         #    Occupation            Energy/Eh            Energy/eV
      -------------------------------------------------------------
         1        2.0000           -0.8961028             -24.3842
       ...           ...                  ...                  ...
        19        2.0000           -0.6469219             -17.6036
        20        2.0000           -0.6393024             -17.3963
        21        2.0000           -0.6281628             -17.0932
        22        2.0000           -0.6180907             -16.8191
        23        2.0000           -0.5953756             -16.2010
        24        2.0000           -0.5851496             -15.9227
        25        2.0000           -0.5523754             -15.0309 (HOMO)
        26                         -0.4069682             -11.0742 (LUMO)
        27                         -0.3679248             -10.0117
        28                         -0.1860572              -5.0629
        29                         -0.1279540              -3.4818
        30                         -0.0912304              -2.4825
       ...                                ...                  ...
        47                          0.4679874              12.7346
      -------------------------------------------------------------
                  HL-Gap            0.1454072 Eh            3.9567 eV
             Fermi-level           -0.4796718 Eh          -13.0525 eV

 SCC (total)                   0 d,  0 h,  0 min,  0.006 sec
 SCC setup                      ...        0 min,  0.000 sec (  1.657%)
 Dispersion                     ...        0 min,  0.000 sec (  2.205%)
 classical contributions        ...        0 min,  0.000 sec (  0.723%)
 integral evaluation            ...        0 min,  0.001 sec ( 15.439%)
 iterations                     ...        0 min,  0.002 sec ( 31.360%)
 molecular gradient             ...        0 min,  0.003 sec ( 47.157%)
 printout                       ...        0 min,  0.000 sec (  1.201%)

         :::::::::::::::::::::::::::::::::::::::::::::::::::::
         ::                     SUMMARY                     ::
         :::::::::::::::::::::::::::::::::::::::::::::::::::::
         :: total energy             -27.987359505038 Eh    ::
         :: gradient norm              0.000600696563 Eh/a0 ::
         :: HOMO-LUMO gap              3.956730742707 eV    ::
         ::.................................................::
         :: SCC energy               -28.361209272678 Eh    ::
         :: -> isotropic ES            0.103331795306 Eh    ::
         :: -> anisotropic ES         -0.009635743697 Eh    ::
         :: -> anisotropic XC          0.013176658807 Eh    ::
         :: -> dispersion             -0.013105286106 Eh    ::
         :: repulsion energy           0.373849767639 Eh    ::
         :: add. restraining           0.000000000000 Eh    ::
         :: total charge               1.000000000000 e     ::
         :::::::::::::::::::::::::::::::::::::::::::::::::::::

           -------------------------------------------------
          |                Property Printout                |
           -------------------------------------------------

    * Orbital Energies and Occupations

         #    Occupation            Energy/Eh            Energy/eV
      -------------------------------------------------------------
         1        2.0000           -0.8961028             -24.3842
       ...           ...                  ...                  ...
        13        2.0000           -0.7009904             -19.0749
        14        2.0000           -0.6943410             -18.8940
        15        2.0000           -0.6877151             -18.7137
        16        2.0000           -0.6743857             -18.3510
        17        2.0000           -0.6624340             -18.0257
        18        2.0000           -0.6575983             -17.8942
        19        2.0000           -0.6469219             -17.6036
        20        2.0000           -0.6393024             -17.3963
        21        2.0000           -0.6281628             -17.0932
        22        2.0000           -0.6180907             -16.8191
        23        2.0000           -0.5953756             -16.2010
        24        2.0000           -0.5851496             -15.9227
        25        2.0000           -0.5523754             -15.0309 (HOMO)
        26                         -0.4069682             -11.0742 (LUMO)
        27                         -0.3679248             -10.0117
        28                         -0.1860572              -5.0629
        29                         -0.1279540              -3.4818
        30                         -0.0912304              -2.4825
        31                         -0.0587465              -1.5986
        32                         -0.0505121              -1.3745
        33                         -0.0368046              -1.0015
        34                         -0.0216830              -0.5900
        35                         -0.0135891              -0.3698
        36                         -0.0001054              -0.0029
       ...                                ...                  ...
        47                          0.4679874              12.7346
      -------------------------------------------------------------
                  HL-Gap            0.1454072 Eh            3.9567 eV
             Fermi-level           -0.4796718 Eh          -13.0525 eV

     #   Z          covCN         q      C6AA      α(0)
     1   8 O        1.656    -0.435    21.548     6.266
     2   6 C        3.675     0.075    19.542     6.334
     3   6 C        3.742    -0.031    21.207     6.570
     4   7 N        2.873     0.080    19.853     6.618
     5   6 C        3.070     0.002    27.920     8.664
     6   6 C        3.074    -0.010    28.180     8.704
     7   7 N        2.867     0.081    19.841     6.616
     8   6 C        3.095     0.041    26.974     8.512
     9   6 C        3.692    -0.087    22.361     6.766
    10   1 H        0.805     0.314     0.681     1.296
    11   1 H        0.923     0.044     2.401     2.423
    12   1 H        0.924     0.063     2.163     2.300
    13   1 H        0.925     0.088     1.898     2.154
    14   1 H        0.924     0.110     1.694     2.036
    15   1 H        0.926     0.128     1.552     1.948
    16   1 H        0.926     0.112     1.682     2.028
    17   1 H        0.926     0.112     1.681     2.028
    18   1 H        0.925     0.100     1.789     2.092
    19   1 H        0.924     0.108     1.715     2.048
    20   1 H        0.925     0.109     1.709     2.044

 Mol. C6AA /au·bohr⁶  :       3282.629857
 Mol. C8AA /au·bohr⁸  :      73347.119892
 Mol. α(0) /au        :         87.447935


Wiberg/Mayer (AO) data.
largest (>0.10) Wiberg bond orders for each atom

 ---------------------------------------------------------------------------
     #   Z sym  total        # sym  WBO       # sym  WBO       # sym  WBO
 ---------------------------------------------------------------------------
     1   8 O    1.956 --     2 C    1.011    10 H    0.887
     2   6 C    3.959 --     1 O    1.011     3 C    0.982    11 H    0.967
                            12 H    0.965
     3   6 C    3.945 --     2 C    0.982     4 N    0.978    13 H    0.967
                            14 H    0.958
     4   7 N    3.723 --     8 C    1.357     5 C    1.231     3 C    0.978
     5   6 C    3.946 --     6 C    1.591     4 N    1.231    15 H    0.956
     6   6 C    3.947 --     5 C    1.591     7 N    1.225    16 H    0.961
     7   7 N    3.723 --     8 C    1.364     6 C    1.225     9 C    0.991
     8   6 C    3.946 --     7 N    1.364     4 N    1.357    17 H    0.954
     9   6 C    3.933 --     7 N    0.991    18 H    0.976    20 H    0.964
                            19 H    0.960
    10   1 H    0.902 --     1 O    0.887
    11   1 H    0.998 --     2 C    0.967
    12   1 H    0.995 --     2 C    0.965
    13   1 H    0.992 --     3 C    0.967
    14   1 H    0.987 --     3 C    0.958
    15   1 H    0.983 --     5 C    0.956
    16   1 H    0.987 --     6 C    0.961
    17   1 H    0.988 --     8 C    0.954
    18   1 H    0.990 --     9 C    0.976
    19   1 H    0.988 --     9 C    0.960
    20   1 H    0.988 --     9 C    0.964
 ---------------------------------------------------------------------------

Topologies differ in total number of bonds
Writing topology from bond orders to xtbtopo.mol

molecular dipole:
                 x           y           z       tot (Debye)
 q only:        6.327      -5.023       0.584
   full:        6.132      -5.083       0.774      20.341
molecular quadrupole (traceless):
                xx          xy          yy          xz          yz          zz
 q only:       39.971     -56.057       2.186       4.580      -5.197     -42.158
  q+dip:       37.899     -56.019       3.385       5.133      -6.152     -41.284
   full:       37.353     -56.024       3.569       4.866      -5.286     -40.922

           -------------------------------------------------
          |                Geometry Summary                 |
           -------------------------------------------------

      molecular mass/u    :      127.1645750
   center of mass at/Å    :        3.0311123      -2.1438938       0.2334710
  moments of inertia/u·Å² :        0.1245723E+03   0.5173767E+03   0.5664241E+03
rotational constants/cm⁻¹ :        0.1353241E+00   0.3258290E-01   0.2976150E-01

 * 20 selected distances

     #   Z          #   Z                                           value/Å
     1   8 O        2   6 C                                       1.4061619
     2   6 C        3   6 C                                       1.5356443 (max)
     3   6 C        4   7 N                                       1.4425320
     4   7 N        5   6 C                                       1.3604740
     5   6 C        6   6 C                                       1.3617609
     6   6 C        7   7 N                                       1.3625818
     4   7 N        8   6 C                                       1.3309133
     7   7 N        8   6 C                                       1.3297886
     7   7 N        9   6 C                                       1.4379713
     1   8 O       10   1 H                                       0.9625257 (min)
     2   6 C       11   1 H                                       1.0998404
     2   6 C       12   1 H                                       1.0957090
     3   6 C       13   1 H                                       1.0900851
     3   6 C       14   1 H                                       1.0919933
     5   6 C       15   1 H                                       1.0707193
     6   6 C       16   1 H                                       1.0708604
     8   6 C       17   1 H                                       1.0730224
     9   6 C       18   1 H                                       1.0874946
     9   6 C       19   1 H                                       1.0909094
     9   6 C       20   1 H                                       1.0898051

 * 5 distinct bonds (by element types)

   Z      Z             #   av. dist./Å        max./Å        min./Å
   1 H    6 C          10     1.0860439     1.0998404     1.0707193
   6 C    6 C           2     1.4487026     1.5356443     1.3617609
   6 C    7 N           6     1.3773768     1.4425320     1.3297886
   1 H    8 O           1     0.9625257     0.9625257     0.9625257
   6 C    8 O           1     1.4061619     1.4061619     1.4061619


optimized geometry written to: xtbopt.xyz


           -------------------------------------------------
          | TOTAL ENERGY              -27.987359505038 Eh   |
          | GRADIENT NORM               0.000600696563 Eh/α |
          | HOMO-LUMO GAP               3.956730742707 eV   |
           -------------------------------------------------

------------------------------------------------------------------------
 * finished run on 2024/12/20 at 06:53:43.546     
------------------------------------------------------------------------
 total:
 * wall-time:     0 d,  0 h,  0 min,  0.528 sec
 *  cpu-time:     0 d,  0 h,  0 min,  3.689 sec
 * ratio c/w:     6.992 speedup
 SCF:
 * wall-time:     0 d,  0 h,  0 min,  0.010 sec
 *  cpu-time:     0 d,  0 h,  0 min,  0.076 sec
 * ratio c/w:     7.898 speedup
 ANC optimizer:
 * wall-time:     0 d,  0 h,  0 min,  0.502 sec
 *  cpu-time:     0 d,  0 h,  0 min,  3.499 sec
 * ratio c/w:     6.974 speedup

