31
 energy: -53.025314040887 gnorm: 0.000640296301 xtb: 6.7.1 (edcfbbe)
C            1.19961062695863       -0.12913846273077       -0.04017232378329
C            0.46408539803842        0.73900024505215       -0.70984354544958
C           -1.03092629601035        0.78337036898892       -0.64325443492128
O           -1.55730296403756        2.09446761097520       -0.34774215570143
N           -1.34851248769473        2.52711473602668        0.91811975931312
C           -0.15877047280884        2.84299359354065        1.49900754400270
C           -0.45489752069925        3.30613805317470        2.74585194338860
N           -1.80609114545757        3.26445710434888        2.89711055071592
C           -2.33489439932972        2.78461127254595        1.77618561009325
C           -2.54872263631629        3.74500945551055        4.04831725086200
C           -3.01077623331894        5.16496052779111        3.82402279021906
C           -2.23119519186287        6.23745437887242        4.24312119619156
C           -2.63500115547574        7.54305011356141        4.04324367680380
C           -3.84524673982082        7.79588759811904        3.40831947753813
C           -4.64179351664070        6.74190851106499        2.97761607986506
C           -4.21827072082431        5.44091652857418        3.18353998822203
Cl          -5.24309644191481        4.15386761252701        2.64371965440862
Cl          -4.36687577567825        9.40909341493983        3.15422143692098
H            0.76004185305142       -0.86695613951570        0.61159724527299
H            2.27055487835226       -0.15615535253032       -0.13711290407828
H            0.91147646665983        1.46151250039268       -1.37806619621600
H           -1.46105577451486        0.58763502460878       -1.62879581291203
H           -1.42340855615071        0.05528388864656        0.07497992586756
H            0.78191232427217        2.71207726445752        1.00434555381342
H            0.20429019367850        3.65171478994580        3.51601585437203
H           -3.38263614819421        2.65844374783867        1.57670907004428
H           -3.41268372874822        3.09489118947411        4.20054843696234
H           -1.89472609228144        3.69644072546946        4.92004024001241
H           -1.29625766642313        6.04816561415362        4.74816161177250
H           -2.02274596359970        8.36300564680233        4.38066854084066
H           -5.58259411320735        6.93980843737395        2.48943393555811
