      -----------------------------------------------------------      
     |                   =====================                   |     
     |                           x T B                           |     
     |                   =====================                   |     
     |                         S. Grimme                         |     
     |          Mulliken Center for Theoretical Chemistry        |     
     |                    University of Bonn                     |     
      -----------------------------------------------------------      

   * xtb version 6.7.1 (edcfbbe) compiled by 'conda@3ef47c1a292c' on 2024-11-25

   xtb is free software: you can redistribute it and/or modify it under
   the terms of the GNU Lesser General Public License as published by
   the Free Software Foundation, either version 3 of the License, or
   (at your option) any later version.
   
   xtb is distributed in the hope that it will be useful,
   but WITHOUT ANY WARRANTY; without even the implied warranty of
   MERCHANTABILITY or FITNESS FOR A PARTICULAR PURPOSE.  See the
   GNU Lesser General Public License for more details.
   
   Cite this work as:
   * C. Bannwarth, E. Caldeweyher, S. Ehlert, A. Hansen, P. Pracht,
     J. Seibert, S. Spicher, S. Grimme, WIREs Comput. Mol. Sci., 2020, 11,
     e01493. DOI: 10.1002/wcms.1493
   
   for GFN2-xTB:
   * C. Bannwarth, S. Ehlert and S. Grimme., J. Chem. Theory Comput., 2019,
     15, 1652-1671. DOI: 10.1021/acs.jctc.8b01176
   for GFN1-xTB:
   * S. Grimme, C. Bannwarth, P. Shushkov, J. Chem. Theory Comput., 2017,
     13, 1989-2009. DOI: 10.1021/acs.jctc.7b00118
   for GFN0-xTB:
   * P. Pracht, E. Caldeweyher, S. Ehlert, S. Grimme, ChemRxiv, 2019, preprint.
     DOI: 10.26434/chemrxiv.8326202.v1
   for GFN-FF:
   * S. Spicher and S. Grimme, Angew. Chem. Int. Ed., 2020, 59, 15665-15673.
     DOI: 10.1002/anie.202004239
   
   for ALPB and GBSA implicit solvation:
   * S. Ehlert, M. Stahn, S. Spicher, S. Grimme, J. Chem. Theory Comput.,
     2021, 17, 4250-4261. DOI: 10.1021/acs.jctc.1c00471
   
   for ddCOSMO and CPCM-X implicit solvation:
   * M. Stahn, S. Ehlert, S. Grimme, J. Phys. Chem. A,
     2023, XX, XXXX-XXXX. DOI: 10.1021/acs.jpca.3c04382
   
   for DFT-D4:
   * E. Caldeweyher, C. Bannwarth and S. Grimme, J. Chem. Phys., 2017,
     147, 034112. DOI: 10.1063/1.4993215
   * E. Caldeweyher, S. Ehlert, A. Hansen, H. Neugebauer, S. Spicher,
     C. Bannwarth and S. Grimme, J. Chem. Phys., 2019, 150, 154122.
     DOI: 10.1063/1.5090222
   * E. Caldeweyher, J.-M. Mewes, S. Ehlert and S. Grimme, Phys. Chem. Chem. Phys.
     2020, 22, 8499-8512. DOI: 10.1039/D0CP00502A
   
   for sTDA-xTB:
   * S. Grimme and C. Bannwarth, J. Chem. Phys., 2016, 145, 054103.
     DOI: 10.1063/1.4959605
   
   in the mass-spec context:
   * V. Asgeirsson, C. Bauer and S. Grimme, Chem. Sci., 2017, 8, 4879.
     DOI: 10.1039/c7sc00601b
   * J. Koopman and S. Grimme, ACS Omega 2019, 4, 12, 15120-15133.
     DOI: 10.1021/acsomega.9b02011
   
   for metadynamics refer to:
   * S. Grimme, J. Chem. Theory Comput., 2019, 155, 2847-2862
     DOI: 10.1021/acs.jctc.9b00143
   
   for SPH calculations refer to:
   * S. Spicher and S. Grimme, J. Chem. Theory Comput., 2021, 17, 1701-1714
     DOI: 10.1021/acs.jctc.0c01306
   
   for ONIOM refer to:
   * C. Plett, A. Katbashev, S. Ehlert, S. Grimme, M. Bursch,
     Phys. Chem. Chem. Phys., 2023, 25, 17860-17868. DOI: 10.1039/D3CP02178E
   
   for DIPRO refer to:
   * J. Kohn, N. Gildemeister, S. Grimme, D. Fazzi, A. Hansen,
     J. Chem. Phys., 2023, just accepted.
   
   for PTB refer to:
   * S. Grimme, M. Mueller, A. Hansen, J. Chem. Phys., 2023, 158, 124111.
     DOI: 10.1063/5.0137838
   
   with help from (in alphabetical order)
   P. Atkinson, C. Bannwarth, F. Bohle, G. Brandenburg, E. Caldeweyher
   M. Checinski, S. Dohm, S. Ehlert, S. Ehrlich, I. Gerasimov, C. Hölzer
   A. Katbashev, J. Kohn, J. Koopman, C. Lavigne, S. Lehtola, F. März, M. Müller,
   F. Musil, H. Neugebauer, J. Pisarek, C. Plett, P. Pracht, F. Pultar,
   J. Seibert, P. Shushkov, S. Spicher, M. Stahn, M. Steiner, T. Strunk,
   J. Stückrath, T. Rose, and J. Unsleber
   
 * started run on 2024/12/20 at 06:55:10.121     
   ID    Z sym.   atoms
    1    6 C      1-8, 10, 11, 13-15, 19, 20, 22, 23
    2    7 N      9, 12
    3   15 P      16
    4    8 O      17, 18, 21
    5    1 H      24-59

           -------------------------------------------------
          |                Calculation Setup                |
           -------------------------------------------------

          program call               : xtb C0747.xyz --opt --namespace C0747 --charge +1
          calculation namespace      : C0747
          coordinate file            : C0747.xyz
          omp threads                :                     8


           -------------------------------------------------
          |                 G F N 2 - x T B                 |
           -------------------------------------------------

        Reference                      10.1021/acs.jctc.8b01176
      * Hamiltonian:
        H0-scaling (s, p, d)           1.850000    2.230000    2.230000
        zeta-weighting                 0.500000
      * Dispersion:
        s8                             2.700000
        a1                             0.520000
        a2                             5.000000
        s9                             5.000000
      * Repulsion:
        kExp                           1.500000    1.000000
        rExp                           1.000000
      * Coulomb:
        alpha                          2.000000
        third order                    shell-resolved
        anisotropic                    true
        a3                             3.000000
        a5                             4.000000
        cn-shift                       1.200000
        cn-exp                         4.000000
        max-rad                        5.000000


          ...................................................
          :                      SETUP                      :
          :.................................................:
          :  # basis functions                 134          :
          :  # atomic orbitals                 133          :
          :  # shells                           83          :
          :  # electrons                       136          :
          :  max. iterations                   250          :
          :  Hamiltonian                  GFN2-xTB          :
          :  restarted?                      false          :
          :  GBSA solvation                  false          :
          :  PC potential                    false          :
          :  electronic temp.          300.0000000     K    :
          :  accuracy                    1.0000000          :
          :  -> integral cutoff          0.2500000E+02      :
          :  -> integral neglect         0.1000000E-07      :
          :  -> SCF convergence          0.1000000E-05 Eh   :
          :  -> wf. convergence          0.1000000E-03 e    :
          :  Broyden damping             0.4000000          :
          :  net charge                          1          :
          :  unpaired electrons                  0          :
          ...................................................

 iter      E             dE          RMSdq      gap      omega  full diag
   1    -75.5194415 -0.755194E+02  0.438E+00    1.28       0.0  T
   2    -75.7618801 -0.242439E+00  0.261E+00    1.56       1.0  T
   3    -75.7703409 -0.846079E-02  0.123E+00    1.54       1.0  T
   4    -75.7688599  0.148096E-02  0.624E-01    1.31       1.0  T
   5    -75.7806917 -0.118318E-01  0.248E-01    1.46       1.0  T
   6    -75.7820883 -0.139658E-02  0.998E-02    1.45       1.0  T
   7    -75.7821339 -0.455963E-04  0.516E-02    1.43       1.0  T
   8    -75.7821657 -0.318028E-04  0.177E-02    1.44       1.0  T
   9    -75.7821704 -0.465004E-05  0.831E-03    1.44       1.6  T
  10    -75.7821707 -0.316083E-06  0.462E-03    1.44       2.8  T
  11    -75.7821710 -0.283164E-06  0.145E-03    1.44       9.0  T
  12    -75.7821710 -0.707917E-08  0.492E-04    1.44      26.5  T
  13    -75.7821710 -0.173895E-08  0.165E-04    1.44      78.7  T

   *** convergence criteria satisfied after 13 iterations ***

         #    Occupation            Energy/Eh            Energy/eV
      -------------------------------------------------------------
         1        2.0000           -0.8828341             -24.0231
       ...           ...                  ...                  ...
        62        2.0000           -0.5103354             -13.8869
        63        2.0000           -0.5070515             -13.7976
        64        2.0000           -0.5051707             -13.7464
        65        2.0000           -0.5017750             -13.6540
        66        2.0000           -0.4992627             -13.5856
        67        2.0000           -0.4871660             -13.2565
        68        2.0000           -0.4747863             -12.9196 (HOMO)
        69                         -0.4219910             -11.4830 (LUMO)
        70                         -0.3680547             -10.0153
        71                         -0.2640252              -7.1845
        72                         -0.2211493              -6.0178
        73                         -0.1961154              -5.3366
       ...                                ...                  ...
       133                          1.4012574              38.1302
      -------------------------------------------------------------
                  HL-Gap            0.0527953 Eh            1.4366 eV
             Fermi-level           -0.4483886 Eh          -12.2013 eV

 SCC (total)                   0 d,  0 h,  0 min,  0.053 sec
 SCC setup                      ...        0 min,  0.000 sec (  0.399%)
 Dispersion                     ...        0 min,  0.001 sec (  1.615%)
 classical contributions        ...        0 min,  0.000 sec (  0.163%)
 integral evaluation            ...        0 min,  0.004 sec (  8.362%)
 iterations                     ...        0 min,  0.035 sec ( 65.988%)
 molecular gradient             ...        0 min,  0.012 sec ( 23.061%)
 printout                       ...        0 min,  0.000 sec (  0.378%)

         :::::::::::::::::::::::::::::::::::::::::::::::::::::
         ::                     SUMMARY                     ::
         :::::::::::::::::::::::::::::::::::::::::::::::::::::
         :: total energy             -74.889597829298 Eh    ::
         :: gradient norm              0.190748421872 Eh/a0 ::
         :: HOMO-LUMO gap              1.436632556245 eV    ::
         ::.................................................::
         :: SCC energy               -75.780650508850 Eh    ::
         :: -> isotropic ES            0.175757722023 Eh    ::
         :: -> anisotropic ES          0.003621476056 Eh    ::
         :: -> anisotropic XC          0.039791870033 Eh    ::
         :: -> dispersion             -0.055141509825 Eh    ::
         :: repulsion energy           0.891052679552 Eh    ::
         :: add. restraining           0.000000000000 Eh    ::
         :: total charge               1.000000000000 e     ::
         :::::::::::::::::::::::::::::::::::::::::::::::::::::

      ----------------------------------------------------------- 
     |                   =====================                   |
     |                        A N C O P T                        |
     |                   =====================                   |
     |               Approximate Normal Coordinate               |
     |                Rational Function Optimizer                |
      ----------------------------------------------------------- 
      ----------------------------------------------------------- 
     |                   =====================                   |
     |                        A N C O P T                        |
     |                   =====================                   |
     |               Approximate Normal Coordinate               |
     |                Rational Function Optimizer                |
      ----------------------------------------------------------- 

          ...................................................
          :                      SETUP                      :
          :.................................................:
          :   optimization level            normal          :
          :   max. optcycles                   200          :
          :   ANC micro-cycles                  20          :
          :   degrees of freedom               171          :
          :.................................................:
          :   RF solver                   davidson          :
          :   write xtbopt.log                true          :
          :   linear?                        false          :
          :   energy convergence         0.5000000E-05 Eh   :
          :   grad. convergence          0.1000000E-02 Eh/α :
          :   maxmium RF displ.          1.0000000          :
          :   Hlow (freq-cutoff)         0.1000000E-01      :
          :   Hmax (freq-cutoff)         5.0000000          :
          :   S6 in model hess.         20.0000000          :
          ...................................................

generating ANC from exact Hessian ...
Using Lindh-Hessian (1995)
 Shifting diagonal of input Hessian by    9.9442256503043287E-003
 Lowest  eigenvalues of input Hessian
    0.000000    0.000000    0.000000    0.000000    0.000000    0.000000
    0.010000    0.010101    0.010256    0.010307    0.010598    0.010646
    0.010952    0.011272    0.011321    0.011730    0.012235    0.012668
 Highest eigenvalues
    1.609920    1.647995    1.700602    1.866867    2.013693    2.242318


........................................................................
.............................. CYCLE    1 ..............................
........................................................................

 iter      E             dE          RMSdq      gap      omega  full diag
   1    -75.7821710 -0.757822E+02  0.601E-05    1.44       0.0  T
   2    -75.7821710 -0.195683E-10  0.283E-05    1.44     459.6  T
   3    -75.7821710 -0.748912E-11  0.233E-05    1.44     557.9  T
     SCC iter.                  ...        0 min,  0.011 sec
     gradient                   ...        0 min,  0.012 sec
 * total energy  :   -74.8895978 Eh     change       -0.2388276E-09 Eh
   gradient norm :     0.1907489 Eh/α   predicted     0.0000000E+00 (-100.00%)
   displ. norm   :     0.4851988 α      lambda       -0.5820962E-01
   maximum displ.:     0.1832301 α      in ANC's #32, #72, #39, ...

........................................................................
.............................. CYCLE    2 ..............................
........................................................................

 iter      E             dE          RMSdq      gap      omega  full diag
   1    -75.8450164 -0.758450E+02  0.637E-01    2.23       0.0  T
   2    -75.8461934 -0.117699E-02  0.353E-01    2.26       1.0  T
   3    -75.8459859  0.207516E-03  0.187E-01    2.24       1.0  T
   4    -75.8466535 -0.667645E-03  0.334E-02    2.26       1.0  T
   5    -75.8466704 -0.169126E-04  0.167E-02    2.26       1.0  T
   6    -75.8466728 -0.238764E-05  0.800E-03    2.26       1.6  T
   7    -75.8466748 -0.202559E-05  0.243E-03    2.26       5.4  T
   8    -75.8466749 -0.513726E-07  0.113E-03    2.26      11.5  T
   9    -75.8466749 -0.827585E-08  0.383E-04    2.26      34.0  T
  10    -75.8466749 -0.637684E-09  0.146E-04    2.26      89.1  T
     SCC iter.                  ...        0 min,  0.026 sec
     gradient                   ...        0 min,  0.012 sec
 * total energy  :   -74.9379156 Eh     change       -0.4831778E-01 Eh
   gradient norm :     0.1335153 Eh/α   predicted    -0.3600762E-01 ( -25.48%)
   displ. norm   :     0.6167564 α      lambda       -0.5343254E-01
   maximum displ.:     0.2473783 α      in ANC's #32, #72, #83, ...

........................................................................
.............................. CYCLE    3 ..............................
........................................................................

 iter      E             dE          RMSdq      gap      omega  full diag
   1    -75.8998579 -0.758999E+02  0.536E-01    3.43       0.0  T
   2    -75.9027881 -0.293018E-02  0.371E-01    3.65       1.0  T
   3    -75.9034865 -0.698430E-03  0.183E-01    3.67       1.0  T
   4    -75.9034963 -0.971783E-05  0.810E-02    3.72       1.0  T
   5    -75.9035634 -0.671095E-04  0.322E-02    3.73       1.0  T
   6    -75.9035680 -0.464598E-05  0.899E-03    3.73       1.4  T
   7    -75.9035702 -0.215048E-05  0.371E-03    3.73       3.5  T
   8    -75.9035703 -0.189194E-06  0.233E-03    3.73       5.6  T
   9    -75.9035704 -0.200751E-07  0.628E-04    3.73      20.7  T
  10    -75.9035704 -0.228269E-08  0.214E-04    3.73      60.8  T
     SCC iter.                  ...        0 min,  0.026 sec
     gradient                   ...        0 min,  0.012 sec
 * total energy  :   -74.9715621 Eh     change       -0.3364648E-01 Eh
   gradient norm :     0.0622554 Eh/α   predicted    -0.3687884E-01 (   9.61%)
   displ. norm   :     0.4771952 α      lambda       -0.1353819E-01
   maximum displ.:     0.2244413 α      in ANC's #32, #19, #14, ...

........................................................................
.............................. CYCLE    4 ..............................
........................................................................

 iter      E             dE          RMSdq      gap      omega  full diag
   1    -75.9144554 -0.759145E+02  0.242E-01    3.87       0.0  T
   2    -75.9146740 -0.218592E-03  0.117E-01    3.91       1.0  T
   3    -75.9146923 -0.183819E-04  0.685E-02    3.93       1.0  T
   4    -75.9147389 -0.465252E-04  0.192E-02    3.94       1.0  T
   5    -75.9147390 -0.931070E-07  0.692E-03    3.95       1.9  T
   6    -75.9147394 -0.405021E-06  0.289E-03    3.95       4.5  T
   7    -75.9147395 -0.160929E-06  0.174E-03    3.95       7.5  T
   8    -75.9147395 -0.226222E-07  0.636E-04    3.95      20.5  T
   9    -75.9147396 -0.476724E-08  0.202E-04    3.95      64.4  T
     SCC iter.                  ...        0 min,  0.024 sec
     gradient                   ...        0 min,  0.012 sec
 * total energy  :   -74.9825066 Eh     change       -0.1094452E-01 Eh
   gradient norm :     0.0599420 Eh/α   predicted    -0.8310525E-02 ( -24.07%)
   displ. norm   :     0.5910636 α      lambda       -0.1493703E-01
   maximum displ.:     0.2750818 α      in ANC's #32, #19, #14, ...

........................................................................
.............................. CYCLE    5 ..............................
........................................................................

 iter      E             dE          RMSdq      gap      omega  full diag
   1    -75.9231883 -0.759232E+02  0.312E-01    3.99       0.0  T
   2    -75.9233932 -0.204912E-03  0.174E-01    4.00       1.0  T
   3    -75.9233572  0.359879E-04  0.836E-02    4.03       1.0  T
   4    -75.9234467 -0.894486E-04  0.163E-02    4.03       1.0  T
   5    -75.9234471 -0.365328E-06  0.871E-03    4.03       1.5  T
   6    -75.9234478 -0.735797E-06  0.388E-03    4.03       3.4  T
   7    -75.9234481 -0.320608E-06  0.203E-03    4.03       6.4  T
   8    -75.9234481 -0.332112E-07  0.565E-04    4.03      23.0  T
   9    -75.9234482 -0.230568E-08  0.200E-04    4.03      64.9  T
     SCC iter.                  ...        0 min,  0.024 sec
     gradient                   ...        0 min,  0.012 sec
 * total energy  :   -74.9946073 Eh     change       -0.1210066E-01 Eh
   gradient norm :     0.0460803 Eh/α   predicted    -0.1007770E-01 ( -16.72%)
   displ. norm   :     0.6183743 α      lambda       -0.1280411E-01
   maximum displ.:     0.2769175 α      in ANC's #19, #32, #14, ...

........................................................................
.............................. CYCLE    6 ..............................
........................................................................

 iter      E             dE          RMSdq      gap      omega  full diag
   1    -75.9323708 -0.759324E+02  0.363E-01    4.04       0.0  T
   2    -75.9325674 -0.196583E-03  0.207E-01    4.04       1.0  T
   3    -75.9325271  0.402446E-04  0.704E-02    4.07       1.0  T
   4    -75.9325998 -0.726983E-04  0.170E-02    4.06       1.0  T
   5    -75.9326037 -0.384790E-05  0.100E-02    4.06       1.3  T
   6    -75.9326056 -0.194784E-05  0.418E-03    4.06       3.1  T
   7    -75.9326059 -0.264931E-06  0.175E-03    4.06       7.5  T
   8    -75.9326059 -0.161026E-07  0.459E-04    4.06      28.4  T
   9    -75.9326059 -0.139195E-08  0.196E-04    4.06      66.3  T
     SCC iter.                  ...        0 min,  0.024 sec
     gradient                   ...        0 min,  0.012 sec
 * total energy  :   -75.0045401 Eh     change       -0.9932865E-02 Eh
   gradient norm :     0.0272531 Eh/α   predicted    -0.8850107E-02 ( -10.90%)
   displ. norm   :     0.6681632 α      lambda       -0.8587123E-02
   maximum displ.:     0.4035985 α      in ANC's #19, #14, #11, ...

........................................................................
.............................. CYCLE    7 ..............................
........................................................................

 iter      E             dE          RMSdq      gap      omega  full diag
   1    -75.9393354 -0.759393E+02  0.368E-01    4.06       0.0  T
   2    -75.9393994 -0.639673E-04  0.201E-01    4.07       1.0  T
   3    -75.9393785  0.208198E-04  0.344E-02    4.08       1.0  T
   4    -75.9393976 -0.190857E-04  0.159E-02    4.08       1.0  T
   5    -75.9394086 -0.110217E-04  0.459E-03    4.07       2.8  T
   6    -75.9394087 -0.856271E-07  0.204E-03    4.07       6.4  T
   7    -75.9394087 -0.207630E-07  0.543E-04    4.07      24.0  T
   8    -75.9394087 -0.150729E-08  0.247E-04    4.07      52.7  T
     SCC iter.                  ...        0 min,  0.021 sec
     gradient                   ...        0 min,  0.012 sec
 * total energy  :   -75.0114514 Eh     change       -0.6911250E-02 Eh
   gradient norm :     0.0225167 Eh/α   predicted    -0.6210385E-02 ( -10.14%)
   displ. norm   :     0.6747372 α      lambda       -0.6274619E-02
   maximum displ.:     0.4314961 α      in ANC's #19, #11, #14, ...

........................................................................
.............................. CYCLE    8 ..............................
........................................................................

 iter      E             dE          RMSdq      gap      omega  full diag
   1    -75.9463622 -0.759464E+02  0.304E-01    4.07       0.0  T
   2    -75.9463986 -0.364406E-04  0.168E-01    4.07       1.0  T
   3    -75.9463991 -0.505682E-06  0.171E-02    4.07       1.0  T
   4    -75.9464014 -0.231877E-05  0.876E-03    4.07       1.5  T
   5    -75.9464032 -0.181172E-05  0.430E-03    4.07       3.0  T
   6    -75.9464036 -0.375160E-06  0.182E-03    4.07       7.1  T
   7    -75.9464037 -0.264912E-07  0.615E-04    4.07      21.2  T
   8    -75.9464037 -0.124848E-08  0.182E-04    4.07      71.6  T
     SCC iter.                  ...        0 min,  0.021 sec
     gradient                   ...        0 min,  0.011 sec
 * total energy  :   -75.0164347 Eh     change       -0.4983325E-02 Eh
   gradient norm :     0.0200812 Eh/α   predicted    -0.4565634E-02 (  -8.38%)
   displ. norm   :     0.6636348 α      lambda       -0.4405785E-02
   maximum displ.:     0.4392460 α      in ANC's #19, #11, #14, ...

........................................................................
.............................. CYCLE    9 ..............................
........................................................................

 iter      E             dE          RMSdq      gap      omega  full diag
   1    -75.9510505 -0.759511E+02  0.191E-01    4.07       0.0  T
   2    -75.9510699 -0.193971E-04  0.104E-01    4.07       1.0  T
   3    -75.9510700 -0.160093E-06  0.166E-02    4.07       1.0  T
   4    -75.9510717 -0.166223E-05  0.658E-03    4.07       2.0  T
   5    -75.9510723 -0.640320E-06  0.440E-03    4.07       3.0  T
   6    -75.9510728 -0.432617E-06  0.149E-03    4.07       8.8  T
   7    -75.9510728 -0.138375E-07  0.521E-04    4.07      25.0  T
   8    -75.9510728 -0.183492E-08  0.151E-04    4.07      86.5  T
     SCC iter.                  ...        0 min,  0.022 sec
     gradient                   ...        0 min,  0.012 sec
 * total energy  :   -75.0200486 Eh     change       -0.3613927E-02 Eh
   gradient norm :     0.0190583 Eh/α   predicted    -0.3173071E-02 ( -12.20%)
   displ. norm   :     0.6769843 α      lambda       -0.3784177E-02
   maximum displ.:     0.4244265 α      in ANC's #19, #11, #14, ...

........................................................................
.............................. CYCLE   10 ..............................
........................................................................

 iter      E             dE          RMSdq      gap      omega  full diag
   1    -75.9550670 -0.759551E+02  0.121E-01    4.07       0.0  T
   2    -75.9550769 -0.993623E-05  0.697E-02    4.07       1.0  T
   3    -75.9550609  0.159794E-04  0.220E-02    4.06       1.0  T
   4    -75.9550802 -0.192392E-04  0.669E-03    4.06       1.9  T
   5    -75.9550808 -0.655113E-06  0.250E-03    4.07       5.2  T
   6    -75.9550809 -0.676638E-07  0.819E-04    4.07      15.9  T
   7    -75.9550809 -0.164179E-08  0.247E-04    4.07      52.8  T
     SCC iter.                  ...        0 min,  0.019 sec
     gradient                   ...        0 min,  0.012 sec
 * total energy  :   -75.0231336 Eh     change       -0.3084931E-02 Eh
   gradient norm :     0.0149428 Eh/α   predicted    -0.2759251E-02 ( -10.56%)
   displ. norm   :     0.7134344 α      lambda       -0.3182064E-02
   maximum displ.:     0.4617193 α      in ANC's #19, #11, #10, ...

........................................................................
.............................. CYCLE   11 ..............................
........................................................................

 iter      E             dE          RMSdq      gap      omega  full diag
   1    -75.9531987 -0.759532E+02  0.157E-01    4.09       0.0  T
   2    -75.9532371 -0.383657E-04  0.817E-02    4.10       1.0  T
   3    -75.9532321  0.504118E-05  0.304E-02    4.09       1.0  T
   4    -75.9532394 -0.734871E-05  0.112E-02    4.10       1.2  T
   5    -75.9532434 -0.396010E-05  0.462E-03    4.10       2.8  T
   6    -75.9532436 -0.244268E-06  0.114E-03    4.10      11.4  T
   7    -75.9532436 -0.425189E-08  0.573E-04    4.10      22.7  T
   8    -75.9532436 -0.114372E-08  0.131E-04    4.10      99.7  T
     SCC iter.                  ...        0 min,  0.022 sec
     gradient                   ...        0 min,  0.012 sec
 * total energy  :   -75.0255129 Eh     change       -0.2379314E-02 Eh
   gradient norm :     0.0170296 Eh/α   predicted    -0.2400852E-02 (   0.91%)
   displ. norm   :     0.6016358 α      lambda       -0.2513762E-02
   maximum displ.:     0.3276916 α      in ANC's #19, #11, #13, ...

........................................................................
.............................. CYCLE   12 ..............................
........................................................................

 iter      E             dE          RMSdq      gap      omega  full diag
   1    -75.9576463 -0.759576E+02  0.153E-01    4.11       0.0  T
   2    -75.9576665 -0.202605E-04  0.995E-02    4.10       1.0  T
   3    -75.9576277  0.388167E-04  0.302E-02    4.11       1.0  T
   4    -75.9576697 -0.419300E-04  0.928E-03    4.10       1.4  T
   5    -75.9576728 -0.310349E-05  0.279E-03    4.10       4.7  T
   6    -75.9576728 -0.364065E-07  0.106E-03    4.10      12.3  T
   7    -75.9576728 -0.741009E-08  0.426E-04    4.10      30.6  T
   8    -75.9576728 -0.573323E-09  0.165E-04    4.10      79.0  T
     SCC iter.                  ...        0 min,  0.021 sec
     gradient                   ...        0 min,  0.012 sec
 * total energy  :   -75.0272285 Eh     change       -0.1715621E-02 Eh
   gradient norm :     0.0162637 Eh/α   predicted    -0.1711834E-02 (  -0.22%)
   displ. norm   :     0.5441020 α      lambda       -0.1663097E-02
   maximum displ.:     0.3236897 α      in ANC's #19, #10, #11, ...

........................................................................
.............................. CYCLE   13 ..............................
........................................................................

 iter      E             dE          RMSdq      gap      omega  full diag
   1    -75.9570613 -0.759571E+02  0.137E-01    4.12       0.0  T
   2    -75.9570718 -0.105049E-04  0.737E-02    4.13       1.0  T
   3    -75.9570659  0.587566E-05  0.186E-02    4.14       1.0  T
   4    -75.9570735 -0.755495E-05  0.637E-03    4.13       2.0  T
   5    -75.9570744 -0.895294E-06  0.270E-03    4.13       4.8  T
   6    -75.9570745 -0.721866E-07  0.711E-04    4.13      18.3  T
   7    -75.9570745 -0.116553E-08  0.402E-04    4.13      32.4  T
     SCC iter.                  ...        0 min,  0.019 sec
     gradient                   ...        0 min,  0.012 sec
 * total energy  :   -75.0284841 Eh     change       -0.1255577E-02 Eh
   gradient norm :     0.0131148 Eh/α   predicted    -0.1077729E-02 ( -14.16%)
   displ. norm   :     0.4926915 α      lambda       -0.1444891E-02
   maximum displ.:     0.2522006 α      in ANC's #19, #18, #10, ...

........................................................................
.............................. CYCLE   14 ..............................
........................................................................

 iter      E             dE          RMSdq      gap      omega  full diag
   1    -75.9645117 -0.759645E+02  0.129E-01    4.15       0.0  T
   2    -75.9645191 -0.740171E-05  0.707E-02    4.16       1.0  T
   3    -75.9645171  0.202137E-05  0.157E-02    4.16       1.0  T
   4    -75.9645207 -0.361134E-05  0.494E-03    4.16       2.6  T
   5    -75.9645207 -0.281943E-07  0.270E-03    4.16       4.8  T
   6    -75.9645209 -0.213573E-06  0.651E-04    4.16      20.0  T
   7    -75.9645209 -0.296096E-08  0.329E-04    4.16      39.5  T
     SCC iter.                  ...        0 min,  0.019 sec
     gradient                   ...        0 min,  0.012 sec
 * total energy  :   -75.0294879 Eh     change       -0.1003786E-02 Eh
   gradient norm :     0.0101074 Eh/α   predicted    -0.8978277E-03 ( -10.56%)
   displ. norm   :     0.5986522 α      lambda       -0.1222015E-02
   maximum displ.:     0.3110704 α      in ANC's #19, #10, #7, ...

........................................................................
.............................. CYCLE   15 ..............................
........................................................................

 iter      E             dE          RMSdq      gap      omega  full diag
   1    -75.9605839 -0.759606E+02  0.121E-01    4.17       0.0  T
   2    -75.9605964 -0.125369E-04  0.724E-02    4.17       1.0  T
   3    -75.9605916  0.484251E-05  0.152E-02    4.17       1.0  T
   4    -75.9605973 -0.572914E-05  0.576E-03    4.17       2.3  T
   5    -75.9605985 -0.117956E-05  0.266E-03    4.17       4.9  T
   6    -75.9605985 -0.728351E-07  0.772E-04    4.17      16.9  T
   7    -75.9605985 -0.107285E-08  0.228E-04    4.17      57.1  T
     SCC iter.                  ...        0 min,  0.019 sec
     gradient                   ...        0 min,  0.012 sec
 * total energy  :   -75.0302307 Eh     change       -0.7428401E-03 Eh
   gradient norm :     0.0162864 Eh/α   predicted    -0.8299871E-03 (  11.73%)
   displ. norm   :     0.3758595 α      lambda       -0.9398657E-03
   maximum displ.:     0.1481050 α      in ANC's #7, #19, #6, ...

........................................................................
.............................. CYCLE   16 ..............................
........................................................................

 iter      E             dE          RMSdq      gap      omega  full diag
   1    -75.9659367 -0.759659E+02  0.615E-02    4.17       0.0  T
   2    -75.9659403 -0.357528E-05  0.371E-02    4.17       1.0  T
   3    -75.9659371  0.318920E-05  0.105E-02    4.17       1.2  T
   4    -75.9659408 -0.370154E-05  0.368E-03    4.17       3.5  T
   5    -75.9659413 -0.480090E-06  0.126E-03    4.17      10.3  T
   6    -75.9659413 -0.159381E-07  0.429E-04    4.17      30.3  T
   7    -75.9659413 -0.733152E-09  0.200E-04    4.17      65.2  T
     SCC iter.                  ...        0 min,  0.020 sec
     gradient                   ...        0 min,  0.012 sec
 * total energy  :   -75.0309716 Eh     change       -0.7408996E-03 Eh
   gradient norm :     0.0130303 Eh/α   predicted    -0.5363203E-03 ( -27.61%)
   displ. norm   :     0.5532682 α      lambda       -0.1153650E-02
   maximum displ.:     0.2161394 α      in ANC's #7, #19, #1, ...

........................................................................
.............................. CYCLE   17 ..............................
........................................................................

 iter      E             dE          RMSdq      gap      omega  full diag
   1    -75.9674630 -0.759675E+02  0.919E-02    4.18       0.0  T
   2    -75.9674713 -0.825712E-05  0.519E-02    4.18       1.0  T
   3    -75.9674696  0.168148E-05  0.123E-02    4.18       1.1  T
   4    -75.9674721 -0.243780E-05  0.549E-03    4.18       2.4  T
   5    -75.9674728 -0.787701E-06  0.227E-03    4.18       5.7  T
   6    -75.9674729 -0.582802E-07  0.780E-04    4.18      16.7  T
   7    -75.9674729 -0.622352E-08  0.352E-04    4.18      37.0  T
     SCC iter.                  ...        0 min,  0.020 sec
     gradient                   ...        0 min,  0.012 sec
 * total energy  :   -75.0318401 Eh     change       -0.8685225E-03 Eh
   gradient norm :     0.0091663 Eh/α   predicted    -0.7533991E-03 ( -13.26%)
   displ. norm   :     0.6331767 α      lambda       -0.1260304E-02
   maximum displ.:     0.2841443 α      in ANC's #7, #6, #1, ...

........................................................................
.............................. CYCLE   18 ..............................
........................................................................

 iter      E             dE          RMSdq      gap      omega  full diag
   1    -75.9695618 -0.759696E+02  0.913E-02    4.18       0.0  T
   2    -75.9695688 -0.697590E-05  0.536E-02    4.18       1.0  T
   3    -75.9695683  0.547246E-06  0.981E-03    4.18       1.3  T
   4    -75.9695698 -0.154436E-05  0.382E-03    4.18       3.4  T
   5    -75.9695701 -0.283504E-06  0.193E-03    4.18       6.7  T
   6    -75.9695702 -0.638797E-07  0.681E-04    4.18      19.1  T
   7    -75.9695702 -0.511460E-08  0.290E-04    4.18      44.9  T
     SCC iter.                  ...        0 min,  0.019 sec
     gradient                   ...        0 min,  0.012 sec
 * total energy  :   -75.0326505 Eh     change       -0.8103999E-03 Eh
   gradient norm :     0.0137831 Eh/α   predicted    -0.8827903E-03 (   8.93%)
   displ. norm   :     0.6160266 α      lambda       -0.9348289E-03
   maximum displ.:     0.2565486 α      in ANC's #7, #1, #19, ...

........................................................................
.............................. CYCLE   19 ..............................
........................................................................

 iter      E             dE          RMSdq      gap      omega  full diag
   1    -75.9629241 -0.759629E+02  0.101E-01    4.18       0.0  T
   2    -75.9629304 -0.626617E-05  0.597E-02    4.18       1.0  T
   3    -75.9629301  0.281836E-06  0.113E-02    4.18       1.2  T
   4    -75.9629316 -0.146846E-05  0.277E-03    4.18       4.7  T
   5    -75.9629316 -0.997575E-08  0.182E-03    4.18       7.1  T
   6    -75.9629316 -0.382207E-07  0.798E-04    4.18      16.3  T
   7    -75.9629316 -0.139280E-07  0.314E-04    4.18      41.5  T
     SCC iter.                  ...        0 min,  0.020 sec
     gradient                   ...        0 min,  0.012 sec
 * total energy  :   -75.0332687 Eh     change       -0.6181492E-03 Eh
   gradient norm :     0.0122509 Eh/α   predicted    -0.6447936E-03 (   4.31%)
   displ. norm   :     0.4157902 α      lambda       -0.9511855E-03
   maximum displ.:     0.2257972 α      in ANC's #1, #7, #6, ...

........................................................................
.............................. CYCLE   20 ..............................
........................................................................

 iter      E             dE          RMSdq      gap      omega  full diag
   1    -75.9690064 -0.759690E+02  0.778E-02    4.18       0.0  T
   2    -75.9690147 -0.825878E-05  0.452E-02    4.18       1.0  T
   3    -75.9690148 -0.118650E-06  0.937E-03    4.18       1.4  T
   4    -75.9690155 -0.689867E-06  0.411E-03    4.18       3.2  T
   5    -75.9690158 -0.294688E-06  0.202E-03    4.18       6.5  T
   6    -75.9690159 -0.983647E-07  0.713E-04    4.18      18.3  T
   7    -75.9690159 -0.754093E-08  0.231E-04    4.18      56.3  T
     SCC iter.                  ...        0 min,  0.019 sec
     gradient                   ...        0 min,  0.012 sec
 * total energy  :   -75.0337198 Eh     change       -0.4510847E-03 Eh
   gradient norm :     0.0106226 Eh/α   predicted    -0.5578156E-03 (  23.66%)
   displ. norm   :     0.4545120 α      lambda       -0.7365447E-03
   maximum displ.:     0.2018059 α      in ANC's #7, #1, #19, ...
 * RMSD in coord.:     1.0810268 α      energy gain  -0.1441219E+00 Eh

generating ANC from exact Hessian ...
Using Lindh-Hessian (1995)
 Shifting diagonal of input Hessian by    9.9344853152521975E-003
 Lowest  eigenvalues of input Hessian
    0.000000    0.000000    0.000000    0.000000    0.000000    0.000000
    0.010000    0.010075    0.010274    0.010375    0.010568    0.010688
    0.011033    0.011219    0.011447    0.011677    0.012494    0.012684
 Highest eigenvalues
    1.641396    1.674993    1.906347    2.081746    2.088428    2.961726


........................................................................
.............................. CYCLE   21 ..............................
........................................................................

 iter      E             dE          RMSdq      gap      omega  full diag
   1    -75.9651616 -0.759652E+02  0.847E-02    4.18       0.0  T
   2    -75.9651668 -0.521146E-05  0.468E-02    4.18       1.0  T
   3    -75.9651637  0.315760E-05  0.120E-02    4.18       1.1  T
   4    -75.9651679 -0.421324E-05  0.422E-03    4.18       3.1  T
   5    -75.9651683 -0.388962E-06  0.201E-03    4.18       6.5  T
   6    -75.9651683 -0.272681E-07  0.487E-04    4.18      26.7  T
   7    -75.9651683 -0.187495E-08  0.209E-04    4.18      62.3  T
     SCC iter.                  ...        0 min,  0.023 sec
     gradient                   ...        0 min,  0.012 sec
 * total energy  :   -75.0342073 Eh     change       -0.4875649E-03 Eh
   gradient norm :     0.0087092 Eh/α   predicted     0.0000000E+00 (-100.00%)
   displ. norm   :     0.1108653 α      lambda       -0.3770109E-03
   maximum displ.:     0.0453254 α      in ANC's #10, #14, #27, ...

........................................................................
.............................. CYCLE   22 ..............................
........................................................................

 iter      E             dE          RMSdq      gap      omega  full diag
   1    -75.9689612 -0.759690E+02  0.330E-02    4.18       0.0  T
   2    -75.9689626 -0.142354E-05  0.200E-02    4.18       1.0  T
   3    -75.9689624  0.257827E-06  0.464E-03    4.18       2.8  T
   4    -75.9689628 -0.381262E-06  0.143E-03    4.18       9.1  T
   5    -75.9689628 -0.583498E-07  0.736E-04    4.18      17.7  T
   6    -75.9689628 -0.113991E-07  0.234E-04    4.18      55.7  T
     SCC iter.                  ...        0 min,  0.017 sec
     gradient                   ...        0 min,  0.012 sec
 * total energy  :   -75.0345066 Eh     change       -0.2993192E-03 Eh
   gradient norm :     0.0047814 Eh/α   predicted    -0.1908226E-03 ( -36.25%)
   displ. norm   :     0.2627047 α      lambda       -0.4996538E-03
   maximum displ.:     0.1204928 α      in ANC's #10, #14, #27, ...

........................................................................
.............................. CYCLE   23 ..............................
........................................................................

 iter      E             dE          RMSdq      gap      omega  full diag
   1    -75.9728005 -0.759728E+02  0.645E-02    4.18       0.0  T
   2    -75.9728059 -0.542539E-05  0.399E-02    4.18       1.0  T
   3    -75.9728059  0.571964E-07  0.724E-03    4.18       1.8  T
   4    -75.9728065 -0.599809E-06  0.172E-03    4.18       7.6  T
   5    -75.9728065 -0.536956E-08  0.706E-04    4.18      18.4  T
   6    -75.9728065 -0.215707E-08  0.271E-04    4.18      48.1  T
     SCC iter.                  ...        0 min,  0.017 sec
     gradient                   ...        0 min,  0.012 sec
 * total energy  :   -75.0348439 Eh     change       -0.3372963E-03 Eh
   gradient norm :     0.0041885 Eh/α   predicted    -0.2670748E-03 ( -20.82%)
   displ. norm   :     0.2426185 α      lambda       -0.2400364E-03
   maximum displ.:     0.1245571 α      in ANC's #10, #14, #1, ...

........................................................................
.............................. CYCLE   24 ..............................
........................................................................

 iter      E             dE          RMSdq      gap      omega  full diag
   1    -75.9730471 -0.759730E+02  0.537E-02    4.19       0.0  T
   2    -75.9730495 -0.248504E-05  0.330E-02    4.18       1.0  T
   3    -75.9730492  0.296214E-06  0.551E-03    4.19       2.4  T
   4    -75.9730498 -0.506234E-06  0.189E-03    4.18       6.9  T
   5    -75.9730498 -0.761868E-07  0.104E-03    4.18      12.5  T
   6    -75.9730498 -0.199733E-07  0.303E-04    4.18      43.0  T
   7    -75.9730498 -0.534570E-09  0.106E-04    4.18     123.1  T
     SCC iter.                  ...        0 min,  0.019 sec
     gradient                   ...        0 min,  0.012 sec
 * total energy  :   -75.0350272 Eh     change       -0.1832593E-03 Eh
   gradient norm :     0.0046240 Eh/α   predicted    -0.1270832E-03 ( -30.65%)
   displ. norm   :     0.2982664 α      lambda       -0.2330096E-03
   maximum displ.:     0.1615376 α      in ANC's #10, #1, #14, ...

........................................................................
.............................. CYCLE   25 ..............................
........................................................................

 iter      E             dE          RMSdq      gap      omega  full diag
   1    -75.9717439 -0.759717E+02  0.614E-02    4.19       0.0  T
   2    -75.9717458 -0.186228E-05  0.368E-02    4.19       1.0  T
   3    -75.9717455  0.329387E-06  0.525E-03    4.19       2.5  T
   4    -75.9717460 -0.527007E-06  0.205E-03    4.19       6.3  T
   5    -75.9717461 -0.912898E-07  0.110E-03    4.19      11.9  T
   6    -75.9717461 -0.170044E-07  0.328E-04    4.19      39.6  T
   7    -75.9717461 -0.898837E-09  0.115E-04    4.19     113.3  T
     SCC iter.                  ...        0 min,  0.020 sec
     gradient                   ...        0 min,  0.012 sec
 * total energy  :   -75.0351964 Eh     change       -0.1691597E-03 Eh
   gradient norm :     0.0039929 Eh/α   predicted    -0.1268695E-03 ( -25.00%)
   displ. norm   :     0.2378733 α      lambda       -0.1458737E-03
   maximum displ.:     0.1291664 α      in ANC's #10, #1, #9, ...

........................................................................
.............................. CYCLE   26 ..............................
........................................................................

 iter      E             dE          RMSdq      gap      omega  full diag
   1    -75.9707612 -0.759708E+02  0.428E-02    4.19       0.0  T
   2    -75.9707617 -0.509629E-06  0.252E-02    4.19       1.0  T
   3    -75.9707617 -0.763503E-07  0.215E-03    4.19       6.1  T
   4    -75.9707618 -0.429708E-07  0.103E-03    4.19      12.6  T
   5    -75.9707618 -0.276043E-08  0.380E-04    4.19      34.2  T
   6    -75.9707618 -0.733593E-09  0.144E-04    4.19      90.6  T
     SCC iter.                  ...        0 min,  0.018 sec
     gradient                   ...        0 min,  0.038 sec
 * total energy  :   -75.0353089 Eh     change       -0.1125092E-03 Eh
   gradient norm :     0.0038999 Eh/α   predicted    -0.7706462E-04 ( -31.50%)
   displ. norm   :     0.2526029 α      lambda       -0.1488461E-03
   maximum displ.:     0.1324998 α      in ANC's #10, #1, #9, ...

........................................................................
.............................. CYCLE   27 ..............................
........................................................................

 iter      E             dE          RMSdq      gap      omega  full diag
   1    -75.9702330 -0.759702E+02  0.400E-02    4.19       0.0  T
   2    -75.9702335 -0.592520E-06  0.233E-02    4.19       1.0  T
   3    -75.9702329  0.614583E-06  0.443E-03    4.19       2.9  T
   4    -75.9702337 -0.748769E-06  0.169E-03    4.19       7.7  T
   5    -75.9702338 -0.739669E-07  0.602E-04    4.19      21.6  T
   6    -75.9702338 -0.271280E-08  0.210E-04    4.19      62.1  T
     SCC iter.                  ...        0 min,  0.036 sec
     gradient                   ...        0 min,  0.012 sec
 * total energy  :   -75.0354303 Eh     change       -0.1214053E-03 Eh
   gradient norm :     0.0043799 Eh/α   predicted    -0.7917207E-04 ( -34.79%)
   displ. norm   :     0.3308212 α      lambda       -0.1968585E-03
   maximum displ.:     0.1803831 α      in ANC's #1, #10, #9, ...

........................................................................
.............................. CYCLE   28 ..............................
........................................................................

 iter      E             dE          RMSdq      gap      omega  full diag
   1    -75.9698044 -0.759698E+02  0.500E-02    4.19       0.0  T
   2    -75.9698057 -0.130073E-05  0.292E-02    4.18       1.0  T
   3    -75.9698022  0.347862E-05  0.950E-03    4.18       1.4  T
   4    -75.9698063 -0.405558E-05  0.220E-03    4.18       5.9  T
   5    -75.9698064 -0.104909E-06  0.857E-04    4.18      15.2  T
   6    -75.9698064 -0.388189E-08  0.285E-04    4.18      45.7  T
     SCC iter.                  ...        0 min,  0.017 sec
     gradient                   ...        0 min,  0.012 sec
 * total energy  :   -75.0355942 Eh     change       -0.1638746E-03 Eh
   gradient norm :     0.0052953 Eh/α   predicted    -0.1092050E-03 ( -33.36%)
   displ. norm   :     0.4478549 α      lambda       -0.2641837E-03
   maximum displ.:     0.2504932 α      in ANC's #1, #10, #9, ...

........................................................................
.............................. CYCLE   29 ..............................
........................................................................

 iter      E             dE          RMSdq      gap      omega  full diag
   1    -75.9691416 -0.759691E+02  0.663E-02    4.17       0.0  T
   2    -75.9691439 -0.228878E-05  0.388E-02    4.17       1.0  T
   3    -75.9691344  0.954279E-05  0.154E-02    4.17       1.0  T
   4    -75.9691455 -0.111328E-04  0.258E-03    4.17       5.0  T
   5    -75.9691456 -0.125449E-06  0.105E-03    4.17      12.4  T
   6    -75.9691456 -0.404863E-08  0.363E-04    4.17      35.9  T
   7    -75.9691456 -0.434454E-09  0.166E-04    4.17      78.4  T
     SCC iter.                  ...        0 min,  0.019 sec
     gradient                   ...        0 min,  0.012 sec
 * total energy  :   -75.0358112 Eh     change       -0.2170018E-03 Eh
   gradient norm :     0.0066368 Eh/α   predicted    -0.1585947E-03 ( -26.92%)
   displ. norm   :     0.4933694 α      lambda       -0.3054762E-03
   maximum displ.:     0.2881006 α      in ANC's #1, #10, #9, ...

........................................................................
.............................. CYCLE   30 ..............................
........................................................................

 iter      E             dE          RMSdq      gap      omega  full diag
   1    -75.9692727 -0.759693E+02  0.694E-02    4.16       0.0  T
   2    -75.9692751 -0.237150E-05  0.408E-02    4.16       1.0  T
   3    -75.9692626  0.124580E-04  0.173E-02    4.15       1.0  T
   4    -75.9692771 -0.145246E-04  0.232E-03    4.15       5.6  T
   5    -75.9692772 -0.912895E-07  0.979E-04    4.15      13.3  T
   6    -75.9692772 -0.360019E-08  0.368E-04    4.15      35.4  T
     SCC iter.                  ...        0 min,  0.017 sec
     gradient                   ...        0 min,  0.012 sec
 * total energy  :   -75.0360616 Eh     change       -0.2504486E-03 Eh
   gradient norm :     0.0074596 Eh/α   predicted    -0.1899352E-03 ( -24.16%)
   displ. norm   :     0.5263214 α      lambda       -0.3415488E-03
   maximum displ.:     0.3187284 α      in ANC's #1, #9, #10, ...

........................................................................
.............................. CYCLE   31 ..............................
........................................................................

 iter      E             dE          RMSdq      gap      omega  full diag
   1    -75.9697703 -0.759698E+02  0.727E-02    4.14       0.0  T
   2    -75.9697728 -0.248553E-05  0.430E-02    4.14       1.0  T
   3    -75.9697627  0.100853E-04  0.153E-02    4.14       1.0  T
   4    -75.9697743 -0.115552E-04  0.261E-03    4.14       5.0  T
   5    -75.9697744 -0.148882E-06  0.106E-03    4.14      12.3  T
   6    -75.9697744 -0.285341E-08  0.365E-04    4.14      35.6  T
   7    -75.9697744 -0.527777E-09  0.110E-04    4.14     118.2  T
     SCC iter.                  ...        0 min,  0.019 sec
     gradient                   ...        0 min,  0.012 sec
 * total energy  :   -75.0363506 Eh     change       -0.2889869E-03 Eh
   gradient norm :     0.0074272 Eh/α   predicted    -0.2180866E-03 ( -24.53%)
   displ. norm   :     0.5664215 α      lambda       -0.4268866E-03
   maximum displ.:     0.3587328 α      in ANC's #1, #9, #10, ...

........................................................................
.............................. CYCLE   32 ..............................
........................................................................

 iter      E             dE          RMSdq      gap      omega  full diag
   1    -75.9720667 -0.759721E+02  0.809E-02    4.14       0.0  T
   2    -75.9720707 -0.399335E-05  0.481E-02    4.13       1.0  T
   3    -75.9720687  0.201266E-05  0.889E-03    4.14       1.5  T
   4    -75.9720710 -0.234448E-05  0.345E-03    4.14       3.8  T
   5    -75.9720714 -0.373558E-06  0.148E-03    4.13       8.8  T
   6    -75.9720714 -0.212627E-07  0.406E-04    4.13      32.1  T
   7    -75.9720714 -0.422816E-09  0.121E-04    4.13     107.2  T
     SCC iter.                  ...        0 min,  0.019 sec
     gradient                   ...        0 min,  0.012 sec
 * total energy  :   -75.0367060 Eh     change       -0.3554198E-03 Eh
   gradient norm :     0.0060241 Eh/α   predicted    -0.2819344E-03 ( -20.68%)
   displ. norm   :     0.7606318 α      lambda       -0.4893536E-03
   maximum displ.:     0.4694447 α      in ANC's #1, #10, #9, ...

........................................................................
.............................. CYCLE   33 ..............................
........................................................................

 iter      E             dE          RMSdq      gap      omega  full diag
   1    -75.9665408 -0.759665E+02  0.127E-01    4.14       0.0  T
   2    -75.9665466 -0.586745E-05  0.751E-02    4.13       1.0  T
   3    -75.9665471 -0.445468E-06  0.751E-03    4.14       1.7  T
   4    -75.9665475 -0.458358E-06  0.313E-03    4.13       4.2  T
   5    -75.9665475  0.239750E-07  0.150E-03    4.13       8.7  T
   6    -75.9665476 -0.442636E-07  0.613E-04    4.13      21.2  T
   7    -75.9665476 -0.876908E-08  0.176E-04    4.13      74.1  T
     SCC iter.                  ...        0 min,  0.019 sec
     gradient                   ...        0 min,  0.012 sec
 * total energy  :   -75.0370046 Eh     change       -0.2985531E-03 Eh
   gradient norm :     0.0119804 Eh/α   predicted    -0.3862444E-03 (  29.37%)
   displ. norm   :     0.4417293 α      lambda       -0.8253477E-03
   maximum displ.:     0.2801402 α      in ANC's #1, #3, #20, ...

........................................................................
.............................. CYCLE   34 ..............................
........................................................................

 iter      E             dE          RMSdq      gap      omega  full diag
   1    -75.9764648 -0.759765E+02  0.123E-01    4.16       0.0  T
   2    -75.9764816 -0.167631E-04  0.723E-02    4.16       1.0  T
   3    -75.9764463  0.353056E-04  0.314E-02    4.16       1.0  T
   4    -75.9764889 -0.425977E-04  0.710E-03    4.16       1.8  T
   5    -75.9764903 -0.146133E-05  0.250E-03    4.16       5.2  T
   6    -75.9764903 -0.102059E-07  0.526E-04    4.16      24.7  T
   7    -75.9764903 -0.956547E-09  0.257E-04    4.16      50.6  T
     SCC iter.                  ...        0 min,  0.022 sec
     gradient                   ...        0 min,  0.012 sec
 * total energy  :   -75.0373725 Eh     change       -0.3679691E-03 Eh
   gradient norm :     0.0119946 Eh/α   predicted    -0.4932013E-03 (  34.03%)
   displ. norm   :     0.5762196 α      lambda       -0.4528366E-03
   maximum displ.:     0.3831100 α      in ANC's #1, #9, #10, ...

........................................................................
.............................. CYCLE   35 ..............................
........................................................................

 iter      E             dE          RMSdq      gap      omega  full diag
   1    -75.9708440 -0.759708E+02  0.863E-02    4.16       0.0  T
   2    -75.9708463 -0.235733E-05  0.502E-02    4.16       1.0  T
   3    -75.9708463  0.518144E-07  0.482E-03    4.16       2.7  T
   4    -75.9708465 -0.278104E-06  0.293E-03    4.16       4.4  T
   5    -75.9708467 -0.196975E-06  0.136E-03    4.16       9.6  T
   6    -75.9708468 -0.287372E-07  0.390E-04    4.16      33.3  T
   7    -75.9708468 -0.127356E-08  0.126E-04    4.16     103.4  T
     SCC iter.                  ...        0 min,  0.021 sec
     gradient                   ...        0 min,  0.012 sec
 * total energy  :   -75.0377155 Eh     change       -0.3429702E-03 Eh
   gradient norm :     0.0122996 Eh/α   predicted    -0.3015993E-03 ( -12.06%)
   displ. norm   :     0.4514940 α      lambda       -0.5078136E-03
   maximum displ.:     0.3130251 α      in ANC's #1, #9, #3, ...

........................................................................
.............................. CYCLE   36 ..............................
........................................................................

 iter      E             dE          RMSdq      gap      omega  full diag
   1    -75.9683032 -0.759683E+02  0.717E-02    4.17       0.0  T
   2    -75.9683107 -0.750505E-05  0.422E-02    4.17       1.0  T
   3    -75.9683108 -0.117351E-06  0.985E-03    4.16       1.3  T
   4    -75.9683114 -0.613372E-06  0.290E-03    4.16       4.5  T
   5    -75.9683114 -0.128519E-07  0.183E-03    4.16       7.1  T
   6    -75.9683115 -0.117306E-06  0.397E-04    4.16      32.8  T
   7    -75.9683115 -0.147162E-08  0.206E-04    4.16      63.3  T
     SCC iter.                  ...        0 min,  0.019 sec
     gradient                   ...        0 min,  0.012 sec
 * total energy  :   -75.0380482 Eh     change       -0.3326650E-03 Eh
   gradient norm :     0.0089671 Eh/α   predicted    -0.3056656E-03 (  -8.12%)
   displ. norm   :     0.4141035 α      lambda       -0.4665262E-03
   maximum displ.:     0.2973759 α      in ANC's #1, #3, #9, ...

........................................................................
.............................. CYCLE   37 ..............................
........................................................................

 iter      E             dE          RMSdq      gap      omega  full diag
   1    -75.9695528 -0.759696E+02  0.770E-02    4.17       0.0  T
   2    -75.9695584 -0.552018E-05  0.443E-02    4.17       1.0  T
   3    -75.9695548  0.353204E-05  0.122E-02    4.17       1.1  T
   4    -75.9695588 -0.400414E-05  0.470E-03    4.17       2.8  T
   5    -75.9695595 -0.716811E-06  0.176E-03    4.17       7.4  T
   6    -75.9695596 -0.249144E-07  0.401E-04    4.17      32.5  T
   7    -75.9695596 -0.513666E-09  0.178E-04    4.17      73.3  T
     SCC iter.                  ...        0 min,  0.019 sec
     gradient                   ...        0 min,  0.012 sec
 * total energy  :   -75.0383443 Eh     change       -0.2961265E-03 Eh
   gradient norm :     0.0096753 Eh/α   predicted    -0.2732643E-03 (  -7.72%)
   displ. norm   :     0.5468281 α      lambda       -0.6307329E-03
   maximum displ.:     0.3759001 α      in ANC's #1, #3, #9, ...

........................................................................
.............................. CYCLE   38 ..............................
........................................................................

 iter      E             dE          RMSdq      gap      omega  full diag
   1    -75.9712766 -0.759713E+02  0.116E-01    4.18       0.0  T
   2    -75.9712815 -0.488415E-05  0.649E-02    4.18       1.0  T
   3    -75.9712724  0.903274E-05  0.156E-02    4.18       1.0  T
   4    -75.9712829 -0.104415E-04  0.435E-03    4.18       3.0  T
   5    -75.9712834 -0.514426E-06  0.148E-03    4.18       8.8  T
   6    -75.9712834 -0.741265E-08  0.444E-04    4.18      29.3  T
   7    -75.9712834 -0.883020E-09  0.209E-04    4.18      62.2  T
     SCC iter.                  ...        0 min,  0.020 sec
     gradient                   ...        0 min,  0.012 sec
 * total energy  :   -75.0387985 Eh     change       -0.4541659E-03 Eh
   gradient norm :     0.0097234 Eh/α   predicted    -0.4096741E-03 (  -9.80%)
   displ. norm   :     0.5534662 α      lambda       -0.5422519E-03
   maximum displ.:     0.3833071 α      in ANC's #1, #3, #6, ...

........................................................................
.............................. CYCLE   39 ..............................
........................................................................

 iter      E             dE          RMSdq      gap      omega  full diag
   1    -75.9746004 -0.759746E+02  0.935E-02    4.18       0.0  T
   2    -75.9746034 -0.296104E-05  0.542E-02    4.18       1.0  T
   3    -75.9746015  0.189359E-05  0.793E-03    4.18       1.6  T
   4    -75.9746036 -0.203700E-05  0.394E-03    4.18       3.3  T
   5    -75.9746041 -0.525485E-06  0.138E-03    4.18       9.5  T
   6    -75.9746041 -0.125484E-07  0.415E-04    4.18      31.3  T
   7    -75.9746041 -0.666844E-09  0.147E-04    4.18      88.6  T
     SCC iter.                  ...        0 min,  0.019 sec
     gradient                   ...        0 min,  0.012 sec
 * total energy  :   -75.0392566 Eh     change       -0.4581331E-03 Eh
   gradient norm :     0.0092286 Eh/α   predicted    -0.3541814E-03 ( -22.69%)
   displ. norm   :     0.7388294 α      lambda       -0.7251964E-03
   maximum displ.:     0.5037552 α      in ANC's #1, #3, #6, ...

........................................................................
.............................. CYCLE   40 ..............................
........................................................................

 iter      E             dE          RMSdq      gap      omega  full diag
   1    -75.9740079 -0.759740E+02  0.122E-01    4.18       0.0  T
   2    -75.9740150 -0.715086E-05  0.721E-02    4.18       1.0  T
   3    -75.9740153 -0.259245E-06  0.770E-03    4.18       1.7  T
   4    -75.9740158 -0.535621E-06  0.300E-03    4.18       4.3  T
   5    -75.9740158  0.135482E-07  0.177E-03    4.18       7.3  T
   6    -75.9740159 -0.774124E-07  0.679E-04    4.18      19.2  T
   7    -75.9740159 -0.996560E-08  0.211E-04    4.18      61.8  T
     SCC iter.                  ...        0 min,  0.019 sec
     gradient                   ...        0 min,  0.012 sec
 * total energy  :   -75.0398217 Eh     change       -0.5650812E-03 Eh
   gradient norm :     0.0086753 Eh/α   predicted    -0.5605359E-03 (  -0.80%)
   displ. norm   :     0.5526870 α      lambda       -0.8480820E-03
   maximum displ.:     0.3062390 α      in ANC's #3, #1, #4, ...

........................................................................
.............................. CYCLE   41 ..............................
........................................................................

 iter      E             dE          RMSdq      gap      omega  full diag
   1    -75.9874588 -0.759875E+02  0.117E-01    4.17       0.0  T
   2    -75.9874881 -0.293215E-04  0.697E-02    4.17       1.0  T
   3    -75.9874773  0.108634E-04  0.229E-02    4.17       1.0  T
   4    -75.9874883 -0.110271E-04  0.918E-03    4.17       1.4  T
   5    -75.9874922 -0.388095E-05  0.273E-03    4.17       4.8  T
   6    -75.9874922 -0.268902E-07  0.106E-03    4.17      12.3  T
   7    -75.9874922 -0.202286E-08  0.309E-04    4.17      42.1  T
   8    -75.9874922 -0.386819E-09  0.102E-04    4.17     128.2  T
     SCC iter.                  ...        0 min,  0.028 sec
     gradient                   ...        0 min,  0.019 sec
 * total energy  :   -75.0396665 Eh     change        0.1551368E-03 Eh
   gradient norm :     0.0187588 Eh/α   predicted    -0.5535739E-03 (-456.83%)
   displ. norm   :     0.4817619 α      lambda       -0.1565790E-02
   maximum displ.:     0.3224821 α      in ANC's #1, #9, #10, ...

........................................................................
.............................. CYCLE   42 ..............................
........................................................................

 iter      E             dE          RMSdq      gap      omega  full diag
   1    -75.9726067 -0.759726E+02  0.101E-01    4.18       0.0  T
   2    -75.9726181 -0.113479E-04  0.575E-02    4.17       1.0  T
   3    -75.9726162  0.184746E-05  0.108E-02    4.17       1.2  T
   4    -75.9726183 -0.208509E-05  0.537E-03    4.17       2.4  T
   5    -75.9726193 -0.104030E-05  0.214E-03    4.17       6.1  T
   6    -75.9726194 -0.190603E-07  0.395E-04    4.17      33.0  T
   7    -75.9726194 -0.924615E-09  0.148E-04    4.17      88.1  T
     SCC iter.                  ...        0 min,  0.047 sec
     gradient                   ...        0 min,  0.019 sec
 * total energy  :   -75.0403806 Eh     change       -0.7140517E-03 Eh
   gradient norm :     0.0125345 Eh/α   predicted    -0.9646029E-03 (  35.09%)
   displ. norm   :     0.3876725 α      lambda       -0.7387657E-03
   maximum displ.:     0.2537707 α      in ANC's #1, #3, #15, ...
 * RMSD in coord.:     1.0832168 α      energy gain  -0.6660825E-02 Eh

generating ANC from exact Hessian ...
Using Lindh-Hessian (1995)
 Shifting diagonal of input Hessian by    9.8882707544751727E-003
 Lowest  eigenvalues of input Hessian
    0.000000    0.000000    0.000000    0.000000    0.000000    0.000000
    0.010000    0.010043    0.010320    0.010463    0.010607    0.010708
    0.010945    0.011161    0.011307    0.011631    0.012473    0.012856
 Highest eigenvalues
    1.652448    1.673304    1.902036    2.077312    2.090081    2.967030


........................................................................
.............................. CYCLE   43 ..............................
........................................................................

 iter      E             dE          RMSdq      gap      omega  full diag
   1    -75.9714491 -0.759714E+02  0.834E-02    4.18       0.0  T
   2    -75.9714584 -0.925102E-05  0.458E-02    4.18       1.0  T
   3    -75.9714567  0.163041E-05  0.130E-02    4.18       1.0  T
   4    -75.9714592 -0.242778E-05  0.459E-03    4.18       2.8  T
   5    -75.9714598 -0.602801E-06  0.203E-03    4.18       6.4  T
   6    -75.9714598 -0.609711E-07  0.586E-04    4.18      22.2  T
   7    -75.9714598 -0.102818E-08  0.207E-04    4.18      62.8  T
     SCC iter.                  ...        0 min,  0.019 sec
     gradient                   ...        0 min,  0.012 sec
 * total energy  :   -75.0406040 Eh     change       -0.2234374E-03 Eh
   gradient norm :     0.0127047 Eh/α   predicted     0.0000000E+00 (-100.00%)
   displ. norm   :     0.0867199 α      lambda       -0.4211854E-03
   maximum displ.:     0.0325596 α      in ANC's #3, #10, #9, ...

........................................................................
.............................. CYCLE   44 ..............................
........................................................................

 iter      E             dE          RMSdq      gap      omega  full diag
   1    -75.9762914 -0.759763E+02  0.330E-02    4.18       0.0  T
   2    -75.9762940 -0.260781E-05  0.183E-02    4.18       1.0  T
   3    -75.9762940 -0.702944E-07  0.473E-03    4.18       2.8  T
   4    -75.9762941 -0.115586E-06  0.135E-03    4.18       9.6  T
   5    -75.9762942 -0.146016E-07  0.761E-04    4.18      17.1  T
   6    -75.9762942 -0.101513E-07  0.325E-04    4.18      40.0  T
     SCC iter.                  ...        0 min,  0.017 sec
     gradient                   ...        0 min,  0.012 sec
 * total energy  :   -75.0408885 Eh     change       -0.2844336E-03 Eh
   gradient norm :     0.0042688 Eh/α   predicted    -0.2121767E-03 ( -25.40%)
   displ. norm   :     0.1354821 α      lambda       -0.1824301E-03
   maximum displ.:     0.0580261 α      in ANC's #3, #10, #9, ...

........................................................................
.............................. CYCLE   45 ..............................
........................................................................

 iter      E             dE          RMSdq      gap      omega  full diag
   1    -75.9789061 -0.759789E+02  0.274E-02    4.18       0.0  T
   2    -75.9789073 -0.121108E-05  0.156E-02    4.18       1.0  T
   3    -75.9789074 -0.363314E-07  0.367E-03    4.18       3.6  T
   4    -75.9789074 -0.844065E-07  0.104E-03    4.18      12.5  T
   5    -75.9789074  0.357912E-08  0.643E-04    4.18      20.2  T
   6    -75.9789075 -0.120763E-07  0.233E-04    4.18      55.8  T
     SCC iter.                  ...        0 min,  0.019 sec
     gradient                   ...        0 min,  0.012 sec
 * total energy  :   -75.0410260 Eh     change       -0.1375207E-03 Eh
   gradient norm :     0.0031201 Eh/α   predicted    -0.9290075E-04 ( -32.45%)
   displ. norm   :     0.2753364 α      lambda       -0.2383605E-03
   maximum displ.:     0.1170184 α      in ANC's #10, #3, #9, ...

........................................................................
.............................. CYCLE   46 ..............................
........................................................................

 iter      E             dE          RMSdq      gap      omega  full diag
   1    -75.9802898 -0.759803E+02  0.496E-02    4.18       0.0  T
   2    -75.9802918 -0.201665E-05  0.289E-02    4.18       1.0  T
   3    -75.9802916  0.282071E-06  0.575E-03    4.18       2.3  T
   4    -75.9802921 -0.486482E-06  0.218E-03    4.18       6.0  T
   5    -75.9802921 -0.769112E-07  0.126E-03    4.18      10.3  T
   6    -75.9802922 -0.373324E-07  0.339E-04    4.18      38.4  T
   7    -75.9802922 -0.301071E-09  0.113E-04    4.18     115.0  T
     SCC iter.                  ...        0 min,  0.019 sec
     gradient                   ...        0 min,  0.012 sec
 * total energy  :   -75.0412271 Eh     change       -0.2011174E-03 Eh
   gradient norm :     0.0067756 Eh/α   predicted    -0.1282555E-03 ( -36.23%)
   displ. norm   :     0.5655492 α      lambda       -0.4418848E-03
   maximum displ.:     0.2505645 α      in ANC's #9, #10, #3, ...

........................................................................
.............................. CYCLE   47 ..............................
........................................................................

 iter      E             dE          RMSdq      gap      omega  full diag
   1    -75.9781859 -0.759782E+02  0.990E-02    4.18       0.0  T
   2    -75.9781914 -0.543491E-05  0.580E-02    4.17       1.0  T
   3    -75.9781870  0.438341E-05  0.127E-02    4.18       1.0  T
   4    -75.9781921 -0.511555E-05  0.484E-03    4.18       2.7  T
   5    -75.9781927 -0.616319E-06  0.219E-03    4.18       5.9  T
   6    -75.9781928 -0.424418E-07  0.618E-04    4.18      21.0  T
   7    -75.9781928 -0.102769E-08  0.210E-04    4.18      62.0  T
     SCC iter.                  ...        0 min,  0.019 sec
     gradient                   ...        0 min,  0.012 sec
 * total energy  :   -75.0415821 Eh     change       -0.3549783E-03 Eh
   gradient norm :     0.0103850 Eh/α   predicted    -0.2916120E-03 ( -17.85%)
   displ. norm   :     0.5089206 α      lambda       -0.3896369E-03
   maximum displ.:     0.2326178 α      in ANC's #9, #3, #10, ...

........................................................................
.............................. CYCLE   48 ..............................
........................................................................

 iter      E             dE          RMSdq      gap      omega  full diag
   1    -75.9745998 -0.759746E+02  0.879E-02    4.17       0.0  T
   2    -75.9746032 -0.335464E-05  0.517E-02    4.17       1.0  T
   3    -75.9745953  0.788222E-05  0.141E-02    4.17       1.0  T
   4    -75.9746043 -0.898516E-05  0.392E-03    4.17       3.3  T
   5    -75.9746047 -0.400548E-06  0.169E-03    4.17       7.7  T
   6    -75.9746047 -0.810947E-08  0.492E-04    4.17      26.5  T
   7    -75.9746047 -0.123839E-08  0.174E-04    4.17      74.8  T
     SCC iter.                  ...        0 min,  0.019 sec
     gradient                   ...        0 min,  0.012 sec
 * total energy  :   -75.0418611 Eh     change       -0.2790380E-03 Eh
   gradient norm :     0.0113742 Eh/α   predicted    -0.2452773E-03 ( -12.10%)
   displ. norm   :     0.3157166 α      lambda       -0.4129539E-03
   maximum displ.:     0.1608547 α      in ANC's #3, #9, #5, ...

........................................................................
.............................. CYCLE   49 ..............................
........................................................................

 iter      E             dE          RMSdq      gap      omega  full diag
   1    -75.9753716 -0.759754E+02  0.603E-02    4.16       0.0  T
   2    -75.9753739 -0.229796E-05  0.348E-02    4.16       1.0  T
   3    -75.9753688  0.512311E-05  0.115E-02    4.16       1.1  T
   4    -75.9753747 -0.592808E-05  0.274E-03    4.16       4.7  T
   5    -75.9753749 -0.244567E-06  0.106E-03    4.16      12.3  T
   6    -75.9753749 -0.436047E-08  0.367E-04    4.16      35.5  T
   7    -75.9753749 -0.695493E-09  0.143E-04    4.16      91.3  T
     SCC iter.                  ...        0 min,  0.020 sec
     gradient                   ...        0 min,  0.012 sec
 * total energy  :   -75.0421572 Eh     change       -0.2960821E-03 Eh
   gradient norm :     0.0083042 Eh/α   predicted    -0.2270734E-03 ( -23.31%)
   displ. norm   :     0.4124218 α      lambda       -0.3904377E-03
   maximum displ.:     0.2112535 α      in ANC's #3, #9, #5, ...

........................................................................
.............................. CYCLE   50 ..............................
........................................................................

 iter      E             dE          RMSdq      gap      omega  full diag
   1    -75.9757710 -0.759758E+02  0.783E-02    4.15       0.0  T
   2    -75.9757737 -0.273197E-05  0.457E-02    4.15       1.0  T
   3    -75.9757659  0.778422E-05  0.139E-02    4.15       1.0  T
   4    -75.9757747 -0.880798E-05  0.355E-03    4.15       3.7  T
   5    -75.9757751 -0.399280E-06  0.147E-03    4.15       8.8  T
   6    -75.9757751 -0.110467E-07  0.427E-04    4.15      30.5  T
   7    -75.9757751 -0.645542E-09  0.170E-04    4.15      76.5  T
     SCC iter.                  ...        0 min,  0.019 sec
     gradient                   ...        0 min,  0.012 sec
 * total energy  :   -75.0424803 Eh     change       -0.3230916E-03 Eh
   gradient norm :     0.0076503 Eh/α   predicted    -0.2284270E-03 ( -29.30%)
   displ. norm   :     0.5314075 α      lambda       -0.5050977E-03
   maximum displ.:     0.2762407 α      in ANC's #3, #9, #5, ...

........................................................................
.............................. CYCLE   51 ..............................
........................................................................

 iter      E             dE          RMSdq      gap      omega  full diag
   1    -75.9774177 -0.759774E+02  0.102E-01    4.14       0.0  T
   2    -75.9774217 -0.399779E-05  0.592E-02    4.14       1.0  T
   3    -75.9774154  0.631865E-05  0.135E-02    4.14       1.0  T
   4    -75.9774224 -0.698076E-05  0.457E-03    4.14       2.9  T
   5    -75.9774231 -0.737017E-06  0.177E-03    4.14       7.3  T
   6    -75.9774232 -0.263053E-07  0.530E-04    4.14      24.6  T
   7    -75.9774232 -0.113207E-08  0.214E-04    4.14      60.7  T
     SCC iter.                  ...        0 min,  0.019 sec
     gradient                   ...        0 min,  0.012 sec
 * total energy  :   -75.0428728 Eh     change       -0.3924999E-03 Eh
   gradient norm :     0.0060826 Eh/α   predicted    -0.3238723E-03 ( -17.48%)
   displ. norm   :     0.6817900 α      lambda       -0.4205819E-03
   maximum displ.:     0.3440529 α      in ANC's #3, #9, #5, ...

........................................................................
.............................. CYCLE   52 ..............................
........................................................................

 iter      E             dE          RMSdq      gap      omega  full diag
   1    -75.9721848 -0.759722E+02  0.120E-01    4.13       0.0  T
   2    -75.9721904 -0.557817E-05  0.700E-02    4.12       1.0  T
   3    -75.9721855  0.493508E-05  0.123E-02    4.12       1.1  T
   4    -75.9721908 -0.536081E-05  0.505E-03    4.12       2.6  T
   5    -75.9721918 -0.910262E-06  0.200E-03    4.12       6.5  T
   6    -75.9721918 -0.224443E-07  0.647E-04    4.12      20.1  T
   7    -75.9721918 -0.266462E-08  0.179E-04    4.12      72.8  T
     SCC iter.                  ...        0 min,  0.019 sec
     gradient                   ...        0 min,  0.012 sec
 * total energy  :   -75.0431106 Eh     change       -0.2378096E-03 Eh
   gradient norm :     0.0109641 Eh/α   predicted    -0.3080652E-03 (  29.54%)
   displ. norm   :     0.4019768 α      lambda       -0.6424149E-03
   maximum displ.:     0.2044218 α      in ANC's #3, #5, #9, ...

........................................................................
.............................. CYCLE   53 ..............................
........................................................................

 iter      E             dE          RMSdq      gap      omega  full diag
   1    -75.9810653 -0.759811E+02  0.790E-02    4.13       0.0  T
   2    -75.9810700 -0.467136E-05  0.450E-02    4.13       1.0  T
   3    -75.9810600  0.994202E-05  0.165E-02    4.13       1.0  T
   4    -75.9810718 -0.117528E-04  0.321E-03    4.13       4.1  T
   5    -75.9810720 -0.198767E-06  0.128E-03    4.13      10.2  T
   6    -75.9810720 -0.668548E-08  0.488E-04    4.13      26.7  T
   7    -75.9810720 -0.157887E-08  0.171E-04    4.13      76.3  T
     SCC iter.                  ...        0 min,  0.019 sec
     gradient                   ...        0 min,  0.012 sec
 * total energy  :   -75.0434004 Eh     change       -0.2897642E-03 Eh
   gradient norm :     0.0085754 Eh/α   predicted    -0.3731167E-03 (  28.77%)
   displ. norm   :     0.4658384 α      lambda       -0.3179135E-03
   maximum displ.:     0.2408249 α      in ANC's #3, #9, #5, ...

........................................................................
.............................. CYCLE   54 ..............................
........................................................................

 iter      E             dE          RMSdq      gap      omega  full diag
   1    -75.9769739 -0.759770E+02  0.740E-02    4.13       0.0  T
   2    -75.9769757 -0.178379E-05  0.430E-02    4.13       1.0  T
   3    -75.9769758 -0.107591E-06  0.438E-03    4.13       3.0  T
   4    -75.9769760 -0.189449E-06  0.226E-03    4.13       5.8  T
   5    -75.9769760 -0.312986E-07  0.119E-03    4.13      10.9  T
   6    -75.9769760 -0.250687E-07  0.423E-04    4.13      30.7  T
   7    -75.9769760 -0.481501E-08  0.126E-04    4.13     103.2  T
     SCC iter.                  ...        0 min,  0.019 sec
     gradient                   ...        0 min,  0.012 sec
 * total energy  :   -75.0436422 Eh     change       -0.2418573E-03 Eh
   gradient norm :     0.0082851 Eh/α   predicted    -0.1934561E-03 ( -20.01%)
   displ. norm   :     0.4020720 α      lambda       -0.3640778E-03
   maximum displ.:     0.2045612 α      in ANC's #3, #5, #9, ...

........................................................................
.............................. CYCLE   55 ..............................
........................................................................

 iter      E             dE          RMSdq      gap      omega  full diag
   1    -75.9758260 -0.759758E+02  0.628E-02    4.14       0.0  T
   2    -75.9758293 -0.330918E-05  0.365E-02    4.14       1.0  T
   3    -75.9758242  0.513158E-05  0.124E-02    4.14       1.0  T
   4    -75.9758303 -0.614645E-05  0.378E-03    4.14       3.4  T
   5    -75.9758306 -0.296849E-06  0.160E-03    4.14       8.1  T
   6    -75.9758306 -0.102970E-07  0.410E-04    4.14      31.8  T
   7    -75.9758306 -0.299821E-09  0.174E-04    4.14      74.8  T
     SCC iter.                  ...        0 min,  0.019 sec
     gradient                   ...        0 min,  0.012 sec
 * total energy  :   -75.0438827 Eh     change       -0.2404798E-03 Eh
   gradient norm :     0.0083431 Eh/α   predicted    -0.2114708E-03 ( -12.06%)
   displ. norm   :     0.3344227 α      lambda       -0.2646105E-03
   maximum displ.:     0.1736635 α      in ANC's #3, #5, #6, ...

........................................................................
.............................. CYCLE   56 ..............................
........................................................................

 iter      E             dE          RMSdq      gap      omega  full diag
   1    -75.9770360 -0.759770E+02  0.534E-02    4.15       0.0  T
   2    -75.9770386 -0.252733E-05  0.312E-02    4.15       1.0  T
   3    -75.9770336  0.497792E-05  0.119E-02    4.16       1.1  T
   4    -75.9770395 -0.593734E-05  0.324E-03    4.15       4.0  T
[...]
        67        2.0000           -0.4997787             -13.5997
        68        2.0000           -0.4985621             -13.5666 (HOMO)
        69                         -0.3445613              -9.3760 (LUMO)
        70                         -0.2275759              -6.1927
        71                         -0.1776060              -4.8329
        72                         -0.1729691              -4.7067
        73                         -0.1574586              -4.2847
       ...                                ...                  ...
       133                          1.1330164              30.8309
      -------------------------------------------------------------
                  HL-Gap            0.1540008 Eh            4.1906 eV
             Fermi-level           -0.4215617 Eh          -11.4713 eV

 SCC (total)                   0 d,  0 h,  0 min,  0.024 sec
 SCC setup                      ...        0 min,  0.000 sec (  0.491%)
 Dispersion                     ...        0 min,  0.000 sec (  1.574%)
 classical contributions        ...        0 min,  0.000 sec (  0.292%)
 integral evaluation            ...        0 min,  0.003 sec ( 11.115%)
 iterations                     ...        0 min,  0.009 sec ( 37.302%)
 molecular gradient             ...        0 min,  0.012 sec ( 48.383%)
 printout                       ...        0 min,  0.000 sec (  0.777%)

         :::::::::::::::::::::::::::::::::::::::::::::::::::::
         ::                     SUMMARY                     ::
         :::::::::::::::::::::::::::::::::::::::::::::::::::::
         :: total energy             -75.052342451660 Eh    ::
         :: gradient norm              0.000459061259 Eh/a0 ::
         :: HOMO-LUMO gap              4.190574046443 eV    ::
         ::.................................................::
         :: SCC energy               -75.986660442348 Eh    ::
         :: -> isotropic ES            0.158114017571 Eh    ::
         :: -> anisotropic ES         -0.002045588297 Eh    ::
         :: -> anisotropic XC          0.037218436928 Eh    ::
         :: -> dispersion             -0.058389431020 Eh    ::
         :: repulsion energy           0.934317990688 Eh    ::
         :: add. restraining           0.000000000000 Eh    ::
         :: total charge               1.000000000000 e     ::
         :::::::::::::::::::::::::::::::::::::::::::::::::::::

           -------------------------------------------------
          |                Property Printout                |
           -------------------------------------------------

    * Orbital Energies and Occupations

         #    Occupation            Energy/Eh            Energy/eV
      -------------------------------------------------------------
         1        2.0000           -0.8619285             -23.4543
       ...           ...                  ...                  ...
        56        2.0000           -0.5493169             -14.9477
        57        2.0000           -0.5414876             -14.7346
        58        2.0000           -0.5389996             -14.6669
        59        2.0000           -0.5351567             -14.5624
        60        2.0000           -0.5328187             -14.4987
        61        2.0000           -0.5289992             -14.3948
        62        2.0000           -0.5268252             -14.3356
        63        2.0000           -0.5237248             -14.2513
        64        2.0000           -0.5190028             -14.1228
        65        2.0000           -0.5069651             -13.7952
        66        2.0000           -0.5031193             -13.6906
        67        2.0000           -0.4997787             -13.5997
        68        2.0000           -0.4985621             -13.5666 (HOMO)
        69                         -0.3445613              -9.3760 (LUMO)
        70                         -0.2275759              -6.1927
        71                         -0.1776060              -4.8329
        72                         -0.1729691              -4.7067
        73                         -0.1574586              -4.2847
        74                         -0.1547183              -4.2101
        75                         -0.1489136              -4.0521
        76                         -0.1218499              -3.3157
        77                         -0.1049664              -2.8563
        78                         -0.0875310              -2.3818
        79                         -0.0612904              -1.6678
       ...                                ...                  ...
       133                          1.1330164              30.8309
      -------------------------------------------------------------
                  HL-Gap            0.1540008 Eh            4.1906 eV
             Fermi-level           -0.4215617 Eh          -11.4713 eV

     #   Z          covCN         q      C6AA      α(0)
     1   6 C        3.751    -0.106    22.577     6.776
     2   6 C        3.799    -0.055    21.556     6.611
     3   6 C        3.800    -0.061    21.670     6.628
     4   6 C        3.800    -0.062    21.697     6.632
     5   6 C        3.799    -0.062    21.689     6.631
     6   6 C        3.799    -0.069    21.831     6.653
     7   6 C        3.799    -0.074    21.916     6.666
     8   6 C        3.734    -0.030    21.205     6.572
     9   7 N        3.607     0.045    20.457     6.718
    10   6 C        2.908    -0.072    29.784     8.949
    11   6 C        2.916     0.028    27.368     8.579
    12   7 N        2.787    -0.070    22.593     7.060
    13   6 C        3.770     0.033    20.057     6.382
    14   6 C        3.840    -0.015    20.806     6.489
    15   6 C        3.751    -0.110    22.666     6.789
    16  15 P        3.910     0.523   139.044    21.182
    17   8 O        0.808    -0.473    23.218     6.459
    18   8 O        1.656    -0.284    18.727     5.842
    19   6 C        3.896     0.077    19.244     6.236
    20   6 C        3.751    -0.120    22.862     6.819
    21   8 O        1.656    -0.311    19.196     5.915
    22   6 C        3.902     0.080    19.202     6.229
    23   6 C        3.751    -0.127    22.994     6.839
    24   1 H        0.925     0.033     2.545     2.495
    25   1 H        0.925     0.040     2.454     2.450
    26   1 H        0.925     0.040     2.448     2.447
    27   1 H        0.924     0.028     2.615     2.529
    28   1 H        0.924     0.036     2.503     2.474
    29   1 H        0.924     0.026     2.649     2.545
    30   1 H        0.924     0.041     2.441     2.443
    31   1 H        0.924     0.023     2.688     2.564
    32   1 H        0.924     0.046     2.373     2.409
    33   1 H        0.924     0.012     2.857     2.643
    34   1 H        0.924     0.051     2.303     2.373
    35   1 H        0.924     0.038     2.480     2.463
    36   1 H        0.924     0.060     2.202     2.321
    37   1 H        0.924     0.064     2.151     2.294
    38   1 H        0.924     0.075     2.033     2.230
    39   1 H        0.924     0.082     1.963     2.191
    40   1 H        0.924     0.088     1.903     2.157
    41   1 H        0.859     0.216     1.028     1.588
    42   1 H        0.927     0.083     1.947     2.182
    43   1 H        0.926     0.126     1.569     1.959
    44   1 H        0.924     0.104     1.749     2.068
    45   1 H        0.924     0.085     1.929     2.172
    46   1 H        0.924     0.096     1.821     2.111
    47   1 H        0.924     0.066     2.131     2.283
    48   1 H        0.927     0.083     1.946     2.182
    49   1 H        0.926     0.069     2.100     2.266
    50   1 H        0.924     0.064     2.149     2.292
    51   1 H        0.924     0.060     2.197     2.318
    52   1 H        0.925     0.057     2.232     2.336
    53   1 H        0.925     0.067     2.117     2.275
    54   1 H        0.925     0.061     2.186     2.312
    55   1 H        0.924     0.056     2.244     2.343
    56   1 H        0.924     0.055     2.258     2.350
    57   1 H        0.925     0.074     2.043     2.235
    58   1 H        0.925     0.063     2.159     2.298
    59   1 H        0.925     0.046     2.368     2.406

 Mol. C6AA /au·bohr⁶  :      27992.154901
 Mol. C8AA /au·bohr⁸  :     647800.564638
 Mol. α(0) /au        :        252.656421


Wiberg/Mayer (AO) data.
largest (>0.10) Wiberg bond orders for each atom

 ---------------------------------------------------------------------------
     #   Z sym  total        # sym  WBO       # sym  WBO       # sym  WBO
 ---------------------------------------------------------------------------
     1   6 C    3.996 --     2 C    1.020    26 H    0.987    25 H    0.987
                            24 H    0.986
     2   6 C    3.997 --     1 C    1.020     3 C    1.008    28 H    0.978
                            27 H    0.976
     3   6 C    3.996 --     2 C    1.008     4 C    1.007    30 H    0.976
                            29 H    0.975
     4   6 C    3.996 --     3 C    1.007     5 C    1.007    31 H    0.976
                            32 H    0.974
     5   6 C    3.995 --     6 C    1.008     4 C    1.007    33 H    0.973
                            34 H    0.972
     6   6 C    3.992 --     5 C    1.008     7 C    1.005    36 H    0.969
                            35 H    0.965
     7   6 C    3.982 --     8 C    1.006     6 C    1.005    38 H    0.965
                            37 H    0.964
     8   6 C    3.920 --     7 C    1.006    39 H    0.970    40 H    0.963
                             9 N    0.920
     9   7 N    3.766 --    13 C    0.950     8 C    0.920    41 H    0.919
                            10 C    0.912
    10   6 C    3.832 --    11 C    1.725    42 H    0.965     9 N    0.912
                            12 N    0.158
    11   6 C    3.963 --    10 C    1.725    12 N    1.207    43 H    0.943
    12   7 N    3.431 --    11 C    1.207    13 C    0.998    14 C    0.991
                            10 C    0.158
    13   6 C    3.937 --    12 N    0.998    45 H    0.967     9 N    0.950
                            44 H    0.944
    14   6 C    3.963 --    15 C    0.996    12 N    0.991    47 H    0.967
                            46 H    0.960
    15   6 C    3.993 --    14 C    0.996    49 H    0.959    48 H    0.951
                            16 P    0.910
    16  15 P    5.362 --    17 O    1.880    18 O    1.248    21 O    1.177
                            15 C    0.910
    17   8 O    2.122 --    16 P    1.880
    18   8 O    2.353 --    16 P    1.248    19 C    0.910
    19   6 C    3.909 --    20 C    1.020    51 H    0.972    50 H    0.967
                            18 O    0.910
    20   6 C    3.990 --    19 C    1.020    54 H    0.984    52 H    0.983
                            53 H    0.979
    21   8 O    2.302 --    16 P    1.177    22 C    0.918
    22   6 C    3.920 --    23 C    1.018    56 H    0.969    55 H    0.967
                            21 O    0.918
    23   6 C    3.990 --    22 C    1.018    59 H    0.985    58 H    0.981
                            57 H    0.977
    24   1 H    0.999 --     1 C    0.986
    25   1 H    0.998 --     1 C    0.987
    26   1 H    0.998 --     1 C    0.987
    27   1 H    0.999 --     2 C    0.976
    28   1 H    0.999 --     2 C    0.978
    29   1 H    0.999 --     3 C    0.975
    30   1 H    0.998 --     3 C    0.976
    31   1 H    0.999 --     4 C    0.976
    32   1 H    0.998 --     4 C    0.974
    33   1 H    1.000 --     5 C    0.973
    34   1 H    0.997 --     5 C    0.972
    35   1 H    0.999 --     6 C    0.965
    36   1 H    0.996 --     6 C    0.969
    37   1 H    0.996 --     7 C    0.964
    38   1 H    0.994 --     7 C    0.965
    39   1 H    0.993 --     8 C    0.970
    40   1 H    0.992 --     8 C    0.963
    41   1 H    0.953 --     9 N    0.919
    42   1 H    0.993 --    10 C    0.965
    43   1 H    0.984 --    11 C    0.943
    44   1 H    0.989 --    13 C    0.944
    45   1 H    0.993 --    13 C    0.967
    46   1 H    0.990 --    14 C    0.960
    47   1 H    0.995 --    14 C    0.967
    48   1 H    0.992 --    15 C    0.951
    49   1 H    0.995 --    15 C    0.959
    50   1 H    0.996 --    19 C    0.967
    51   1 H    0.996 --    19 C    0.972
    52   1 H    0.997 --    20 C    0.983
    53   1 H    0.995 --    20 C    0.979
    54   1 H    0.996 --    20 C    0.984
    55   1 H    0.997 --    22 C    0.967
    56   1 H    0.997 --    22 C    0.969
    57   1 H    0.994 --    23 C    0.977
    58   1 H    0.995 --    23 C    0.981
    59   1 H    0.998 --    23 C    0.985
 ---------------------------------------------------------------------------

Topologies differ in total number of bonds
Writing topology from bond orders to xtbtopo.mol

molecular dipole:
                 x           y           z       tot (Debye)
 q only:       -7.168       6.374      -6.485
   full:       -7.096       6.008      -6.595      28.973
molecular quadrupole (traceless):
                xx          xy          yy          xz          yz          zz
 q only:        7.812     -65.905     -14.202      58.526     -52.138       6.389
  q+dip:        6.910     -59.117     -20.728      57.189     -51.532      13.818
   full:        6.472     -58.249     -20.401      56.807     -50.468      13.928

           -------------------------------------------------
          |                Geometry Summary                 |
           -------------------------------------------------

      molecular mass/u    :      347.4537605
   center of mass at/Å    :       -3.9687811       3.7968540      -1.8021893
  moments of inertia/u·Å² :        0.1685236E+04   0.3646091E+04   0.4437814E+04
rotational constants/cm⁻¹ :        0.1000313E-01   0.4623480E-02   0.3798635E-02

 * 59 selected distances

     #   Z          #   Z                                           value/Å
     1   6 C        2   6 C                                       1.5238203
     2   6 C        3   6 C                                       1.5298169
     3   6 C        4   6 C                                       1.5307065
     4   6 C        5   6 C                                       1.5310591
     5   6 C        6   6 C                                       1.5299781
     6   6 C        7   6 C                                       1.5330480
     7   6 C        8   6 C                                       1.5283021
     8   6 C        9   7 N                                       1.4959317
     9   7 N       10   6 C                                       1.4788146
    10   6 C       11   6 C                                       1.3364528
    11   6 C       12   7 N                                       1.3581255
     9   7 N       13   6 C                                       1.4921161
    12   7 N       13   6 C                                       1.4506007
    12   7 N       14   6 C                                       1.4390179
    14   6 C       15   6 C                                       1.5257686
    15   6 C       16  15 P                                       1.8386235 (max)
    16  15 P       17   8 O                                       1.4669186
    16  15 P       18   8 O                                       1.5933535
    18   8 O       19   6 C                                       1.4324715
    19   6 C       20   6 C                                       1.5180350
    16  15 P       21   8 O                                       1.6109905
    21   8 O       22   6 C                                       1.4303118
    22   6 C       23   6 C                                       1.5186471
     1   6 C       24   1 H                                       1.0872238
     1   6 C       25   1 H                                       1.0870202
     1   6 C       26   1 H                                       1.0873809
     2   6 C       27   1 H                                       1.0919247
     2   6 C       28   1 H                                       1.0920943
     3   6 C       29   1 H                                       1.0924897
     3   6 C       30   1 H                                       1.0920313
     4   6 C       31   1 H                                       1.0930196
     4   6 C       32   1 H                                       1.0906771
     5   6 C       33   1 H                                       1.0950217
     5   6 C       34   1 H                                       1.0905523
     6   6 C       35   1 H                                       1.0915727
     6   6 C       36   1 H                                       1.0903730
     7   6 C       37   1 H                                       1.0911437
     7   6 C       38   1 H                                       1.0906102
     8   6 C       39   1 H                                       1.0925466
     8   6 C       40   1 H                                       1.0908689
     9   7 N       41   1 H                                       1.0264537 (min)
    10   6 C       42   1 H                                       1.0679128
    11   6 C       43   1 H                                       1.0736074
    13   6 C       44   1 H                                       1.0966766
    13   6 C       45   1 H                                       1.0953465
    14   6 C       46   1 H                                       1.0923029
    14   6 C       47   1 H                                       1.0943073
    15   6 C       48   1 H                                       1.0896167
    15   6 C       49   1 H                                       1.0876230
    19   6 C       50   1 H                                       1.0931902
    19   6 C       51   1 H                                       1.0926668
    20   6 C       52   1 H                                       1.0877729
    20   6 C       53   1 H                                       1.0859998
    20   6 C       54   1 H                                       1.0872779
    22   6 C       55   1 H                                       1.0934138
    22   6 C       56   1 H                                       1.0938332
    23   6 C       57   1 H                                       1.0861608
    23   6 C       58   1 H                                       1.0863533
    23   6 C       59   1 H                                       1.0874857

 * 7 distinct bonds (by element types)

   Z      Z             #   av. dist./Å        max./Å        min./Å
   1 H    6 C          35     1.0896600     1.0966766     1.0679128
   6 C    6 C          11     1.5096031     1.5330480     1.3364528
   1 H    7 N           1     1.0264537     1.0264537     1.0264537
   6 C    7 N           6     1.4524344     1.4959317     1.3581255
   6 C    8 O           2     1.4313917     1.4324715     1.4303118
   6 C   15 P           1     1.8386235     1.8386235     1.8386235
   8 O   15 P           3     1.5570875     1.6109905     1.4669186


optimized geometry written to: xtbopt.xyz


           -------------------------------------------------
          | TOTAL ENERGY              -75.052342451660 Eh   |
          | GRADIENT NORM               0.000459061259 Eh/α |
          | HOMO-LUMO GAP               4.190574046443 eV   |
           -------------------------------------------------

------------------------------------------------------------------------
 * finished run on 2024/12/20 at 06:55:15.277     
------------------------------------------------------------------------
 total:
 * wall-time:     0 d,  0 h,  0 min,  5.156 sec
 *  cpu-time:     0 d,  0 h,  0 min, 40.751 sec
 * ratio c/w:     7.903 speedup
 SCF:
 * wall-time:     0 d,  0 h,  0 min,  0.053 sec
 *  cpu-time:     0 d,  0 h,  0 min,  0.419 sec
 * ratio c/w:     7.943 speedup
 ANC optimizer:
 * wall-time:     0 d,  0 h,  0 min,  5.084 sec
 *  cpu-time:     0 d,  0 h,  0 min, 40.187 sec
 * ratio c/w:     7.905 speedup

