24
 energy: -28.924870164597 gnorm: 0.034526692621 xtb: 6.7.1 (edcfbbe)
C            1.31328000000000       -0.39093000000000        0.47589000000000
C            0.67576000000000        0.50247000000000        1.52954000000000
C            0.92789000000000        1.99449000000000        1.29611000000000
C            0.30265000000000        2.56962000000000        0.02773000000000
N           -1.17327000000000        2.65143000000000        0.15912000000000
C           -1.95610000000000        1.69603000000000       -0.39559000000000
C           -3.34095000000000        1.77072000000000       -0.30004000000000
C           -3.92187000000000        2.84380000000000        0.36256000000000
C           -3.10828000000000        3.82198000000000        0.91793000000000
C           -1.72813000000000        3.70649000000000        0.80320000000000
H            0.85443000000000       -0.24878000000000       -0.50637000000000
H            1.18792000000000       -1.44336000000000        0.75009000000000
H            2.38595000000000       -0.19069000000000        0.38833000000000
H           -0.39817000000000        0.29707000000000        1.58758000000000
H            1.09564000000000        0.23300000000000        2.50641000000000
H            0.56097000000000        2.54662000000000        2.16975000000000
H            2.01107000000000        2.16295000000000        1.25505000000000
H            0.66029000000000        3.59182000000000       -0.14474000000000
H            0.54361000000000        1.98945000000000       -0.86798000000000
H           -1.46538000000000        0.87395000000000       -0.90843000000000
H           -3.96529000000000        0.99690000000000       -0.74189000000000
H           -5.00570000000000        2.91878000000000        0.44374000000000
H           -3.54807000000000        4.67162000000000        1.43623000000000
H           -1.05723000000000        4.45155000000000        1.22173000000000
24
 energy: -28.926989893408 gnorm: 0.014320247381 xtb: 6.7.1 (edcfbbe)
C            1.30683049617614       -0.38816178337039        0.46924712762034
C            0.66364329266891        0.50482571150212        1.52247204078042
C            0.91850226528280        1.99707446190803        1.30184565104481
C            0.28573388578426        2.57534956979562        0.03728161356500
N           -1.17749297542727        2.65876010908891        0.14666646431717
C           -1.95154770024337        1.70181807049635       -0.38683343479704
C           -3.32891405671675        1.76574383086426       -0.29139063791364
C           -3.91503931951980        2.83781073419478        0.36677366147613
C           -3.09750275706412        3.81328341842110        0.92120729831959
C           -1.72729825415917        3.69727901607259        0.79513806237704
H            0.86173757042461       -0.25283145065703       -0.51549085949038
H            1.18539859462751       -1.43400749834639        0.74393563374555
H            2.37357116443986       -0.18588859715598        0.39198516350723
H           -0.41067355888188        0.30571280067008        1.57759389059368
H            1.08379977103280        0.24531359492832        2.49720681674632
H            0.55633690050054        2.55769219819370        2.16831372085289
H            1.99731533990934        2.16170069901765        1.23846175553662
H            0.66143558964349        3.58853090322035       -0.13250599978357
H            0.53302738951035        1.97200905994817       -0.83765960956547
H           -1.45802232558127        0.88746160588621       -0.89815629324900
H           -3.93904555280834        0.99296270254349       -0.73712521732386
H           -4.99143412291918        2.91457625649039        0.44295877311754
H           -3.52365639925409        4.66276996517741        1.43595273021925
H           -1.05568523742539        4.43719462111025        1.20807164830338
24
 energy: -28.927375105713 gnorm: 0.005536789489 xtb: 6.7.1 (edcfbbe)
C            1.29928687442744       -0.38080834202257        0.46612356147959
C            0.64741479362976        0.50847329856820        1.51857897575470
C            0.90962158406351        1.99977840468141        1.30395015275708
C            0.27832092239589        2.58096411643703        0.03458323502320
N           -1.17281801029793        2.66166189117880        0.13999468526871
C           -1.94268905339989        1.70335067154042       -0.38222879365753
C           -3.31795529730257        1.76057386627530       -0.28617409822114
C           -3.90861407956000        2.83171559523138        0.37078336473552
C           -3.08882287094759        3.80828250116175        0.92287406773897
C           -1.72189608378420        3.69179550291635        0.79140667299774
H            0.86366105178338       -0.24597638681634       -0.52125175015504
H            1.17638716630995       -1.42406265411672        0.73987458272625
H            2.36420705664818       -0.17562493820951        0.40024133511448
H           -0.42761225427108        0.31310799516893        1.56361886387458
H            1.06160004134016        0.24591738936962        2.49265635682316
H            0.55214954837553        2.56042424310299        2.17039599762867
H            1.98608753351226        2.15935035816057        1.22914586914703
H            0.66344802918802        3.58902851092595       -0.13251895239213
H            0.53356419504475        1.96275373700979       -0.82668675467388
H           -1.44750093513324        0.89204063150517       -0.89335667641662
H           -3.91840405260728        0.98126014921376       -0.72610608670736
H           -4.98129598772517        2.90556401862497        0.44943549765957
H           -3.50694322839280        4.65469059809815        1.44259185168191
H           -1.05017694329714        4.43271884199453        1.19801804181258
24
 energy: -28.927464072008 gnorm: 0.002820484400 xtb: 6.7.1 (edcfbbe)
C            1.29310451842118       -0.37687748409566        0.46511841604883
C            0.63527517931180        0.51217695207362        1.51480768425945
C            0.90699108795858        2.00225619949111        1.30491121363544
C            0.27957551797886        2.58468611183435        0.03074371397281
N           -1.16702995352221        2.66455770463620        0.13412962048207
C           -1.93621436540512        1.70274961664616       -0.38235352066235
C           -3.31169246906616        1.75456993423157       -0.28025894154612
C           -3.90414909970207        2.82450851964939        0.37748828630194
C           -3.08484694229204        3.80438629568571        0.92570438354464
C           -1.71793139876487        3.69259367875107        0.78772235583583
H            0.86473389530358       -0.23947419863665       -0.52515908101295
H            1.16703282707287       -1.42050792772098        0.73608590154568
H            2.35852529661948       -0.17133076002889        0.40786331257379
H           -0.44100023330630        0.32117795102198        1.54957424281121
H            1.03964868707075        0.24457162665845        2.49140504037622
H            0.54939130667672        2.56371068646556        2.17034313768333
H            1.98370405436451        2.15626932293955        1.23098287893889
H            0.66929048492693        3.59059205594243       -0.13520818206241
H            0.54113543595852        1.96209655320679       -0.82513394158262
H           -1.44068675202961        0.89157259092509       -0.89397577561497
H           -3.90879494145533        0.97100652764011       -0.71701959182362
H           -4.97660353374827        2.89612332571196        0.45793316481226
H           -3.50143683666714        4.64982202676205        1.44795550318015
H           -1.04700176570475        4.43574269020894        1.19229017830255
24
 energy: -28.927536982800 gnorm: 0.002362151890 xtb: 6.7.1 (edcfbbe)
C            1.28437000239483       -0.37305654318124        0.46433083436039
C            0.62098697056417        0.51678509518785        1.51026815869673
C            0.90565370699358        2.00478114017510        1.30526375822757
C            0.28433515806556        2.59012930452091        0.02627958346029
N           -1.15941706223884        2.66797734327275        0.12850153867292
C           -1.92782306616657        1.70131224738408       -0.38284242104685
C           -3.30374839366426        1.74679995711142       -0.27327183851431
C           -3.89817896578983        2.81481279636826        0.38547727744022
C           -3.08094180180940        3.79961864118171        0.92831267928895
C           -1.71364102688766        3.69494357024219        0.78371755122612
H            0.86413113607798       -0.23172673309577       -0.52923505060059
H            1.15304211745929       -1.41744895116982        0.73149198305011
H            2.35097670761903       -0.16967802418848        0.41600057969399
H           -0.45718263198421        0.33323110474340        1.53210165953706
H            1.01149961487019        0.24213743998589        2.49098518462058
H            0.54755840265179        2.56820760568183        2.16909495816433
H            1.98354024992909        2.15127735801665        1.23549900454446
H            0.67745216445872        3.59486413264694       -0.13778143415913
H            0.55199067495156        1.96625001731086       -0.82635961187766
H           -1.43190250497569        0.89092401928375       -0.89648817446409
H           -3.89800121392466        0.95757734680696       -0.70505517236850
H           -4.97108956876365        2.88098324019091        0.47179926305688
H           -3.49803233524128        4.64377012117872        1.45320307247214
H           -1.04455833458987        4.44250777034495        1.18465661651849
24
 energy: -28.927583499049 gnorm: 0.003129174718 xtb: 6.7.1 (edcfbbe)
C            1.27616539238185       -0.37132637605728        0.46389057592464
C            0.60970487368048        0.52042049638825        1.50610075223339
C            0.90530253737124        2.00647135336372        1.30482902188769
C            0.28974420881703        2.59554006368090        0.02365935677249
N           -1.15364359656633        2.67147740913689        0.12442148529847
C           -1.92037778550481        1.70075597386935       -0.38358556423695
C           -3.29630613010104        1.73989675103033       -0.26729361139945
C           -3.89272317615451        2.80527798093793        0.39331976118926
C           -3.07813450857889        3.79560759036090        0.92985366401914
C           -1.71076480572620        3.69783510241225        0.77979401346449
H            0.86259046599626       -0.22675552231471       -0.53220825966670
H            1.13919216849568       -1.41589065772881        0.72846987441467
H            2.34396797799951       -0.17198155891349        0.42222316915404
H           -0.46994322038588        0.34383012211902        1.51813693567667
H            0.98885827865579        0.24078839268437        2.49015034061195
H            0.54724090239704        2.57187947478578        2.16746641528123
H            1.98443244702684        2.14663644571693        1.23932019700750
H            0.68371584078454        3.60052789957273       -0.13725880663478
H            0.56070542068070        1.97358817371254       -0.82913545317907
H           -1.42349103697646        0.89189263556212       -0.89914310405311
H           -3.88851047864268        0.94652779989397       -0.69514504877077
H           -4.96595089950257        2.86576478212696        0.48548349599642
H           -3.49707663506657        4.63883759542831        1.45543053641350
H           -1.04367824108118        4.44937807223081        1.17717025259537
24
 energy: -28.927632225155 gnorm: 0.002865939083 xtb: 6.7.1 (edcfbbe)
C            1.26632159177600       -0.37088791057071        0.46344387427580
C            0.59785708814873        0.52398933620493        1.50131345267404
C            0.90501400460407        2.00788450381082        1.30351806643885
C            0.29628548488327        2.60259566915931        0.02186366179834
N           -1.14803371292051        2.67625441096079        0.12033615873094
C           -1.91162203089546        1.70086925110090       -0.38424613767403
C           -3.28719809638924        1.73196388036774       -0.26071210647780
C           -3.88642233921894        2.79402643406551        0.40222258686394
C           -3.07548977637114        3.79146254348658        0.93085957136274
C           -1.70829887910485        3.70182717470181        0.77486270847062
H            0.86055338204847       -0.22277354197479       -0.53543580731090
H            1.12161084095564       -1.41505868241468        0.72584165690727
H            2.33561201943493       -0.17794804355295        0.42908377463879
H           -0.48315413938243        0.35515818946719        1.50402191686176
H            0.96575034985078        0.24020538553962        2.48847877545406
H            0.54796008618483        2.57523653346444        2.16545556532305
H            1.98548760918248        2.14101552524146        1.24229546145370
H            0.68980806459004        3.60877150456867       -0.13361532075249
H            0.56967013035693        1.98505183847381       -0.83335422320844
H           -1.41276300148682        0.89473772290101       -0.90217978800485
H           -3.87703887057232        0.93425243207750       -0.68410774369376
H           -4.95963458304546        2.84659830914869        0.50250103620623
H           -3.49750034258323        4.63363463359535        1.45601657280179
H           -1.04375488004596        4.45811290017670        1.16748628686052
24
 energy: -28.927685574136 gnorm: 0.001795247485 xtb: 6.7.1 (edcfbbe)
C            1.25181678871903       -0.37156878117570        0.46272428529757
C            0.58139920618258        0.52860667944028        1.49439412853853
C            0.90418344844655        2.00968208436137        1.30088938886561
C            0.30517505266016        2.61374061072984        0.02002370106998
N           -1.14077775686019        2.68433460658809        0.11420647390654
C           -1.89867452943756        1.70191944080997       -0.38500516740775
C           -3.27344913245233        1.72037240112856       -0.25122474122017
C           -3.87733730311704        2.77745239006161        0.41527454945084
C           -3.07217545806348        3.78589886261232        0.93191964042365
C           -1.70542796609393        3.70828250767920        0.76700083188960
H            0.85859591245887       -0.21779698971627       -0.54040155579041
H            1.09386009640385       -1.41461423816011        0.72215160271073
H            2.32344113207787       -0.18968582666923        0.44001026809456
H           -0.50123626302890        0.37014536013060        1.48559875057026
H            0.93540459979374        0.24042336808508        2.48520107552952
H            0.54964480084885        2.57899844877516        2.16274353030100
H            1.98629622081706        2.13268234683323        1.24439855020886
H            0.69779691225550        3.62186942999003       -0.12577394611163
H            0.58175141221725        2.00362993703073       -0.83974858027895
H           -1.39602704315168        0.90029822689443       -0.90597635033230
H           -3.85944006103933        0.91645491080999       -0.66809086218713
H           -4.94998212739477        2.81802919875268        0.52730208756726
H           -3.49902675355903        4.62633314895612        1.45589054139405
H           -1.04479118868334        4.47149187605168        1.15244179750995
24
 energy: -28.927716136125 gnorm: 0.001403917365 xtb: 6.7.1 (edcfbbe)
C            1.22946581274045       -0.37371321965125        0.46149035876127
C            0.55725507604221        0.53538320853777        1.48401342853196
C            0.90235441178558        2.01248017421924        1.29618803318143
C            0.31729253346020        2.63161847672751        0.01734011600058
N           -1.13036152495676        2.69778065444376        0.10445514961186
C           -1.87876012658731        1.70412461415846       -0.38567036589301
C           -3.25195356929956        1.70276247138126       -0.23690936626470
C           -3.86343149085462        2.75256743840534        0.43444871151090
C           -3.06777506066224        3.77774884625185        0.93334879847418
C           -1.70189923403815        3.71856575861231        0.75462312659931
H            0.85821520590061       -0.20905128322162       -0.54849975902364
H            1.04730359560702       -1.41448883117973        0.71496119324318
H            2.30483824808102       -0.21185205287950        0.45923789415284
H           -0.52733547161506        0.39139881376068        1.46026825701906
H            0.89306214319822        0.24214879849147        2.47938000564812
H            0.55268191290631        2.58356161085570        2.15899195936516
H            1.98640722548034        2.12000367927165        1.24472018596286
H            0.70935875506615        3.64224012995295       -0.11224274424591
H            0.59941316376459        2.03300386033713       -0.84918322505085
H           -1.36955508246395        0.90966713070550       -0.91082510801394
H           -3.83125329533296        0.88891892971742       -0.64330175710384
H           -4.93448598379895        2.77444690309095        0.56424843093836
H           -3.50202598512854        4.61492273802204        1.45598686124955
H           -1.04779125929493        4.49274114998857        1.12887981534551
24
 energy: -28.927723339306 gnorm: 0.000589256652 xtb: 6.7.1 (edcfbbe)
C            1.23011952579173       -0.37431228564099        0.46147206322573
C            0.55981301430774        0.53511209256940        1.48492962284523
C            0.90255224632021        2.01240107604791        1.29587114779931
C            0.31559933411636        2.63115023018694        0.01755108013390
N           -1.13138422179151        2.69762920975401        0.10495205880919
C           -1.87979488684709        1.70428670874224       -0.38535704924184
C           -3.25265662981760        1.70374938584667       -0.23783807338578
C           -3.86395953562532        2.75399937146254        0.43297534895139
C           -3.06865739913983        3.77813450885702        0.93323023922491
C           -1.70299071260332        3.71819309346436        0.75526246091068
H            0.86032423462711       -0.20763894158863       -0.54813550669842
H            1.04510676488344       -1.41458586896003        0.71312166280822
H            2.30522885429204       -0.21520873369228        0.46027303023633
H           -0.52417961239962        0.38951464219269        1.46452932091200
H            0.89903738509591        0.24343361930155        2.47921560960013
H            0.55343311064796        2.58271231040797        2.15929697464656
H            1.98603739945713        2.12085899430061        1.24244101944361
H            0.70809969938396        3.64124181028423       -0.11209620020990
H            0.59784280312022        2.03222063320583       -0.84844114178645
H           -1.37051437850449        0.90957755415457       -0.90995801296692
H           -3.83163007212616        0.89028784512319       -0.64474655501270
H           -4.93447877729841        2.77701512792650        0.56100466403077
H           -3.50265702569235        4.61513471487964        1.45616560644868
H           -1.04927112019846        4.49207290117352        1.13023062927559
24
 energy: -28.927730913192 gnorm: 0.000602172224 xtb: 6.7.1 (edcfbbe)
C            1.22849928522566       -0.37539132488712        0.46103471237924
C            0.56134801767150        0.53547496469975        1.48542628694116
C            0.90410031538001        2.01274020816150        1.29482215603160
C            0.31483161039614        2.63267658294663        0.01778137075613
N           -1.13160951533728        2.69863333402137        0.10536914591464
C           -1.87923240758813        1.70445630418038       -0.38459553590593
C           -3.25194699937203        1.70287538219062       -0.23768512895748
C           -3.86420480700136        2.75317405469949        0.43244669213978
C           -3.07003496643674        3.77791323437252        0.93276635584180
C           -1.70422325542930        3.71887521246138        0.75507031502235
H            0.86542889121215       -0.20101906487978       -0.54966210070291
H            1.03234776130355       -1.41485911887016        0.70776052982839
H            2.30496211716939       -0.22612148933287        0.46636196265803
H           -0.52273821154032        0.38998751361892        1.46858239881058
H            0.90415931771608        0.24457658528266        2.47880409942410
H            0.55686434690135        2.58271581242408        2.15918533025392
H            1.98731380022782        2.12077278887016        1.23849469317419
H            0.70757789316586        3.64265889211670       -0.11032257909543
H            0.59717425130611        2.03460923660020       -0.84863698959287
H           -1.36888766556218        0.90984443997337       -0.90826015673076
H           -3.82986806581955        0.88883762457538       -0.64453395623165
H           -4.93458794377383        2.77533968815862        0.56001806201420
H           -3.50459888638111        4.61457298283962        1.45567388219263
H           -1.05165488343417        4.49363615577605        1.13004845383453
24
 energy: -28.927737249018 gnorm: 0.000624796226 xtb: 6.7.1 (edcfbbe)
C            1.22440723340059       -0.37662533023745        0.46035428626906
C            0.56220357864184        0.53698479379180        1.48556383998179
C            0.90692711400347        2.01374737020055        1.29347679922804
C            0.31527554048713        2.63552873421210        0.01806174374176
N           -1.13103253930137        2.69955566941847        0.10672304958432
C           -1.87726231538259        1.70378673587159       -0.38268100745878
C           -3.25003412922365        1.70032146543657       -0.23649004922732
C           -3.86414499392445        2.75027437483898        0.43266960916696
C           -3.07160698721897        3.77673132650659        0.93212140714231
C           -1.70544299860739        3.71960082164440        0.75502529097301
H            0.87303963264418       -0.18930953067657       -0.55224814131222
H            1.01059156532013       -1.41497209907801        0.69784198158046
H            2.30290440324960       -0.24355620744055        0.47581689645410
H           -0.52237687155773        0.39354188060886        1.47256526589732
H            0.90780599580707        0.24597819363926        2.47820800986554
H            0.56342772891668        2.58424020723992        2.15900904769200
H            1.99019666640701        2.11981584673919        1.23348445608298
H            0.70703908393312        3.64620707642168       -0.10764038711967
H            0.59770936800562        2.03990049298325       -0.85011624233534
H           -1.36528113947138        0.90955107881588       -0.90537350048228
H           -3.82657730313497        0.88505074224081       -0.64294658671464
H           -4.93475983272623        2.77087878637884        0.55959794155008
H           -3.50751202815957        4.61352458367565        1.45372726169720
H           -1.05447677210854        4.49622298676764        1.12919902774357
24
 energy: -28.927739193706 gnorm: 0.000389846589 xtb: 6.7.1 (edcfbbe)
C            1.22207414657881       -0.37617886154504        0.45984389388814
C            0.56202879469848        0.53803615168631        1.48570546858164
C            0.90919717397618        2.01410959590074        1.29279843597246
C            0.31594618574065        2.63657467216030        0.01848010272681
N           -1.13057691419605        2.69928362364418        0.10768857425431
C           -1.87619828584805        1.70279966137139       -0.38136596727641
C           -3.24917471037985        1.69874531085433       -0.23558438077223
C           -3.86418169990333        2.74896959021581        0.43224244386418
C           -3.07208721026454        3.77592376060492        0.93168349822005
C           -1.70575076787236        3.71932664220882        0.75539778000494
H            0.87611251683579       -0.18304157849678       -0.55343945734461
H            1.00041514682441       -1.41364456905862        0.69298977393510
H            2.30134373285822       -0.25056680238002        0.47988105765903
H           -0.52297750850403        0.39652873012237        1.47342975467036
H            0.90765161289574        0.24617917760467        2.47819645634498
H            0.56781767109859        2.58547028365599        2.15854283082308
H            1.99264679489508        2.11884189508367        1.23126056585709
H            0.70653540489008        3.64785554068835       -0.10692553407389
H            0.59815220472599        2.04214667560504       -0.85061387362178
H           -1.36375301678646        0.90840183060874       -0.90337640300274
H           -3.82528856973219        0.88304249783238       -0.64203143187343
H           -4.93510526278998        2.76919667093613        0.55863396361969
H           -3.50861882713613        4.61278700664619        1.45274067366110
H           -1.05518861260545        4.49619249404960        1.12977177388235
