16
 energy: -20.756878520749 gnorm: 0.041052716791 xtb: 6.7.1 (edcfbbe)
C            2.45543000000000        0.56594000000000       -0.01338000000000
N            1.08270000000000        0.07748000000000       -0.01708000000000
C            0.68310000000000       -1.24875000000000       -0.01265000000000
C           -0.68344000000000       -1.24860000000000       -0.01994000000000
N           -1.08269000000000        0.07772000000000       -0.02736000000000
C            0.00010000000000        0.86942000000000       -0.02502000000000
C           -2.45530000000000        0.56639000000000       -0.03943000000000
H            2.61101000000000        1.19107000000000       -0.89667000000000
H            2.61807000000000        1.15633000000000        0.89221000000000
H            3.15687000000000       -0.27223000000000       -0.03303000000000
H            1.42774000000000       -2.02628000000000       -0.00551000000000
H           -1.42829000000000       -2.02596000000000       -0.02092000000000
H            0.00025000000000        1.95359000000000       -0.02939000000000
H           -2.60557000000000        1.22259000000000        0.82197000000000
H           -2.62318000000000        1.12427000000000       -0.96446000000000
H           -3.15673000000000       -0.27028000000000        0.01455000000000
16
 energy: -20.759399308494 gnorm: 0.018554354908 xtb: 6.7.1 (edcfbbe)
C            2.44901334876581        0.56277525811578       -0.01289016151119
N            1.08364381007890        0.08158490146277       -0.01754727911660
C            0.68025289792649       -1.22692890606900       -0.01372229639335
C           -0.68058952183415       -1.22677684577916       -0.01965734094781
N           -1.08363411526465        0.08183083930015       -0.02687748049467
C            0.00010117796097        0.85775820031810       -0.02546115601698
C           -2.44889063231867        0.56318698932014       -0.03951280134577
H            2.62348434154852        1.18694874829414       -0.88951196194638
H            2.63062911705271        1.15175729749111        0.88647089211815
H            3.13711330624323       -0.27939920525413       -0.03239089613123
H            1.40505141613586       -2.01650361409566       -0.00668959250827
H           -1.40560616384550       -2.01618332435926       -0.01992683615152
H            0.00025374875759        1.93200126521391       -0.02993536426299
H           -2.61734536749603        1.21845922618564        0.81519679797865
H           -2.63636129847010        1.11962304804963       -0.95829565019363
H           -3.13704606524100       -0.27743387819415        0.01464112692360
16
 energy: -20.759968529240 gnorm: 0.006776928309 xtb: 6.7.1 (edcfbbe)
C            2.44597802650412        0.55921592928920       -0.01278304382074
N            1.08540935861038        0.08844237961686       -0.01814330415392
C            0.68014170740807       -1.20931483483382       -0.01408940779196
C           -0.68046786944992       -1.20916584581427       -0.01987782368968
N           -1.08539851814088        0.08869180987701       -0.02672038024508
C            0.00010037639304        0.85624009314838       -0.02581547331716
C           -2.44585759017146        0.55962203736051       -0.03928508198128
H            2.63368959424226        1.18363514450715       -0.88596352653578
H            2.63998454191353        1.14737940480563        0.88407978442352
H            3.12426214593355       -0.28946147877873       -0.03214986582895
H            1.38385282897907       -2.01675973837467       -0.00704221964428
H           -1.38440144182168       -2.01644780292685       -0.01973946171726
H            0.00025317273333        1.92774837069549       -0.03023726408955
H           -2.62691669663559        1.21539593005308        0.81184766300340
H           -2.64634309094404        1.11493824460386       -0.95562933284417
H           -3.12421654555377       -0.28745964322882        0.01543873823291
16
 energy: -20.760046777366 gnorm: 0.003721497043 xtb: 6.7.1 (edcfbbe)
C            2.44704366402638        0.55812012154457       -0.01262345007908
N            1.08626769768914        0.09203891784137       -0.01838038223701
C            0.68088233389639       -1.20500577885775       -0.01440895735713
C           -0.68120408268296       -1.20485728516516       -0.01986427314015
N           -1.08625521128280        0.09228677497520       -0.02683654582546
C            0.00009998499288        0.85993316521911       -0.02602850003287
C           -2.44692342418674        0.55852817916916       -0.03922126144035
H            2.63889727483528        1.18264986730960       -0.88527443059000
H            2.64466953566841        1.14549988522359        0.88443615246110
H            3.12241886741926       -0.29348879237019       -0.03223576248150
H            1.37518328429096       -2.02087830130486       -0.00758796978489
H           -1.37572881999114       -2.02056768945858       -0.01940492348775
H            0.00025197607510        1.93245808016057       -0.03046556130253
H           -2.63177192667405        1.21473295149278        0.81122974906735
H           -2.65139816144460        1.11269839936175       -0.95584065735043
H           -3.12236299263151       -0.29144849514118        0.01639677358068
16
 energy: -20.760070727647 gnorm: 0.001056160770 xtb: 6.7.1 (edcfbbe)
C            2.44868422895027        0.55769132730554       -0.01251247274625
N            1.08674701995512        0.09452889535866       -0.01857842582032
C            0.68155254463923       -1.20309178670309       -0.01449252875169
C           -0.68187105238310       -1.20294514212111       -0.02006837436381
N           -1.08673225940233        0.09477515230773       -0.02694539286487
C            0.00009980407699        0.86351652602948       -0.02613778130134
C           -2.44856400062581        0.55810151434637       -0.03915042162070
H            2.64234852833345        1.18233430310531       -0.88500558989801
H            2.64776161772761        1.14404495254959        0.88524506861190
H            3.12242431794642       -0.29574684084070       -0.03259305119652
H            1.36876819562484       -2.02481406508289       -0.00778565125980
H           -1.36931111803304       -2.02450629815934       -0.01953704180430
H            0.00025081034150        1.93685568295237       -0.03059786318747
H           -2.63484103358602        1.21487060215148        0.81090080300590
H           -2.65489733361824        1.11073582803181       -0.95660764559088
H           -3.12235026994686       -0.29365065123119        0.01775636878814
16
 energy: -20.760071694112 gnorm: 0.000313960104 xtb: 6.7.1 (edcfbbe)
C            2.44909078919845        0.55795938379240       -0.01239174398281
N            1.08666928867420        0.09446671963603       -0.01858577069794
C            0.68163200734278       -1.20333908385928       -0.01463888336953
C           -0.68195014164843       -1.20319176774494       -0.02011200341231
N           -1.08665333531944        0.09471310703031       -0.02697804855610
C            0.00010005007613        0.86371941828625       -0.02609802966620
C           -2.44897073903732        0.55836760528794       -0.03919549011502
H            2.64202614471627        1.18294315170127       -0.88471862018612
H            2.64763748285317        1.14367883189367        0.88583080095428
H            3.12279979908731       -0.29542239280833       -0.03304148715739
H            1.36793112018457       -2.02547785387415       -0.00804906398770
H           -1.36847427695270       -2.02516832307724       -0.01956847191785
H            0.00025099509687        1.93693579862093       -0.03054345246271
H           -2.63430220257341        1.21585918299503        0.81042652854939
H           -2.65500410364165        1.10993274985456       -0.95729051397037
H           -3.12271287805680       -0.29327652773443        0.01884424997836
