41
 energy: -90.990833626641 gnorm: 0.110163647670 xtb: 6.7.1 (edcfbbe)
C           -0.23956000000000        0.31894000000000        1.12079000000000
C           -0.08649000000000        1.48029000000000        0.18907000000000
N           -0.52897000000000        1.56124000000000       -1.09511000000000
C           -1.18762000000000        0.49975000000000       -1.86887000000000
C           -0.28975000000000       -0.15402000000000       -2.91517000000000
C            0.72264000000000       -1.15779000000000       -2.36737000000000
F            0.14395000000000       -1.82243000000000       -1.33327000000000
F            0.92477000000000       -2.08742000000000       -3.34257000000000
C            2.07056000000000       -0.57277000000000       -1.95191000000000
F            2.60741000000000        0.11242000000000       -2.99734000000000
F            1.88127000000000        0.35656000000000       -0.97422000000000
C            3.01613000000000       -1.64063000000000       -1.44857000000000
F            2.44776000000000       -2.29328000000000       -0.39233000000000
F            3.24827000000000       -2.57925000000000       -2.40094000000000
C            4.30910000000000       -0.98334000000000       -1.00575000000000
F            4.92479000000000       -0.32414000000000       -2.01229000000000
F            4.09055000000000       -0.07495000000000       -0.01739000000000
F            5.19022000000000       -1.88480000000000       -0.51527000000000
C           -0.35448000000000        2.86004000000000       -1.55813000000000
C            0.36205000000000        3.52426000000000       -0.61243000000000
N            0.61077000000000        2.62038000000000        0.40412000000000
C            1.53429000000000        2.88310000000000        1.52969000000000
N            1.11146000000000        2.47867000000000        2.86860000000000
C            1.84114000000000        1.75355000000000        3.76859000000000
C            1.03946000000000        1.60654000000000        4.87596000000000
C           -0.15645000000000        2.26980000000000        4.54443000000000
N           -0.12797000000000        2.77990000000000        3.30852000000000
H           -0.62544000000000       -0.54007000000000        0.57916000000000
H           -0.94594000000000        0.61577000000000        1.89502000000000
H            0.74571000000000        0.08070000000000        1.52054000000000
H           -1.64073000000000       -0.23724000000000       -1.20230000000000
H           -2.03034000000000        0.97610000000000       -2.38819000000000
H           -0.94845000000000       -0.70116000000000       -3.60245000000000
H            0.21417000000000        0.60129000000000       -3.52884000000000
H           -0.74357000000000        3.13555000000000       -2.52424000000000
H            0.75978000000000        4.52338000000000       -0.54943000000000
H            2.47380000000000        2.36619000000000        1.30393000000000
H            1.73344000000000        3.95901000000000        1.59042000000000
H            2.84899000000000        1.41574000000000        3.56389000000000
H            1.28544000000000        1.09762000000000        5.79862000000000
H           -1.04649000000000        2.39341000000000        5.15020000000000
41
 energy: -91.006083522023 gnorm: 0.051993115236 xtb: 6.7.1 (edcfbbe)
C           -0.21751463411129        0.32787100313884        1.10618495686865
C           -0.06527791390162        1.47381105196324        0.17997209155440
N           -0.56483250145358        1.56968449192401       -1.07313070521067
C           -1.21929580722824        0.52942712521152       -1.86084368698464
C           -0.31659379219650       -0.12535705629761       -2.91313426006328
C            0.68482544854972       -1.15452559912793       -2.38338867879204
F            0.14698192094624       -1.82229731571717       -1.33138544998190
F            0.91321277529771       -2.08581178988202       -3.34207176501677
C            2.05509978217207       -0.58376616879141       -1.96664884567588
F            2.58797494087889        0.09354929155728       -3.00740860655250
F            1.88409025727664        0.34641665773535       -0.99088582865829
C            3.03730855286149       -1.64217954479648       -1.44665292316196
F            2.47557136146295       -2.28021057603636       -0.38965832593039
F            3.27476598932837       -2.57252819800576       -2.38902996540692
C            4.34959054376449       -0.99126516703023       -0.99301182569124
F            4.94279807075669       -0.33615539358753       -1.99590174197481
F            4.11144490241648       -0.09249780269240       -0.01559451524879
F            5.21114220108488       -1.88813815011509       -0.50810384953537
C           -0.33064539501697        2.84297430483914       -1.54941167575940
C            0.38208250871151        3.50010764024436       -0.60430816965191
N            0.58642677371012        2.62281959756259        0.43726269442959
C            1.52370661337093        2.88680773141391        1.53466441977213
N            1.09524046826991        2.45405388297856        2.84444388180757
C            1.82393308121291        1.74652616663604        3.74956336856370
C            1.03310618607238        1.61381744977214        4.86437123375638
C           -0.16539788783109        2.26405236253546        4.53527682916042
N           -0.12220494247178        2.77027056191269        3.31351493460360
H           -0.61218950761300       -0.54290996934094        0.59316425029869
H           -0.91101690369596        0.61540166559876        1.89641671346204
H            0.74557676043130        0.07271209393136        1.54064168689216
H           -1.64084141866931       -0.22678499017621       -1.19587277522536
H           -2.05395892959208        0.99618137988045       -2.39260504657225
H           -0.96079521003243       -0.69047502408709       -3.59542129599035
H            0.21273302479856        0.61749625920756       -3.51681119166987
H           -0.71312446828963        3.13795203237508       -2.50784725278999
H            0.76803028959965        4.49981270220329       -0.55764070841737
H            2.46312022382087        2.36886596667595        1.30137409609526
H            1.70829770192797        3.96796083905218        1.56449035367084
H            2.82867228224093        1.42384979540354        3.55070455134444
H            1.27963800127820        1.11867530902047        5.78393314478945
H           -1.04601135013844        2.39071538291048        5.13795988289249
41
 energy: -91.010324117974 gnorm: 0.013852112168 xtb: 6.7.1 (edcfbbe)
C           -0.20249866732791        0.33335737882230        1.10347577586747
C           -0.05766050951111        1.46714081589844        0.17776694391814
N           -0.58878631447129        1.57078298582165       -1.05316202223295
C           -1.23839117546024        0.54589490038420       -1.84593876759087
C           -0.33350463373794       -0.10430875851551       -2.90687758790909
C            0.66107370545333       -1.15158744409021       -2.38817940985276
F            0.14184201548061       -1.81395850071672       -1.32523213112264
F            0.88203538380439       -2.07741546646936       -3.34237027557600
C            2.05423696452584       -0.58736640194332       -1.98247703135297
F            2.57873147750792        0.07296110957436       -3.02825089253858
F            1.89939161911980        0.34946844890500       -1.01199691316730
C            3.05495949939874       -1.64872871536745       -1.44845039431685
F            2.50091659421977       -2.26754174074721       -0.38539694365858
F            3.30031594772594       -2.57367081293730       -2.37968876781141
C            4.38533538424034       -0.99565208078795       -0.98607071059079
F            4.96762365729862       -0.34484943539311       -1.98195513885517
F            4.13668596162126       -0.10793773884763       -0.01253943076751
F            5.22206192848251       -1.89528434846350       -0.50856659726969
C           -0.31945369110619        2.82692798934983       -1.53831770721625
C            0.39703827401186        3.47813252785451       -0.59646882988254
N            0.56975059508523        2.61678462436433        0.45775897996218
C            1.51267382904550        2.88360898174137        1.53673349991829
N            1.07687472203035        2.43183832570425        2.81932028441658
C            1.80902541266612        1.74417331093422        3.73411997659194
C            1.02422924342505        1.61838504640532        4.85063794707295
C           -0.17464014859361        2.27016986907285        4.52073066237859
N           -0.13017671124931        2.75300878978402        3.29895522527230
H           -0.60064967340253       -0.54922161011264        0.61342087156123
H           -0.88253299890025        0.61640280832670        1.91037751720482
H            0.75075671708158        0.07093162567423        1.55626221594396
H           -1.64620094507008       -0.22156175087848       -1.18617650775279
H           -2.06668078530130        1.01524476404504       -2.38011637822038
H           -0.98139729607670       -0.66089354631890       -3.59034458028724
H            0.21162544255192        0.63749543458895       -3.49430689320433
H           -0.68040621596944        3.14035747576045       -2.49702080493199
H            0.78769757387476        4.47500312897776       -0.57647535055540
H            2.45936515832149        2.37681387372816        1.30272725812902
H            1.67554613405369        3.97027455436051        1.54525663506355
H            2.81078150307139        1.42475303436226        3.53696379229249
H            1.27048000211472        1.13214283066496        5.76985331153827
H           -1.05240498003500        2.39483371648365        5.11918916953187
41
 energy: -91.011086012286 gnorm: 0.008008177616 xtb: 6.7.1 (edcfbbe)
C           -0.19241775938126        0.33202771476607        1.11175637828916
C           -0.05572527126738        1.46333357371245        0.18117852752681
N           -0.59481574747198        1.56819436751699       -1.04412957678013
C           -1.24989867170291        0.54872174202979       -1.83328386325429
C           -0.34136154910465       -0.09430282056553       -2.89704114882738
C            0.65286006071709       -1.14879449554677       -2.38511563428454
F            0.13948836067502       -1.80286201548168       -1.31489467757430
F            0.85591145228504       -2.07518737824162       -3.33883536870367
C            2.05884457115183       -0.58804935219413       -1.99515824801875
F            2.57716944523836        0.05382647080679       -3.05298668351624
F            1.91435423350901        0.36039153161403       -1.03344926622641
C            3.06275936950635       -1.65089900157364       -1.45265951736381
F            2.51142018687185       -2.25746177149206       -0.38306412328416
F            3.31052081785660       -2.57920766148003       -2.37655318552444
C            4.40257983758969       -0.99845481288899       -0.98775422535435
F            4.98764393793944       -0.34809117135138       -1.97956178014449
F            4.15533652192746       -0.11531891580246       -0.01116967287799
F            5.22814907615826       -1.90605073757481       -0.51396049643832
C           -0.31461272948671        2.81835987998230       -1.53670925535766
C            0.40912196028347        3.46839563180186       -0.59928806826484
N            0.57374436390076        2.61122017609737        0.45689941967299
C            1.51006288676759        2.88405489065711        1.53738517656907
N            1.06669611372792        2.42428251695817        2.81033096748055
C            1.79720739325039        1.74055623246417        3.73012682627601
C            1.01214303940819        1.62197458035909        4.84591295429006
C           -0.19109962419269        2.26569188488920        4.50593506502831
N           -0.14096127188323        2.74929106542234        3.28524017674208
H           -0.59349990512290       -0.55414077374031        0.63081055245374
H           -0.86343257451028        0.61810276239473        1.92624185208200
H            0.76457650667481        0.07207636223908        1.55846428411251
H           -1.65784347450372       -0.22084441575269       -1.17674069633883
H           -2.07808859892693        1.02305075911042       -2.36410728161624
H           -0.99258956935242       -0.63797119942940       -3.58735559584269
H            0.20578957954749        0.65463474570860       -3.47264364591867
H           -0.66326880413089        3.13849383267403       -2.49735557639648
H            0.80883452149752        4.46196937301703       -0.59572259834717
H            2.46321311173338        2.38804869671775        1.30612066018205
H            1.66041879347263        3.97275150782980        1.54512085219457
H            2.79799178458443        1.41693430244796        3.53243159612205
H            1.25822748131121        1.14436670568202        5.76986020010154
H           -1.06977985654813        2.39379521621647        5.10289469713153
41
 energy: -91.011670581071 gnorm: 0.006736941949 xtb: 6.7.1 (edcfbbe)
C           -0.17676251543128        0.33002656533068        1.12497679440576
C           -0.05049048685547        1.45965508242395        0.18763243498287
N           -0.59666401595177        1.56350299739536       -1.03354384476334
C           -1.26179549728169        0.54801845874845       -1.81588700242082
C           -0.35056671110849       -0.08422252291149       -2.88416181443168
C            0.64332633557622       -1.14522366198000       -2.37869946800598
F            0.13962168481178       -1.78460279778929       -1.29545616986124
F            0.82096614038869       -2.07851225566426       -3.32846299392117
C            2.06416985670103       -0.58815490936335       -2.01538825905090
F            2.57530022141706        0.02222644794873       -3.09436396994350
F            1.93510136583575        0.38230339012162       -1.07125900104136
C            3.06769653627637       -1.65056601632272       -1.45976302682244
F            2.51793302426036       -2.24020597117806       -0.38053387294235
F            3.31568370399584       -2.58787433410086       -2.37283574034211
C            4.41797577836794       -1.00146447468151       -0.99429847923193
F            5.00927165915471       -0.35032861739438       -1.98135704572245
F            4.17619807783292       -0.12345601282661       -0.01160927943014
F            5.23221323566213       -1.92208834027802       -0.52619840901022
C           -0.30751408081741        2.80643674644278       -1.53709497749640
C            0.43022493325474        3.45593891849537       -0.60836756453751
N            0.59000555452373        2.60440321593715        0.45022449256195
C            1.51132355540801        2.88833090375466        1.54039262560545
N            1.05654398236625        2.41903287270636        2.80435008694081
C            1.78191668168341        1.73990145243646        3.73260406163434
C            0.98775293491137        1.62123529372943        4.84068994796470
C           -0.21374944515169        2.26647982901061        4.49026980442361
N           -0.15691815905393        2.74312495703092        3.26656505292754
H           -0.58486148039579       -0.55711754327862        0.65280865661952
H           -0.83469027364113        0.62103657456323        1.94870702844910
H            0.78905823632555        0.07304205695564        1.55544943453903
H           -1.66967202255697       -0.22284910262669       -1.16110026649534
H           -2.09303096732122        1.02642481710733       -2.34023629678325
H           -1.00035978637609       -0.61375629407059       -3.58680307976315
H            0.19705478124887        0.67696806595301       -3.44311587052378
H           -0.64788413857833        3.13212856240382       -2.49829932389182
H            0.84123712419814        4.44494259165825       -0.62435554015576
H            2.47529027913810        2.40986354712810        1.31670160254835
H            1.64320930193463        3.97946738011443        1.55320082882728
H            2.78205735246542        1.41066262099115        3.53612492237899
H            1.22792070989072        1.14928409612888        5.76940331135918
H           -1.09842346710911        2.39289540995036        5.08026021041879
41
 energy: -91.012041922975 gnorm: 0.007489096262 xtb: 6.7.1 (edcfbbe)
C           -0.15978646358943        0.32952684862788        1.13656505609943
C           -0.04129631497733        1.45809876596615        0.19497439529042
N           -0.59318658933677        1.55925494815858       -1.02389086457016
C           -1.26766900842437        0.54480248831426       -1.79984748899192
C           -0.35747406205865       -0.07839367818189       -2.87373565653257
C            0.63572494165726       -1.14282252352599       -2.37214098003019
F            0.14371928325316       -1.76603108973656       -1.27414880253390
F            0.79143591498439       -2.08808862755276       -3.31378091813189
C            2.06716514208520       -0.58872255429111       -2.03675505086738
F            2.57262348047479       -0.01180934429982       -3.13723813199241
F            1.95345826368329        0.40672761689284       -1.11439896063228
C            3.06683425396572       -1.64787460687799       -1.46699176962191
F            2.51671777422373       -2.22167930796450       -0.37903135109250
F            3.31179975979009       -2.59657308494172       -2.36914471027545
C            4.42343436211157       -1.00304515605392       -1.00426484708756
F            5.01861492643530       -0.35012499427838       -1.98823934268614
F            4.18803025829798       -0.12922534635961       -0.01580430576917
F            5.23185450296843       -1.93388406465640       -0.54274892366661
C           -0.29766671141073        2.79532177838243       -1.53814436963280
C            0.45339888211582        3.44508591071320       -0.61853748719584
N            0.61215545444698        2.59991089100122        0.44359777704441
C            1.51685456197756        2.89597303991698        1.54579393882535
N            1.05097542245972        2.41960586686719        2.80362736391558
C            1.76661206332959        1.74005177610380        3.73927955138321
C            0.96035708321949        1.62098567434659        4.83858807257385
C           -0.23906232426799        2.26346310772596        4.47453814114737
N           -0.16817314161055        2.74483289605681        3.25297893443737
H           -0.57787855291955       -0.55570138111280        0.67047544054353
H           -0.80442278710202        0.62413435385294        1.96902305835748
H            0.81424038500204        0.07122141567953        1.54913335980531
H           -1.67224419509252       -0.22689163334845       -1.14378731289720
H           -2.10407540147995        1.02375630597021       -2.31656634458455
H           -1.00244682609218       -0.59857615214029       -3.58755743910505
H            0.19042963034959        0.69289750344622       -3.41872882611297
H           -0.63838427580404        3.12253528102771       -2.49829180802260
H            0.87319216342304        4.42982573703930       -0.64914847955246
H            2.49098371166912        2.43351817490683        1.33272682694007
H            1.63187763767423        3.98894312146975        1.56476499946761
H            2.76682833829576        1.40699037030278        3.54773314801984
H            1.19083687779223        1.15102300284332        5.77098286472906
H           -1.13071842152102        2.38786666971018        5.05531124300369
41
 energy: -91.012381401077 gnorm: 0.007389472121 xtb: 6.7.1 (edcfbbe)
C           -0.13989101947323        0.32973302024158        1.14690431937809
C           -0.02687295949477        1.45726402061753        0.20320914196393
N           -0.58461870458619        1.55521328224100       -1.01380470996461
C           -1.26826569474918        0.54051109878564       -1.78377278304735
C           -0.36273732937471       -0.07539923982393       -2.86482210171960
C            0.62911835463141       -1.14207800805299       -2.36631115731071
F            0.15114446033709       -1.74801395627016       -1.25248518415283
F            0.76496082240874       -2.10271942253052       -3.29630300878199
C            2.06785837980370       -0.59128598342650       -2.06030470704770
F            2.56804099056482       -0.04990076262896       -3.18167994229244
F            1.96942451674021        0.43143746932111       -1.16438397193308
C            3.06175190714437       -1.64415818176954       -1.47456452341968
F            2.51003353972322       -2.20249864239385       -0.37868824858622
F            3.30150840780632       -2.60602105377149       -2.36507761173599
C            4.42072858010824       -1.00303256873748       -1.01734549493048
F            5.01505099229544       -0.34599510921032       -1.99956764860196
F            4.19061302109446       -0.13386844219469       -0.02326023542278
F            5.22940433828627       -1.93935723745583       -0.56410891418928
C           -0.28277810584344        2.78431715676505       -1.53863967797569
C            0.47913808094424        3.43476184878879       -0.62774593816744
N            0.63849734846099        2.59652066694548        0.43905951645234
C            1.52543584860640        2.90662329915578        1.55354767005583
N            1.04813780116239        2.42545525529626        2.80621042904201
C            1.75038593809977        1.74258481639748        3.74945596650568
C            0.92743145469536        1.61800414833386        4.83634892484682
C           -0.26530156168403        2.26399939089452        4.45943817661514
N           -0.17840830364918        2.74817330892387        3.23971105727136
H           -0.57133655507644       -0.55162190435255        0.68604402705899
H           -0.77001937867538        0.62685015891356        1.98865401129819
H            0.84039564859803        0.06489953278474        1.54150359898407
H           -1.66580208319235       -0.23213738807838       -1.12423157303028
H           -2.11131970957657        1.01815271211699       -2.29106141825020
H           -1.00307128541574       -0.58830799227847       -3.58736867388626
H            0.18609262959391        0.70288044193936       -3.39868818172004
H           -0.62931661652547        3.10971601805081       -2.49731147338595
H            0.90692158463628        4.41512712738978       -0.66941355921729
H            2.50982521452513        2.46023751985689        1.35442962347281
H            1.62249876348423        4.00126891676003        1.57653750301968
H            2.75250126101875        1.40943804797054        3.56841457648779
H            1.14394610636728        1.14503787782853        5.77063707926897
H           -1.16543668382178        2.38509875665717        5.02800511704554
41
 energy: -91.012693535270 gnorm: 0.006104468941 xtb: 6.7.1 (edcfbbe)
C           -0.11807568432429        0.33053763304117        1.15570433187406
C           -0.00786981942577        1.45712792191864        0.21187869785576
N           -0.57042850366372        1.55196085082283       -1.00368774845252
C           -1.26278527074804        0.53671475106505       -1.76817656876036
C           -0.36626245141125       -0.07581154191313       -2.85762961633251
C            0.62352183884245       -1.14446279573079       -2.36205703756780
F            0.15987648452307       -1.73419330480460       -1.23385800656804
F            0.74195911863263       -2.12052213232095       -3.27928794427005
C            2.06605749501224       -0.59736986697587       -2.08421511880680
F            2.56107001562045       -0.08992930867502       -3.22317362353594
F            1.98151328280424        0.45120467947540       -1.21670142786869
C            3.05404420309439       -1.64145176975098       -1.48204276762516
F            2.50079122204578       -2.18573626216763       -0.37921071492389
F            3.28757452774151       -2.61691522877221       -2.36079107142656
C            4.41104444452504       -1.00084094334303       -1.03321171657846
F            4.99734650694780       -0.33632916064832       -2.01566695074697
F            4.18332707014487       -0.13696597591465       -0.03394198710934
F            5.22785718988621       -1.93540270713875       -0.58970588912357
C           -0.26289396658059        2.77513662359135       -1.53737042342214
C            0.50554867634480        3.42653299927786       -0.63339225791241
N            0.66508170713534        2.59471146228755        0.43884272569375
C            1.53580438731588        2.91916397889723        1.56314251191042
N            1.04760766572266        2.43722069830682        2.81180915279620
C            1.73305942788085        1.74667124693417        3.76136860781907
C            0.89195561278052        1.61558739170006        4.83448924660348
C           -0.29347185573066        2.26424125613056        4.44301017266684
N           -0.18595365125213        2.75781281759604        3.22856673416263
H           -0.56463446922622       -0.54574164941582        0.69936093558215
H           -0.73377933464576        0.62943530025628        2.00654718258698
H            0.86544317631606        0.05480696954396        1.53483157812126
H           -1.65102703242561       -0.23662687555509       -1.10384392346340
H           -2.11256999070012        1.01283810625928       -2.26490110583080
H           -1.00586124406860       -0.58319389867335       -3.58370145919039
H            0.18427431556046        0.70451685896704       -3.38588889416497
H           -0.61758127797880        3.09527272916595       -2.49528023945788
H            0.94093663617417        4.40275894606097       -0.68172487227724
H            2.52846202937294        2.48601539349374        1.37940669568462
H            1.61711918246331        4.01477251401629        1.58555107700492
H            2.73841603719716        1.41589529576073        3.59582573529890
H            1.09176638282013        1.13522924616928        5.76880126055609
H           -1.20259408472530        2.38223775106294        4.99749471919546
41
 energy: -91.012924510973 gnorm: 0.005143059559 xtb: 6.7.1 (edcfbbe)
C           -0.09715254265915        0.33136260193464        1.16266880152973
C            0.01256756807788        1.45698918526527        0.21911278065932
N           -0.55313023026552        1.54991117554708       -0.99522559583760
C           -1.25421494863553        0.53577849591646       -1.75473412425815
C           -0.36945949571294       -0.07896193890222       -2.85208036854207
C            0.61790267960771       -1.15050394543118       -2.35982204267695
F            0.16566367218733       -1.72751302177195       -1.22112804427840
F            0.72154091191410       -2.13761852753263       -3.26709210045411
C            2.06271547928302       -0.60707065560981       -2.10524590753785
F            2.55262351705688       -0.12832314690375       -3.25754841187638
F            1.98992999900926        0.46214647807938       -1.26306024002023
C            3.04755410659156       -1.64210933302392       -1.48822302273793
F            2.49469200073071       -2.17413033692929       -0.37881393287314
F            3.27633284511137       -2.62967605353642       -2.35572482220675
C            4.40041939772782       -0.99651438442617       -1.04924975105884
F            4.97241866975685       -0.32212956905157       -2.03383331410111
F            4.17148411954622       -0.13796318005172       -0.04573168073234
F            5.23110203011909       -1.92278866490064       -0.61539160455546
C           -0.24091929369721        2.76947751484943       -1.53422355958026
C            0.52880302724507        3.42182241461044       -0.63355044482168
N            0.68664617101121        2.59415654637558        0.44305904658279
C            1.54543000276246        2.93056030101113        1.57291826214152
N            1.04711537350630        2.45118483033230        2.81829424721154
C            1.71619408148645        1.75172184636830        3.77254546205898
C            0.85829517762063        1.61316950681010        4.83182988593833
C           -0.31927740562506        2.26713728852583        4.42784031249465
N           -0.19275446248155        2.76838653934982        3.21861051021630
H           -0.55700870330490       -0.54040216705286        0.71053995509813
H           -0.70092197899234        0.63209528644862        2.02098427461561
H            0.88683701767511        0.04432731913347        1.53135935109489
H           -1.63483344153982       -0.23730787541825       -1.08614353395917
H           -2.10841069011639        1.01262261642013       -2.24203001420808
H           -1.01476078636318       -0.58252247976322       -3.57505414642782
H            0.18318765796764        0.69829901377986       -3.38192360919183
H           -0.60051588713316        3.08328985959907       -2.49285465919985
H            0.96992702769937        4.39518944640780       -0.68392981662269
H            2.54341787034828        2.50582849647824        1.40269078718134
H            1.61560507672318        4.02664616551065        1.59008025724335
H            2.72523020901162        1.42450948476155        3.62421880382164
H            1.04208472968821        1.12333117172726        5.76450197466600
H           -1.23669055294091        2.38250169506449        4.96853003520056
41
 energy: -91.013110951121 gnorm: 0.005139035340 xtb: 6.7.1 (edcfbbe)
C           -0.07654440022118        0.33197549464154        1.16891036811742
C            0.03366557221731        1.45676955658966        0.22498080205923
N           -0.53322280057852        1.54872498415964       -0.98859691685055
C           -1.24477917355408        0.53788158194477       -1.74256310204349
C           -0.37432176576095       -0.08436238609527       -2.84717195965803
C            0.61064169273372       -1.15973123392119       -2.35853695369270