20
 energy: -28.775033911773 gnorm: 0.000614952514 xtb: 6.7.1 (edcfbbe)
C            0.97041977606194        0.07744632296336        0.23698275935051
C            0.21707404366973        0.93793435669997        0.89282149307489
C           -1.29044803518343        0.93742394474083        0.83151389566779
N           -1.84330387800052        0.73345130177090        2.16569964744514
C           -1.86122795095450       -0.49924652701989        2.67420359041527
C           -2.32366169813574       -0.72565400468962        3.95909336354371
C           -2.76609293136513        0.33231766240548        4.72537794807469
C           -2.73652179757938        1.62902567346340        4.18494745101947
C           -2.25836174415130        1.78248065796927        2.88296569599204
O           -3.16249098033489        2.63466992541486        4.93122617694728
H            0.55224373690359       -0.68983823531085       -0.39365384248503
H            2.04380971400063        0.12033380841441        0.28558221827356
H            0.65250883050152        1.70913671610790        1.51226366545142
H           -1.64821035579948        1.89279601976164        0.44044916762334
H           -1.63604698180857        0.13651482492639        0.17516827734498
H           -1.50044025879839       -1.29962465076239        2.04728105587788
H           -2.33489406452905       -1.72997378399688        4.35027969646399
H           -3.13562036657455        0.19762888198932        5.72953203752109
H           -2.21365084323699        2.75611064919808        2.41409024009848
H           -3.11907421468545        3.49997645595384        4.50028546229956
