24
 energy: -36.037552571479 gnorm: 0.067185241861 xtb: 6.7.1 (edcfbbe)
C            0.63073000000000       -0.03393000000000       -0.13559000000000
C            0.93347000000000        1.41311000000000       -0.48228000000000
O            1.36596000000000        1.53269000000000       -1.84922000000000
C            2.65176000000000        1.20285000000000       -2.09003000000000
O            3.48169000000000        0.79727000000000       -1.29476000000000
C            2.95447000000000        1.31789000000000       -3.52766000000000
C            2.21705000000000        2.10120000000000       -4.41272000000000
C            2.59130000000000        2.14379000000000       -5.75276000000000
C            3.68754000000000        1.40208000000000       -6.18556000000000
N            4.39417000000000        0.64946000000000       -5.31095000000000
C            4.05112000000000        0.60114000000000       -4.00102000000000
C            5.54002000000000       -0.15179000000000       -5.77736000000000
H           -0.07487000000000       -0.46462000000000       -0.85328000000000
H            0.20646000000000       -0.11009000000000        0.86957000000000
H            1.53650000000000       -0.64724000000000       -0.17327000000000
H            0.02070000000000        2.01022000000000       -0.38657000000000
H            1.67812000000000        1.84393000000000        0.19669000000000
H            1.36110000000000        2.68219000000000       -4.07080000000000
H            2.02842000000000        2.75258000000000       -6.45854000000000
H            4.00305000000000        1.40484000000000       -7.22554000000000
H            4.65985000000000       -0.02442000000000       -3.35192000000000
H            6.37743000000000        0.01728000000000       -5.09538000000000
H            5.23144000000000       -1.20047000000000       -5.76836000000000
H            5.82073000000000        0.15436000000000       -6.78771000000000
24
 energy: -36.041866844648 gnorm: 0.026785199361 xtb: 6.7.1 (edcfbbe)
C            0.63078776008419       -0.04115441586147       -0.13398643966064
C            0.93156975834269        1.40829038127221       -0.47379685517826
O            1.38087119312405        1.53649349386244       -1.83205041557658
C            2.63977456702676        1.18344980161760       -2.08419857630727
O            3.45938587616188        0.80239384785222       -1.28986974332879
C            2.95702497844830        1.31537254565432       -3.53791608971778
C            2.21913832394075        2.10031169525341       -4.42011029068371
C            2.59741076202069        2.14184235951418       -5.75520214243732
C            3.68804743723337        1.40411827049355       -6.17929517110777
N            4.39034693314545        0.65740865419247       -5.31415452646193
C            4.04870497184744        0.60808946635336       -4.01833734393243
C            5.52545689109020       -0.13958946894890       -5.77176916428887
H           -0.08321351991538       -0.45593419318568       -0.84543001373188
H            0.20673615521469       -0.10232455392836        0.86461508738503
H            1.53896511752616       -0.64341334999919       -0.16123567951082
H            0.02757032342866        2.02082337599401       -0.40867872637887
H            1.69425371615593        1.81849196585131        0.19584704511057
H            1.36640862917605        2.66768276939787       -4.07135284573013
H            2.04410426073773        2.74316981717899       -6.46291709285504
H            4.00452579079835        1.40543147201392       -7.21320059367744
H            4.65193381897274       -0.00713305043488       -3.36195622726484
H            6.37059789996376        0.00876276770966       -5.10086931708635
H            5.24624876315699       -1.19363601235547       -5.77056990459783
H            5.81155959231854        0.15537236050244       -6.77858497298105
24
 energy: -36.042590451668 gnorm: 0.009654956961 xtb: 6.7.1 (edcfbbe)
C            0.62603376778940       -0.04449608590959       -0.13036856145903
C            0.93490789893636        1.40455012811124       -0.46802206304239
O            1.39566731027436        1.54249368222214       -1.82337258259773
C            2.63960034023393        1.18802905931348       -2.07706406577915
O            3.45070217630505        0.79170884303315       -1.28896826845330
C            2.95490318264205        1.31090529853047       -3.54743281962767
C            2.21540555340845        2.09704666775415       -4.42764377024343
C            2.60079555288191        2.14111995818054       -5.76001363520108
C            3.69045791498496        1.40421527542070       -6.17830306989396
N            4.38990265102308        0.65860269182651       -5.31774330583036
C            4.04496660028564        0.60793900753248       -4.02991199995624
C            5.51773563085118       -0.12987871357449       -5.76972308681113
H           -0.09044573870445       -0.45337497595991       -0.83857078731506
H            0.20158780506641       -0.09597113423680        0.86625217985236
H            1.53447704840700       -0.64095200516543       -0.15132612900040
H            0.03697308830995        2.02385385374347       -0.42181004363886
H            1.70266507772576        1.80160888404245        0.20284155428938
H            1.36560658322757        2.65749607349979       -4.07142509310007
H            2.05567111640147        2.74005796451931       -6.47106852900916
H            4.00907432296272        1.40651767503912       -7.20969167929070
H            4.64380917086569        0.00330668205290       -3.36188000711350
H            6.36586998360438        0.00785900566765       -5.10101185479751
H            5.25382777465278       -1.18838503060955       -5.77275354250725
H            5.80801518786437        0.16006719496621       -6.77600883947372
24
 energy: -36.042693664881 gnorm: 0.004302726526 xtb: 6.7.1 (edcfbbe)
C            0.62144633536528       -0.04162386261144       -0.12724793466093
C            0.93694780762046        1.40669783852806       -0.46444249225618
O            1.39893100934184        1.54104764944376       -1.82186057786782
C            2.63634493636664        1.17528287491243       -2.07742682689968
O            3.45172258278529        0.77772441424828       -1.29213494923124
C            2.95429620539038        1.30820470265056       -3.55090139018486
C            2.21249744251231        2.09444671904092       -4.42964683511910
C            2.60015811130380        2.14082143293104       -5.76179942194178
C            3.69200659979608        1.40569259868987       -6.17954099736929
N            4.39276626786371        0.65912133689415       -5.32002476226649
C            4.04695943692562        0.60901142167319       -4.03241006556339
C            5.51925632695047       -0.12594430688736       -5.77163816252209
H           -0.09684531591129       -0.44913497344438       -0.83411923113459
H            0.19702087379553       -0.08908175266051        0.87003092556986
H            1.52712038265298       -0.64192100169574       -0.14718405713874
H            0.04301565206212        2.03024526496273       -0.42042781273411
H            1.70672942505839        1.79771832771617        0.20732772530382
H            1.36038393425621        2.65000136700672       -4.07096263923123
H            2.05748499763135        2.74067906757027       -6.47435227425653
H            4.01186859870032        1.41122829999115       -7.21097135701231
H            4.64189412826850        0.00531819764007       -3.35951211874670
H            6.36761631516026        0.01079097157782       -5.10208214958622
H            5.25778850138681       -1.18580450654443       -5.77543461975853
H            5.81079944471697        0.16379791836665       -6.77825797539184
24
 energy: -36.042763720867 gnorm: 0.002566472755 xtb: 6.7.1 (edcfbbe)
C            0.61455233270523       -0.03702980793588       -0.12267385169102
C            0.94073729938447        1.40939918033942       -0.45919652448691
O            1.40355731632551        1.54171320064443       -1.81914395489274
C            2.63470305177658        1.16524011065344       -2.07828076326978
O            3.45309835208154        0.75235677145001       -1.30183341456353
C            2.95134021291743        1.30293138079004       -3.55520372543530
C            2.20731227942832        2.08904385837817       -4.43224938537277
C            2.59890860949330        2.14005779435958       -5.76342806982980
C            3.69423194032027        1.40849439965928       -6.18070861833708
N            4.39650752715087        0.65980226625453       -5.32244239391652
C            4.04753933300252        0.60776905518765       -4.03488851370967
C            5.52366515523763       -0.12105692723587       -5.77437444369567
H           -0.10695204058088       -0.44060807325289       -0.82879251688271
H            0.18999049154021       -0.08070182406282        0.87542704582373
H            1.51552450002683       -0.64475579712358       -0.14267345087765
H            0.05214835319887        2.03919229688949       -0.41489636823335
H            1.71322039662580        1.79342991940394        0.21295378214227
H            1.35231394531139        2.63976339765546       -4.07183275588450
H            2.05796258723473        2.74035325913526       -6.47781592341725
H            4.01527589967649        1.41818068172337       -7.21233301377132
H            4.64009557475199        0.00716584898164       -3.35636422646546
H            6.37161945289219        0.01541702343912       -5.10327010826053
H            5.26419731031161       -1.18208463912549       -5.78025354038785
H            5.81666011918713        0.17024662379169       -6.78074526458455
24
 energy: -36.042806039128 gnorm: 0.003604565483 xtb: 6.7.1 (edcfbbe)
C            0.60767158653012       -0.03173053072946       -0.11884406395750
C            0.94568958377380        1.41207148191816       -0.45424580243661
O            1.40724292798886        1.54258348066136       -1.81623459103605
C            2.63272774870636        1.15405486551981       -2.08032061099152
O            3.45193794886086        0.72657220417394       -1.31209267017727
C            2.94833716483521        1.29705022890400       -3.55819320842594
C            2.20257414727993        2.08249967687090       -4.43405732980428
C            2.59732670571576        2.13827107393366       -5.76412547798107
C            3.69580438721053        1.41105995305315       -6.18120451585477
N            4.39944340973504        0.66141819742167       -5.32397974063881
C            4.04801480563905        0.60632679038752       -4.03674166311403
C            5.52886295998858       -0.11612342101517       -5.77656995429746
H           -0.11789251324025       -0.42914957026306       -0.82469517734720
H            0.18357656550417       -0.07308601390091        0.87981355688675
H            1.50330661540838       -0.64774446517778       -0.14047709333719
H            0.06251592839803        2.04925732340004       -0.40735355139329
H            1.72233949745189        1.78949168116086        0.21667824377277
H            1.34477953690469        2.62928058573848       -4.07371306861777
H            2.05687130674988        2.73874517619895       -6.47915725680692
H            4.01833052025108        1.42489586965765       -7.21252716767855
H            4.63968784891524        0.00728463484623       -3.35590979042038
H            6.37591563664369        0.02105777315691       -5.10422637886895
H            5.27093174244997       -1.17765268174622       -5.78466199129460
H            5.82221393829914        0.17788568582927       -6.78218069617928
24
 energy: -36.042856218963 gnorm: 0.003556357592 xtb: 6.7.1 (edcfbbe)
C            0.59969720875797       -0.02500764880568       -0.11562804376246
C            0.95296711402252        1.41529606196939       -0.44850382070454
O            1.41148500992504        1.54487917646150       -1.81229390673486
C            2.63020972724293        1.14072726516182       -2.08311105370638
O            3.44740148404838        0.69505155146934       -1.32317612832287
C            2.94463189161540        1.28949657171274       -3.56074635331776
C            2.19714325440261        2.07370268300355       -4.43582767233632
C            2.59507191392859        2.13519898390525       -5.76463186904281
C            3.69727379467202        1.41381201244688       -6.18150168903070
N            4.40207341811631        0.66400280869476       -5.32518535695572
C            4.04819175292781        0.60428382931063       -4.03875791304301
C            5.53516587962688       -0.10974860518563       -5.77838639660327
H           -0.13160531413784       -0.41262693327857       -0.82140180203253
H            0.17679638994238       -0.06455992569464        0.88356705166827
H            1.48824698017809       -0.65158382232158       -0.14057138225876
H            0.07690198836631        2.06251108430332       -0.39664041769584
H            1.73599533996161        1.78357785786113        0.22020175039896
H            1.33597379194041        2.61608008421352       -4.07676783915354
H            2.05406097020659        2.73542845274747       -6.47952427988854
H            4.02187396035547        1.43227661252627       -7.21207228699882
H            4.64022964616457        0.00624396293671       -3.35750743017008
H            6.38067268446876        0.02880652952528       -5.10459546200921
H            5.27929386671066       -1.17154873029037       -5.78917776144165
H            5.82845724655659        0.18802013732685       -6.78277993685749
24
 energy: -36.042926536112 gnorm: 0.003217716177 xtb: 6.7.1 (edcfbbe)
C            0.58839329551822       -0.01503474252276       -0.11253388868223
C            0.96463423106455        1.42012169525840       -0.44073476750879
O            1.41765644729007        1.54933422577699       -1.80642698049770
C            2.62630923385582        1.12141430521648       -2.08710252794620
O            3.43724846782877        0.65010381157139       -1.33610907870583
C            2.93970874954942        1.27815894531401       -3.56350466491731
C            2.18979695757825        2.06034125945572       -4.43791094711538
C            2.59131082633725        2.12981970321457       -5.76523826131430
C            3.69893956026607        1.41725432997305       -6.18200157786944
N            4.40505063368623        0.66792115435912       -5.32672607956137
C            4.04827844850329        0.60084924577016       -4.04182165253975
C            5.54388891014308       -0.09969234218183       -5.78035074691301
H           -0.15191740684009       -0.38678317528557       -0.81787813062227
H            0.16807546407282       -0.05221070743878        0.88762982413842
H            1.46613472745823       -0.65693652775408       -0.14333628438948
H            0.09973408896012        2.08260005327843       -0.38037058826530
H            1.75794514514806        1.77312995907429        0.22462443265297
H            1.32389509355624        2.59641557627108       -4.08092799244585
H            2.04850028830934        2.72954787162188       -6.47898724443819
H            4.02681470444028        1.44222240680059       -7.21123178957903
H            4.64174940988482        0.00309983499581       -3.36182165445479
H            6.38679610350845        0.04105332722560       -5.10425201228206
H            5.29203379816498       -1.16202999930206       -5.79520178719925
H            5.83723282171581        0.20361978930748       -6.78280559954375
24
 energy: -36.043011691103 gnorm: 0.003397507840 xtb: 6.7.1 (edcfbbe)
C            0.57261623683793       -0.00101402207571       -0.10940522821026
C            0.98130710037612        1.42685526130054       -0.43101687223985
O            1.42666062932430        1.55574343551161       -1.79870854364231
C            2.62099861923724        1.09508822088287       -2.09220534098755
O            3.42041555483279        0.59053529556268       -1.35014903228637
C            2.93404481209102        1.26209394765432       -3.56662323984490
C            2.18050205509092        2.04169374454675       -4.43999827705925
C            2.58557535839854        2.12164490982254       -5.76577782223144
C            3.70064036910508        1.42132522016861       -6.18289079994929
N            4.40875790275159        0.67282501183243       -5.32914508924855
C            4.04866893580129        0.59528192217200       -4.04637460038815
C            5.55539421523906       -0.08481466590989       -5.78305203865708
H           -0.18039215804670       -0.35015164656459       -0.81333887814512
H            0.15667199560358       -0.03430782479678        0.89251883139243
H            1.43485338116374       -0.66370690897555       -0.14886149135179
H            0.13282643419126        2.11036891520535       -0.35866899987262
H            1.78876357951688        1.75660892087459        0.23025353878735
H            1.30864444072963        2.56907920048180       -4.08475836775669
H            2.03940919711677        2.72064426148530       -6.47726491346434
H            4.03280739286232        1.45528104956496       -7.21032506256028
H            4.64428296850392       -0.00321219341621       -3.36903744585034
H            6.39465047620616        0.05881603631870       -5.10345519031762
H            5.31073933254862       -1.14847318908869       -5.80396552349718
H            5.84937117051803        0.22611509744229       -6.78276961261867
24
 energy: -36.043095833003 gnorm: 0.003607451402 xtb: 6.7.1 (edcfbbe)
C            0.55351084616993        0.01586357252704       -0.10615838293461
C            1.00076994082326        1.43425632386658       -0.42123359114672
O            1.43805540031667        1.56164309845212       -1.79071054775579
C            2.61537770461600        1.06499031289764       -2.09763409035981
O            3.39932257144116        0.52603256603526       -1.36314423622627
C            2.92908231505133        1.24258867928665       -3.56963953233656
C            2.17085618869839        2.01983379211930       -4.44112875951690
C            2.57843517200458        2.11150046258101       -5.76552477215747
C            3.70180190444576        1.42533038721024       -6.18380948020650
N            4.41307625340909        0.67761141124123       -5.33241644044714
C            4.04983896513409        0.58751774337137       -4.05187376051607
C            5.56844413975339       -0.06656471893399       -5.78697285251393
H           -0.21399564973216       -0.30670970558095       -0.80742316254277
H            0.14328617662618       -0.01177775505617        0.89821040107044
H            1.39673510673148       -0.67059060528997       -0.15577305591226
H            0.17253074216807        2.14157088652185       -0.33581566437375
H            1.82335516638143        1.73556789989541        0.23586059859639
H            1.29315683339366        2.53736959453831       -4.08596421950822
H            2.02766549460362        2.70973318845935       -6.47387734081972
H            4.03814288282541        1.46999236561803       -7.20940004019872
H            4.64779860303694       -0.01284910240776       -3.37818276666976
H            6.40364874033244        0.08005563326289       -5.10315134212579
H            5.33383804778784       -1.13232681301506       -5.81586695983805
H            5.86347645398157        0.25368078239954       -6.78339000155988
24
 energy: -36.043170646236 gnorm: 0.003303377327 xtb: 6.7.1 (edcfbbe)
C            0.53215817676304        0.03466237051652       -0.10257170847900
C            1.02084461690440        1.44119905396817       -0.41271760998414
O            1.45143784389243        1.56510774420784       -1.78354616900126
C            2.61058770249130        1.03378312639711       -2.10259969024462
O            3.37713509035256        0.46291031941364       -1.37423777824702
C            2.92566779950355        1.22081259265780       -3.57226758568923
C            2.16219297905527        1.99681279113197       -4.44060890990312
C            2.57054161460775        2.10025978379871       -5.76392503542942
C            3.70192913088771        1.42864408309975       -6.18431397354728
N            4.41773400071921        0.68143679629401       -5.33634031234001
C            4.05188140588241        0.57755742003696       -4.05778783395315
C            5.58213455018449       -0.04631107918218       -5.79243214376508
H           -0.24991669879281       -0.25983617297007       -0.79988439231540
H            0.12843486820496        0.01445353835940        0.90463195815927
H            1.35388275277240       -0.67650095432675       -0.16232353726626
H            0.21532988341722        2.17276368039040       -0.31561568593950
H            1.85719414911371        1.71175037237149        0.24047707887179
H            1.27955563052329        2.50418454663467       -4.08322144043078
H            2.01442229525702        2.69767806640932       -6.46871372488236
H            4.04139272292548        1.48487620536880       -7.20829459264098
H            4.65237561308882       -0.02523365233464       -3.38828864675523
H            6.41334554739063        0.10305669728789       -5.10418081860506
H            5.35984143307330       -1.11467678668269       -5.83115736038454
H            5.87810689178201        0.28492945715177       -6.78510008722744
24
 energy: -36.043227539923 gnorm: 0.002906312961 xtb: 6.7.1 (edcfbbe)
C            0.51023484891536        0.05406369775624       -0.09886590728772
C            1.03936923774230        1.44706831059415       -0.40574858564158
O            1.46578091809363        1.56604262749396       -1.77761594444066
C            2.60724206283349        1.00355550217290       -2.10652915671577
O            3.35746678038648        0.40419855220433       -1.38405045270442
C            2.92381890140750        1.19870805963329       -3.57451224102967
C            2.15509702383320        1.97488337823945       -4.43851861211422
C            2.56254056368251        2.08890759409090       -5.76112314810505
C            3.70082425442020        1.43069915922522       -6.18422761599051
N            4.42236437038474        0.68392649657460       -5.34045953759151
C            4.05461274085187        0.56645622008322       -4.06344186239200
C            5.59563606097234       -0.02585063967321       -5.79901675689549
H           -0.28515637623453       -0.21329293818768       -0.79143421613599
H            0.11329634182212        0.04207128186886        0.91125654649907
H            1.30959003079775       -0.68088466352449       -0.16757325337328
H            0.25725917272637        2.20160639528108       -0.29990526192640
H            1.88687342963252        1.68733020569159        0.24424202440198
H            1.26896480133103        2.47296129881412       -4.07690215043405
H            2.00119858046073        2.68539381000133       -6.46265070755359
H            4.04173949503354        1.49794096233078       -7.20708002827982
H            4.65781008951387       -0.03834521143049       -3.39793475447878
H            6.42318891132432        0.12615839088252       -5.10663929234990
H            5.38666665113151       -1.09677926580348       -5.84855002473207
H            5.89179110893737        0.31750077568068       -6.78773906072834
24
 energy: -36.043266435277 gnorm: 0.002401003334 xtb: 6.7.1 (edcfbbe)
C            0.48981056914814        0.07176019216530       -0.09553840237374
C            1.05473141215159        1.45087040503477       -0.40040081782094
O            1.47911276545289        1.56378419427958       -1.77330080840412
C            2.60560170269664        0.97736181464288       -2.10917428593014
O            3.34354358069089        0.35784286779557       -1.39231506104268
C            2.92328952406268        1.17880815993594       -3.57617518005279
C            2.14981479693771        1.95596756609890       -4.43543688650877
C            2.55536817394170        2.07859974353640       -5.75764607778292
C            3.69877407384171        1.43122187895033       -6.18365586722887
N            4.42640404949326        0.68517478702177       -5.34410776604123
C            4.05786043232302        0.55609553426485       -4.06803977555239
C            5.60757548869381       -0.00775468617684       -5.80575456294315
H           -0.31687582429111       -0.17139972803993       -0.78336609018752
H            0.09949246162019        0.06725200294637        0.91732818269907
H            1.26807688812386       -0.68412274542498       -0.17188399554591
H            0.29437404032834        2.22551761757024       -0.28894649140914
H            1.91042444655486        1.66464608040895        0.24705467226551
H            1.26211031992286        2.44730723540216       -4.06873244681979
H            1.98977471821811        2.67432652046404       -6.45654741069207
H            4.03942109754092        1.50735586865809       -7.20597959407006
H            4.66380618563362       -0.04999777637035       -3.40606471222973
H            6.43205883624070        0.14677727814235       -5.11004289837695
H            5.41086794075682       -1.08054413676843       -5.86556474201280
H            5.90279231991704        0.34746932546189       -6.79072898193863
24
 energy: -36.043264977658 gnorm: 0.006630405151 xtb: 6.7.1 (edcfbbe)
C            0.46200762591147        0.09557514767961       -0.09164041207834
C            1.07628360427302        1.45628576282383       -0.39110532612164
O            1.49732393617195        1.56358204625312       -1.76594928221345
C            2.60361541365297        0.94212305992165       -2.11256079492791
O            3.32633773929132        0.28751213819175       -1.40654846569076
C            2.92163920275331        1.15368734358726       -3.57891513249127
C            2.14195681724344        1.93130809619002       -4.43244143983866
C            2.54548257542326        2.06456067042701       -5.75412088402830
C            3.69603438078541        1.43158993859842       -6.18338384781506
N            4.43164229406373        0.68754409651486       -5.34870802167789
C            4.06178651927198        0.54390697440151       -4.07405731125983
C            5.62402492062316        0.01641838751392       -5.81383176815196
H           -0.36072915567638       -0.11343861556974       -0.77376887900156
H            0.08076096727133        0.09943881722689        0.92484703197341
H            1.21144725201148       -0.68981136485543       -0.17941658729569
H            0.34561552027077        2.25956632195166       -0.27059846133360
H            1.94452548724986        1.63325948566313        0.25305697981307
H            1.25056881616489        2.41262359993684       -4.06067879277618
H            1.97429585964424        2.65833094389026       -6.45030820392779
H            4.03660527873834        1.51877539367627       -7.20501167513915
H            4.67181194590255       -0.06231490669327       -3.41585081378005
H            6.44407385541196        0.17531768127412       -5.11367099461416
H            5.44339372493796       -1.05859118613429       -5.88651375385892
H            5.91770541860830        0.38707016753043       -6.79384316376403
24
 energy: -36.043300891934 gnorm: 0.002000666338 xtb: 6.7.1 (edcfbbe)
C            0.45915117951903        0.09744899739002       -0.09143211625034
C            1.07549726729519        1.45316541816518       -0.39256257584705
O            1.49904428368650        1.55724428836678       -1.76745744768474
C            2.60649716602652        0.94318392827994       -2.11085078262932
O            3.33169200606038        0.29676161929478       -1.40487902647490
C            2.92404296622126        1.15282397143797       -3.57803361508030
C            2.14409863063145        1.93154843527441       -4.43013776642728
C            2.54518161314849        2.06355715606509       -5.75234513652710
C            3.69408760692285        1.42926236152205       -6.18272859520667
N            4.43133355673359        0.68611237487273       -5.34884730130131
C            4.06336772765162        0.54273977900376       -4.07363248753688
C            5.62399117488230        0.01711414782250       -5.81554866042883
H           -0.36221878205427       -0.10964638282809       -0.77251144590821
H            0.07898375475026        0.10163122034551        0.92522297128381
H            1.20499199581288       -0.68780808419644       -0.17921992661599
H            0.34794675345546        2.25619653222554       -0.27521633502566
H            1.94049853862171        1.62957603686756        0.25195909820091
H            1.25471881259931        2.41466362015896       -4.05647809377965
H            1.97398486430038        2.65723915394287       -6.44852341533494
H            4.03208373241008        1.51518785437339       -7.20508562713958
H            4.67448165370612       -0.06290338193055       -3.41611428032355
H            6.44409451044971        0.17614040523743       -5.11568249281259
H            5.44475542469999       -1.05719808210505       -5.89014851449676
H            5.91590356246947        0.39027863041346       -6.79476642665279
24
 energy: -36.043308465119 gnorm: 0.003192546098 xtb: 6.7.1 (edcfbbe)
C            0.44703739172128        0.10557260926622       -0.09052130876456
C            1.08510611273554        1.45348762437455       -0.38742417108298
O            1.50511478864093        1.55501263949485       -1.76379589130391
C            2.60664388469919        0.93123653025447       -2.11208725645986
O            3.32944248755474        0.27948154440639       -1.41025184638746
C            2.92319908261118        1.14453645812028       -3.57891469129505
C            2.14019404298169        1.92133428834211       -4.42986141037527
C            2.54129884847543        2.05774411164494       -5.75183340045114
C            3.69340842159814        1.42929725724823       -6.18327733969971