      -----------------------------------------------------------      
     |                   =====================                   |     
     |                           x T B                           |     
     |                   =====================                   |     
     |                         S. Grimme                         |     
     |          Mulliken Center for Theoretical Chemistry        |     
     |                    University of Bonn                     |     
      -----------------------------------------------------------      

   * xtb version 6.7.1 (edcfbbe) compiled by 'conda@3ef47c1a292c' on 2024-11-25

   xtb is free software: you can redistribute it and/or modify it under
   the terms of the GNU Lesser General Public License as published by
   the Free Software Foundation, either version 3 of the License, or
   (at your option) any later version.
   
   xtb is distributed in the hope that it will be useful,
   but WITHOUT ANY WARRANTY; without even the implied warranty of
   MERCHANTABILITY or FITNESS FOR A PARTICULAR PURPOSE.  See the
   GNU Lesser General Public License for more details.
   
   Cite this work as:
   * C. Bannwarth, E. Caldeweyher, S. Ehlert, A. Hansen, P. Pracht,
     J. Seibert, S. Spicher, S. Grimme, WIREs Comput. Mol. Sci., 2020, 11,
     e01493. DOI: 10.1002/wcms.1493
   
   for GFN2-xTB:
   * C. Bannwarth, S. Ehlert and S. Grimme., J. Chem. Theory Comput., 2019,
     15, 1652-1671. DOI: 10.1021/acs.jctc.8b01176
   for GFN1-xTB:
   * S. Grimme, C. Bannwarth, P. Shushkov, J. Chem. Theory Comput., 2017,
     13, 1989-2009. DOI: 10.1021/acs.jctc.7b00118
   for GFN0-xTB:
   * P. Pracht, E. Caldeweyher, S. Ehlert, S. Grimme, ChemRxiv, 2019, preprint.
     DOI: 10.26434/chemrxiv.8326202.v1
   for GFN-FF:
   * S. Spicher and S. Grimme, Angew. Chem. Int. Ed., 2020, 59, 15665-15673.
     DOI: 10.1002/anie.202004239
   
   for ALPB and GBSA implicit solvation:
   * S. Ehlert, M. Stahn, S. Spicher, S. Grimme, J. Chem. Theory Comput.,
     2021, 17, 4250-4261. DOI: 10.1021/acs.jctc.1c00471
   
   for ddCOSMO and CPCM-X implicit solvation:
   * M. Stahn, S. Ehlert, S. Grimme, J. Phys. Chem. A,
     2023, XX, XXXX-XXXX. DOI: 10.1021/acs.jpca.3c04382
   
   for DFT-D4:
   * E. Caldeweyher, C. Bannwarth and S. Grimme, J. Chem. Phys., 2017,
     147, 034112. DOI: 10.1063/1.4993215
   * E. Caldeweyher, S. Ehlert, A. Hansen, H. Neugebauer, S. Spicher,
     C. Bannwarth and S. Grimme, J. Chem. Phys., 2019, 150, 154122.
     DOI: 10.1063/1.5090222
   * E. Caldeweyher, J.-M. Mewes, S. Ehlert and S. Grimme, Phys. Chem. Chem. Phys.
     2020, 22, 8499-8512. DOI: 10.1039/D0CP00502A
   
   for sTDA-xTB:
   * S. Grimme and C. Bannwarth, J. Chem. Phys., 2016, 145, 054103.
     DOI: 10.1063/1.4959605
   
   in the mass-spec context:
   * V. Asgeirsson, C. Bauer and S. Grimme, Chem. Sci., 2017, 8, 4879.
     DOI: 10.1039/c7sc00601b
   * J. Koopman and S. Grimme, ACS Omega 2019, 4, 12, 15120-15133.
     DOI: 10.1021/acsomega.9b02011
   
   for metadynamics refer to:
   * S. Grimme, J. Chem. Theory Comput., 2019, 155, 2847-2862
     DOI: 10.1021/acs.jctc.9b00143
   
   for SPH calculations refer to:
   * S. Spicher and S. Grimme, J. Chem. Theory Comput., 2021, 17, 1701-1714
     DOI: 10.1021/acs.jctc.0c01306
   
   for ONIOM refer to:
   * C. Plett, A. Katbashev, S. Ehlert, S. Grimme, M. Bursch,
     Phys. Chem. Chem. Phys., 2023, 25, 17860-17868. DOI: 10.1039/D3CP02178E
   
   for DIPRO refer to:
   * J. Kohn, N. Gildemeister, S. Grimme, D. Fazzi, A. Hansen,
     J. Chem. Phys., 2023, just accepted.
   
   for PTB refer to:
   * S. Grimme, M. Mueller, A. Hansen, J. Chem. Phys., 2023, 158, 124111.
     DOI: 10.1063/5.0137838
   
   with help from (in alphabetical order)
   P. Atkinson, C. Bannwarth, F. Bohle, G. Brandenburg, E. Caldeweyher
   M. Checinski, S. Dohm, S. Ehlert, S. Ehrlich, I. Gerasimov, C. Hölzer
   A. Katbashev, J. Kohn, J. Koopman, C. Lavigne, S. Lehtola, F. März, M. Müller,
   F. Musil, H. Neugebauer, J. Pisarek, C. Plett, P. Pracht, F. Pultar,
   J. Seibert, P. Shushkov, S. Spicher, M. Stahn, M. Steiner, T. Strunk,
   J. Stückrath, T. Rose, and J. Unsleber
   
 * started run on 2024/12/20 at 06:57:14.511     
   ID    Z sym.   atoms
    1    6 C      1, 2, 4-15
    2    7 N      3
    3    1 H      16-47

           -------------------------------------------------
          |                Calculation Setup                |
           -------------------------------------------------

          program call               : xtb C0771.xyz --opt --namespace C0771 --charge +1
          calculation namespace      : C0771
          coordinate file            : C0771.xyz
          omp threads                :                     8


           -------------------------------------------------
          |                 G F N 2 - x T B                 |
           -------------------------------------------------

        Reference                      10.1021/acs.jctc.8b01176
      * Hamiltonian:
        H0-scaling (s, p, d)           1.850000    2.230000    2.230000
        zeta-weighting                 0.500000
      * Dispersion:
        s8                             2.700000
        a1                             0.520000
        a2                             5.000000
        s9                             5.000000
      * Repulsion:
        kExp                           1.500000    1.000000
        rExp                           1.000000
      * Coulomb:
        alpha                          2.000000
        third order                    shell-resolved
        anisotropic                    true
        a3                             3.000000
        a5                             4.000000
        cn-shift                       1.200000
        cn-exp                         4.000000
        max-rad                        5.000000


          ...................................................
          :                      SETUP                      :
          :.................................................:
          :  # basis functions                  92          :
          :  # atomic orbitals                  92          :
          :  # shells                           62          :
          :  # electrons                        92          :
          :  max. iterations                   250          :
          :  Hamiltonian                  GFN2-xTB          :
          :  restarted?                      false          :
          :  GBSA solvation                  false          :
          :  PC potential                    false          :
          :  electronic temp.          300.0000000     K    :
          :  accuracy                    1.0000000          :
          :  -> integral cutoff          0.2500000E+02      :
          :  -> integral neglect         0.1000000E-07      :
          :  -> SCF convergence          0.1000000E-05 Eh   :
          :  -> wf. convergence          0.1000000E-03 e    :
          :  Broyden damping             0.4000000          :
          :  net charge                          1          :
          :  unpaired electrons                  0          :
          ...................................................

 iter      E             dE          RMSdq      gap      omega  full diag
   1    -49.3431750 -0.493432E+02  0.249E+00    8.85       0.0  T
   2    -49.4942411 -0.151066E+00  0.169E+00    6.38       1.0  T
   3    -49.4974810 -0.323990E-02  0.938E-01    6.09       1.0  T
   4    -49.4980798 -0.598813E-03  0.152E-01    5.52       1.0  T
   5    -49.4981610 -0.812163E-04  0.619E-02    5.51       1.0  T
   6    -49.4981611 -0.145386E-06  0.101E-02    5.53       1.4  T
   7    -49.4981629 -0.179636E-05  0.281E-03    5.53       5.2  T
   8    -49.4981630 -0.392477E-07  0.558E-04    5.53      26.2  T
   9    -49.4981630 -0.314343E-08  0.241E-04    5.53      60.6  T

   *** convergence criteria satisfied after 9 iterations ***

         #    Occupation            Energy/Eh            Energy/eV
      -------------------------------------------------------------
         1        2.0000           -0.8317269             -22.6324
       ...           ...                  ...                  ...
        40        2.0000           -0.5486784             -14.9303
        41        2.0000           -0.5354211             -14.5695
        42        2.0000           -0.5291357             -14.3985
        43        2.0000           -0.5243043             -14.2670
        44        2.0000           -0.5028983             -13.6846
        45        2.0000           -0.4998735             -13.6023
        46        2.0000           -0.4950965             -13.4723 (HOMO)
        47                         -0.2918918              -7.9428 (LUMO)
        48                         -0.2397869              -6.5249
        49                         -0.2006745              -5.4606
        50                         -0.1846538              -5.0247
        51                         -0.0741263              -2.0171
       ...                                ...                  ...
        92                          0.2204694               5.9993
      -------------------------------------------------------------
                  HL-Gap            0.2032047 Eh            5.5295 eV
             Fermi-level           -0.3934942 Eh          -10.7075 eV

 SCC (total)                   0 d,  0 h,  0 min,  0.029 sec
 SCC setup                      ...        0 min,  0.000 sec (  0.509%)
 Dispersion                     ...        0 min,  0.001 sec (  1.912%)
 classical contributions        ...        0 min,  0.000 sec (  0.253%)
 integral evaluation            ...        0 min,  0.002 sec (  6.546%)
 iterations                     ...        0 min,  0.015 sec ( 53.792%)
 molecular gradient             ...        0 min,  0.010 sec ( 36.182%)
 printout                       ...        0 min,  0.000 sec (  0.738%)

         :::::::::::::::::::::::::::::::::::::::::::::::::::::
         ::                     SUMMARY                     ::
         :::::::::::::::::::::::::::::::::::::::::::::::::::::
         :: total energy             -48.820786225372 Eh    ::
         :: gradient norm              0.056198640514 Eh/a0 ::
         :: HOMO-LUMO gap              5.529480214861 eV    ::
         ::.................................................::
         :: SCC energy               -49.497699097227 Eh    ::
         :: -> isotropic ES            0.077651686041 Eh    ::
         :: -> anisotropic ES         -0.000327586199 Eh    ::
         :: -> anisotropic XC          0.032190402041 Eh    ::
         :: -> dispersion             -0.037555913730 Eh    ::
         :: repulsion energy           0.676912871855 Eh    ::
         :: add. restraining           0.000000000000 Eh    ::
         :: total charge               1.000000000000 e     ::
         :::::::::::::::::::::::::::::::::::::::::::::::::::::

      ----------------------------------------------------------- 
     |                   =====================                   |
     |                        A N C O P T                        |
     |                   =====================                   |
     |               Approximate Normal Coordinate               |
     |                Rational Function Optimizer                |
      ----------------------------------------------------------- 
      ----------------------------------------------------------- 
     |                   =====================                   |
     |                        A N C O P T                        |
     |                   =====================                   |
     |               Approximate Normal Coordinate               |
     |                Rational Function Optimizer                |
      ----------------------------------------------------------- 

          ...................................................
          :                      SETUP                      :
          :.................................................:
          :   optimization level            normal          :
          :   max. optcycles                   200          :
          :   ANC micro-cycles                  20          :
          :   degrees of freedom               135          :
          :.................................................:
          :   RF solver                   davidson          :
          :   write xtbopt.log                true          :
          :   linear?                        false          :
          :   energy convergence         0.5000000E-05 Eh   :
          :   grad. convergence          0.1000000E-02 Eh/α :
          :   maxmium RF displ.          1.0000000          :
          :   Hlow (freq-cutoff)         0.1000000E-01      :
          :   Hmax (freq-cutoff)         5.0000000          :
          :   S6 in model hess.         20.0000000          :
          ...................................................

generating ANC from exact Hessian ...
Using Lindh-Hessian (1995)
 Shifting diagonal of input Hessian by    9.7890542335456448E-003
 Lowest  eigenvalues of input Hessian
    0.000000    0.000000    0.000000    0.000000    0.000000    0.000000
    0.010000    0.010053    0.010343    0.010778    0.011299    0.011381
    0.011616    0.012486    0.012809    0.012996    0.013807    0.014474
 Highest eigenvalues
    1.246759    1.262488    1.273400    1.277943    1.285743    1.289994


........................................................................
.............................. CYCLE    1 ..............................
........................................................................

 iter      E             dE          RMSdq      gap      omega  full diag
   1    -49.4981630 -0.494982E+02  0.563E-05    5.53       0.0  T
   2    -49.4981630 -0.198810E-10  0.336E-05    5.53     433.9  T
   3    -49.4981630 -0.824230E-12  0.155E-05    5.53     938.7  T
     SCC iter.                  ...        0 min,  0.005 sec
     gradient                   ...        0 min,  0.006 sec
 * total energy  :   -48.8207862 Eh     change       -0.1242455E-09 Eh
   gradient norm :     0.0561979 Eh/α   predicted     0.0000000E+00 (-100.00%)
   displ. norm   :     0.3140813 α      lambda       -0.1063461E-01
   maximum displ.:     0.2201772 α      in ANC's #34, #28, #40, ...

........................................................................
.............................. CYCLE    2 ..............................
........................................................................

 iter      E             dE          RMSdq      gap      omega  full diag
   1    -49.5267374 -0.495267E+02  0.145E-01    6.24       0.0  T
   2    -49.5269535 -0.216051E-03  0.896E-02    6.20       1.0  T
   3    -49.5269602 -0.673832E-05  0.434E-02    6.20       1.0  T
   4    -49.5269615 -0.130828E-05  0.393E-03    6.19       3.7  T
   5    -49.5269615 -0.316396E-07  0.180E-03    6.19       8.1  T
   6    -49.5269615 -0.109486E-07  0.235E-04    6.19      62.1  T
   7    -49.5269615 -0.212147E-09  0.116E-04    6.19     125.4  T
     SCC iter.                  ...        0 min,  0.009 sec
     gradient                   ...        0 min,  0.006 sec
 * total energy  :   -48.8281215 Eh     change       -0.7335275E-02 Eh
   gradient norm :     0.0287955 Eh/α   predicted    -0.5841982E-02 ( -20.36%)
   displ. norm   :     0.2631968 α      lambda       -0.3811134E-02
   maximum displ.:     0.1338976 α      in ANC's #34, #28, #42, ...

........................................................................
.............................. CYCLE    3 ..............................
........................................................................

 iter      E             dE          RMSdq      gap      omega  full diag
   1    -49.5417376 -0.495417E+02  0.119E-01    6.99       0.0  T
   2    -49.5419246 -0.186967E-03  0.769E-02    6.94       1.0  T
   3    -49.5419275 -0.290024E-05  0.396E-02    6.94       1.0  T
   4    -49.5419279 -0.424902E-06  0.270E-03    6.94       5.4  T
   5    -49.5419279 -0.167090E-07  0.127E-03    6.94      11.5  T
   6    -49.5419279 -0.495323E-08  0.182E-04    6.94      80.3  T
   7    -49.5419279 -0.104215E-09  0.751E-05    6.94     194.2  T
     SCC iter.                  ...        0 min,  0.009 sec
     gradient                   ...        0 min,  0.006 sec
 * total energy  :   -48.8300324 Eh     change       -0.1910919E-02 Eh
   gradient norm :     0.0054274 Eh/α   predicted    -0.2038670E-02 (   6.69%)
   displ. norm   :     0.0827272 α      lambda       -0.1590620E-03
   maximum displ.:     0.0341777 α      in ANC's #6, #7, #8, ...

........................................................................
.............................. CYCLE    4 ..............................
........................................................................

 iter      E             dE          RMSdq      gap      omega  full diag
   1    -49.5403077 -0.495403E+02  0.176E-02    6.94       0.0  T
   2    -49.5403081 -0.432642E-06  0.101E-02    6.94       1.4  T
   3    -49.5403081 -0.278530E-07  0.179E-03    6.94       8.1  T
   4    -49.5403081 -0.131928E-07  0.392E-04    6.94      37.2  T
   5    -49.5403081 -0.412072E-09  0.164E-04    6.94      89.1  T
     SCC iter.                  ...        0 min,  0.007 sec
     gradient                   ...        0 min,  0.006 sec
 * total energy  :   -48.8301496 Eh     change       -0.1171784E-03 Eh
   gradient norm :     0.0021830 Eh/α   predicted    -0.8033317E-04 ( -31.44%)
   displ. norm   :     0.1488702 α      lambda       -0.1379247E-03
   maximum displ.:     0.0690726 α      in ANC's #6, #7, #8, ...

........................................................................
.............................. CYCLE    5 ..............................
........................................................................

 iter      E             dE          RMSdq      gap      omega  full diag
   1    -49.5384679 -0.495385E+02  0.201E-02    6.95       0.0  T
   2    -49.5384683 -0.354238E-06  0.118E-02    6.95       1.2  T
   3    -49.5384683 -0.305530E-07  0.139E-03    6.95      10.5  T
   4    -49.5384683 -0.157330E-07  0.449E-04    6.95      32.5  T
   5    -49.5384683 -0.622521E-09  0.155E-04    6.95      94.4  T
     SCC iter.                  ...        0 min,  0.007 sec
     gradient                   ...        0 min,  0.006 sec
 * total energy  :   -48.8302390 Eh     change       -0.8941473E-04 Eh
   gradient norm :     0.0022955 Eh/α   predicted    -0.7049525E-04 ( -21.16%)
   displ. norm   :     0.1189952 α      lambda       -0.5652171E-04
   maximum displ.:     0.0551112 α      in ANC's #6, #2, #4, ...

........................................................................
.............................. CYCLE    6 ..............................
........................................................................

 iter      E             dE          RMSdq      gap      omega  full diag
   1    -49.5385442 -0.495385E+02  0.127E-02    6.96       0.0  T
   2    -49.5385442 -0.637612E-07  0.754E-03    6.96       1.9  T
   3    -49.5385442 -0.779493E-08  0.560E-04    6.96      26.0  T
   4    -49.5385442 -0.403025E-08  0.238E-04    6.96      61.2  T
     SCC iter.                  ...        0 min,  0.005 sec
     gradient                   ...        0 min,  0.006 sec
 * total energy  :   -48.8302824 Eh     change       -0.4334389E-04 Eh
   gradient norm :     0.0027033 Eh/α   predicted    -0.2866572E-04 ( -33.86%)
   displ. norm   :     0.1480725 α      lambda       -0.6049770E-04
   maximum displ.:     0.0745502 α      in ANC's #2, #6, #4, ...

........................................................................
.............................. CYCLE    7 ..............................
........................................................................

 iter      E             dE          RMSdq      gap      omega  full diag
   1    -49.5395336 -0.495395E+02  0.159E-02    6.97       0.0  T
   2    -49.5395337 -0.129644E-06  0.943E-03    6.97       1.5  T
   3    -49.5395338 -0.132219E-07  0.681E-04    6.97      21.4  T
   4    -49.5395338 -0.327832E-08  0.264E-04    6.97      55.3  T
     SCC iter.                  ...        0 min,  0.005 sec
     gradient                   ...        0 min,  0.006 sec
 * total energy  :   -48.8303255 Eh     change       -0.4314537E-04 Eh
   gradient norm :     0.0016320 Eh/α   predicted    -0.3091237E-04 ( -28.35%)
   displ. norm   :     0.1616814 α      lambda       -0.3316028E-04
   maximum displ.:     0.1019540 α      in ANC's #2, #4, #6, ...

........................................................................
.............................. CYCLE    8 ..............................
........................................................................

 iter      E             dE          RMSdq      gap      omega  full diag
   1    -49.5408932 -0.495409E+02  0.188E-02    6.97       0.0  T
   2    -49.5408934 -0.190617E-06  0.111E-02    6.97       1.3  T
   3    -49.5408934 -0.109708E-07  0.950E-04    6.97      15.3  T
   4    -49.5408934 -0.102399E-07  0.300E-04    6.97      48.6  T
     SCC iter.                  ...        0 min,  0.006 sec
     gradient                   ...        0 min,  0.006 sec
 * total energy  :   -48.8303571 Eh     change       -0.3156014E-04 Eh
   gradient norm :     0.0011156 Eh/α   predicted    -0.1677781E-04 ( -46.84%)
   displ. norm   :     0.1615702 α      lambda        0.1423472E-04
   maximum displ.:     0.1018726 α      in ANC's #2, #4, #6, ...

........................................................................
.............................. CYCLE    9 ..............................
........................................................................

 iter      E             dE          RMSdq      gap      omega  full diag
   1    -49.5419380 -0.495419E+02  0.187E-02    6.98       0.0  T
   2    -49.5419381 -0.184055E-06  0.111E-02    6.98       1.3  T
   3    -49.5419382 -0.110048E-07  0.920E-04    6.98      15.9  T
   4    -49.5419382 -0.956434E-08  0.294E-04    6.98      49.6  T
     SCC iter.                  ...        0 min,  0.005 sec
     gradient                   ...        0 min,  0.006 sec
 * total energy  :   -48.8303529 Eh     change        0.4163799E-05 Eh
   gradient norm :     0.0032355 Eh/α   predicted     0.7199920E-05 (  72.92%)
   displ. norm   :     0.0464913 α      lambda       -0.2648782E-04
   maximum displ.:     0.0287634 α      in ANC's #6, #8, #7, ...

........................................................................
.............................. CYCLE   10 ..............................
........................................................................

 iter      E             dE          RMSdq      gap      omega  full diag
   1    -49.5415732 -0.495416E+02  0.532E-03    6.98       0.0  T
   2    -49.5415733 -0.431476E-07  0.311E-03    6.98       4.7  T
   3    -49.5415733 -0.275109E-08  0.488E-04    6.98      29.9  T
   4    -49.5415733 -0.784894E-09  0.117E-04    6.98     124.7  T
     SCC iter.                  ...        0 min,  0.005 sec
     gradient                   ...        0 min,  0.006 sec
 * total energy  :   -48.8303750 Eh     change       -0.2206347E-04 Eh
   gradient norm :     0.0021878 Eh/α   predicted    -0.1327372E-04 ( -39.84%)
   displ. norm   :     0.0830825 α      lambda       -0.4483693E-04
   maximum displ.:     0.0518221 α      in ANC's #6, #2, #8, ...

........................................................................
.............................. CYCLE   11 ..............................
........................................................................

 iter      E             dE          RMSdq      gap      omega  full diag
   1    -49.5403705 -0.495404E+02  0.951E-03    6.98       0.0  T
   2    -49.5403707 -0.160965E-06  0.550E-03    6.98       2.7  T
   3    -49.5403707 -0.821115E-08  0.999E-04    6.98      14.6  T
   4    -49.5403707 -0.272894E-08  0.196E-04    6.98      74.3  T
     SCC iter.                  ...        0 min,  0.005 sec
     gradient                   ...        0 min,  0.006 sec
 * total energy  :   -48.8304041 Eh     change       -0.2915360E-04 Eh
   gradient norm :     0.0004831 Eh/α   predicted    -0.2257924E-04 ( -22.55%)
   displ. norm   :     0.0857581 α      lambda       -0.1352004E-04
   maximum displ.:     0.0629186 α      in ANC's #2, #6, #1, ...

........................................................................
.............................. CYCLE   12 ..............................
........................................................................

 iter      E             dE          RMSdq      gap      omega  full diag
   1    -49.5398938 -0.495399E+02  0.871E-03    6.97       0.0  T
   2    -49.5398939 -0.427660E-07  0.512E-03    6.97       2.8  T
   3    -49.5398939 -0.214020E-08  0.430E-04    6.97      33.9  T
   4    -49.5398939 -0.179008E-08  0.127E-04    6.97     115.2  T
     SCC iter.                  ...        0 min,  0.005 sec
     gradient                   ...        0 min,  0.006 sec
 * total energy  :   -48.8304190 Eh     change       -0.1487091E-04 Eh
   gradient norm :     0.0009492 Eh/α   predicted    -0.6783309E-05 ( -54.39%)
   displ. norm   :     0.0658934 α      lambda       -0.9479720E-05
   maximum displ.:     0.0531188 α      in ANC's #2, #1, #3, ...

........................................................................
.............................. CYCLE   13 ..............................
........................................................................

 iter      E             dE          RMSdq      gap      omega  full diag
   1    -49.5400374 -0.495400E+02  0.762E-03    6.97       0.0  T
   2    -49.5400375 -0.199841E-07  0.450E-03    6.97       3.2  T
   3    -49.5400375 -0.101803E-08  0.292E-04    6.97      50.0  T
   4    -49.5400375 -0.164469E-08  0.109E-04    6.97     134.1  T
     SCC iter.                  ...        0 min,  0.005 sec
     gradient                   ...        0 min,  0.006 sec
 * total energy  :   -48.8304319 Eh     change       -0.1293358E-04 Eh
   gradient norm :     0.0006106 Eh/α   predicted    -0.4755017E-05 ( -63.24%)
   displ. norm   :     0.0831144 α      lambda       -0.1140872E-04
   maximum displ.:     0.0638558 α      in ANC's #2, #1, #3, ...

........................................................................
.............................. CYCLE   14 ..............................
........................................................................

 iter      E             dE          RMSdq      gap      omega  full diag
   1    -49.5403342 -0.495403E+02  0.957E-03    6.97       0.0  T
   2    -49.5403342 -0.267860E-07  0.567E-03    6.97       2.6  T
   3    -49.5403342 -0.248345E-08  0.355E-04    6.97      41.1  T
   4    -49.5403342 -0.215562E-08  0.146E-04    6.97     100.1  T
     SCC iter.                  ...        0 min,  0.005 sec
     gradient                   ...        0 min,  0.006 sec
 * total energy  :   -48.8304467 Eh     change       -0.1477867E-04 Eh
   gradient norm :     0.0004274 Eh/α   predicted    -0.5722032E-05 ( -61.28%)
   displ. norm   :     0.0926265 α      lambda       -0.1099562E-04
   maximum displ.:     0.0721425 α      in ANC's #2, #1, #3, ...

........................................................................
.............................. CYCLE   15 ..............................
........................................................................

 iter      E             dE          RMSdq      gap      omega  full diag
   1    -49.5404818 -0.495405E+02  0.111E-02    6.97       0.0  T
   2    -49.5404818 -0.236463E-07  0.657E-03    6.97       2.2  T
   3    -49.5404818 -0.401592E-08  0.335E-04    6.97      43.6  T
   4    -49.5404818 -0.137036E-08  0.160E-04    6.97      91.2  T
     SCC iter.                  ...        0 min,  0.006 sec
     gradient                   ...        0 min,  0.006 sec
 * total energy  :   -48.8304608 Eh     change       -0.1415109E-04 Eh
   gradient norm :     0.0005071 Eh/α   predicted    -0.5520473E-05 ( -60.99%)
   displ. norm   :     0.0842573 α      lambda       -0.8922769E-05
   maximum displ.:     0.0668857 α      in ANC's #2, #1, #3, ...

........................................................................
.............................. CYCLE   16 ..............................
........................................................................

 iter      E             dE          RMSdq      gap      omega  full diag
   1    -49.5405419 -0.495405E+02  0.908E-03    6.97       0.0  T
   2    -49.5405419 -0.976216E-08  0.538E-03    6.97       2.7  T
   3    -49.5405419 -0.238116E-08  0.230E-04    6.97      63.3  T
   4    -49.5405419 -0.587256E-09  0.116E-04    6.97     126.1  T
     SCC iter.                  ...        0 min,  0.005 sec
     gradient                   ...        0 min,  0.006 sec
 * total energy  :   -48.8304733 Eh     change       -0.1242770E-04 Eh
   gradient norm :     0.0004413 Eh/α   predicted    -0.4476034E-05 ( -63.98%)
   displ. norm   :     0.0765984 α      lambda       -0.8157295E-05
   maximum displ.:     0.0612735 α      in ANC's #2, #1, #4, ...

........................................................................
.............................. CYCLE   17 ..............................
........................................................................

 iter      E             dE          RMSdq      gap      omega  full diag
   1    -49.5405562 -0.495406E+02  0.796E-03    6.97       0.0  T
   2    -49.5405562 -0.996145E-08  0.470E-03    6.97       3.1  T
   3    -49.5405562 -0.120792E-08  0.234E-04    6.97      62.5  T
   4    -49.5405562 -0.104182E-08  0.973E-05    6.97     149.8  T
     SCC iter.                  ...        0 min,  0.005 sec
     gradient                   ...        0 min,  0.006 sec
 * total energy  :   -48.8304847 Eh     change       -0.1145676E-04 Eh
   gradient norm :     0.0003609 Eh/α   predicted    -0.4089771E-05 ( -64.30%)
   displ. norm   :     0.0787339 α      lambda       -0.8203737E-05
   maximum displ.:     0.0624893 α      in ANC's #2, #4, #1, ...

........................................................................
.............................. CYCLE   18 ..............................
........................................................................

 iter      E             dE          RMSdq      gap      omega  full diag
   1    -49.5404354 -0.495404E+02  0.812E-03    6.97       0.0  T
   2    -49.5404354 -0.836249E-08  0.479E-03    6.97       3.0  T
   3    -49.5404354 -0.174762E-08  0.218E-04    6.97      66.9  T
   4    -49.5404354 -0.703118E-09  0.104E-04    6.97     140.2  T
     SCC iter.                  ...        0 min,  0.005 sec
     gradient                   ...        0 min,  0.006 sec
 * total energy  :   -48.8304960 Eh     change       -0.1128866E-04 Eh
   gradient norm :     0.0002971 Eh/α   predicted    -0.4114758E-05 ( -63.55%)
   displ. norm   :     0.0811958 α      lambda       -0.7860340E-05
   maximum displ.:     0.0642784 α      in ANC's #2, #4, #1, ...

........................................................................
.............................. CYCLE   19 ..............................
........................................................................

 iter      E             dE          RMSdq      gap      omega  full diag
   1    -49.5403879 -0.495404E+02  0.823E-03    6.97       0.0  T
   2    -49.5403879 -0.116249E-07  0.485E-03    6.97       3.0  T
   3    -49.5403879 -0.104966E-08  0.274E-04    6.97      53.3  T
   4    -49.5403879 -0.162080E-08  0.107E-04    6.97     136.2  T
     SCC iter.                  ...        0 min,  0.006 sec
     gradient                   ...        0 min,  0.006 sec
 * total energy  :   -48.8305068 Eh     change       -0.1078991E-04 Eh
   gradient norm :     0.0002376 Eh/α   predicted    -0.3946332E-05 ( -63.43%)
   displ. norm   :     0.0783512 α      lambda       -0.6850248E-05
   maximum displ.:     0.0622383 α      in ANC's #2, #4, #1, ...

........................................................................
.............................. CYCLE   20 ..............................
........................................................................

 iter      E             dE          RMSdq      gap      omega  full diag
   1    -49.5404198 -0.495404E+02  0.785E-03    6.97       0.0  T
   2    -49.5404198 -0.923917E-08  0.463E-03    6.97       3.1  T
   3    -49.5404198 -0.132186E-08  0.224E-04    6.97      65.0  T
   4    -49.5404198 -0.865150E-09  0.990E-05    6.97     147.3  T
     SCC iter.                  ...        0 min,  0.005 sec
     gradient                   ...        0 min,  0.006 sec
 * total energy  :   -48.8305163 Eh     change       -0.9479768E-05 Eh
   gradient norm :     0.0003109 Eh/α   predicted    -0.3437135E-05 ( -63.74%)
   displ. norm   :     0.0706719 α      lambda       -0.5799330E-05
   maximum displ.:     0.0568769 α      in ANC's #2, #1, #4, ...
 * RMSD in coord.:     0.2164352 α      energy gain  -0.9730067E-02 Eh

generating ANC from exact Hessian ...
Using Lindh-Hessian (1995)
 Shifting diagonal of input Hessian by    9.7789023743504039E-003
 Lowest  eigenvalues of input Hessian
    0.000000    0.000000    0.000000    0.000000    0.000000    0.000000
    0.010000    0.010054    0.010353    0.010836    0.011365    0.011498
    0.011780    0.012834    0.013291    0.013654    0.014341    0.015284
 Highest eigenvalues
    1.269477    1.275518    1.290161    1.369343    1.398886    1.409699


........................................................................
.............................. CYCLE   21 ..............................
........................................................................

 iter      E             dE          RMSdq      gap      omega  full diag
   1    -49.5403345 -0.495403E+02  0.720E-03    6.97       0.0  T
   2    -49.5403345 -0.810850E-08  0.426E-03    6.97       3.4  T
   3    -49.5403345 -0.127008E-08  0.197E-04    6.97      73.9  T
   4    -49.5403345 -0.524572E-09  0.902E-05    6.97     161.7  T
     SCC iter.                  ...        0 min,  0.006 sec
     gradient                   ...        0 min,  0.006 sec
 * total energy  :   -48.8305244 Eh     change       -0.8060528E-05 Eh
   gradient norm :     0.0002282 Eh/α   predicted     0.0000000E+00 (-100.00%)
   displ. norm   :     0.0222118 α      lambda       -0.8419183E-07
   maximum displ.:     0.0206539 α      in ANC's #2, #3, #4, ...

........................................................................
.............................. CYCLE   22 ..............................
........................................................................

 iter      E             dE          RMSdq      gap      omega  full diag
   1    -49.5404399 -0.495404E+02  0.230E-03    6.97       0.0  T
   2    -49.5404399 -0.235928E-08  0.135E-03    6.97      10.8  T
   3    -49.5404399 -0.559339E-10  0.115E-04    6.97     126.8  T
   4    -49.5404399 -0.266773E-09  0.366E-05    6.97     398.7  T
     SCC iter.                  ...        0 min,  0.005 sec
     gradient                   ...        0 min,  0.007 sec
 * total energy  :   -48.8305277 Eh     change       -0.3384920E-05 Eh
   gradient norm :     0.0001767 Eh/α   predicted    -0.1191957E-05 ( -64.79%)
   displ. norm   :     0.0327152 α      lambda       -0.3204256E-05
   maximum displ.:     0.0272181 α      in ANC's #2, #3, #4, ...

   *** GEOMETRY OPTIMIZATION CONVERGED AFTER 22 ITERATIONS ***

------------------------------------------------------------------------
 total energy gain   :        -0.0097415 Eh       -6.1129 kcal/mol
 total RMSD          :         0.2185127 a0        0.1156 Å
 total power (kW/mol):        -1.1625608 (step)  -56.6425 (real)
------------------------------------------------------------------------

 ANCopt (total)                0 d,  0 h,  0 min,  0.452 sec
 optimizer setup                ...        0 min,  0.000 sec (  0.024%)
 model hessian                  ...        0 min,  0.135 sec ( 29.866%)
 ANC generation                 ...        0 min,  0.003 sec (  0.622%)
 coordinate transformation      ...        0 min,  0.000 sec (  0.081%)
 single point calculation       ...        0 min,  0.308 sec ( 68.161%)
 optimization log               ...        0 min,  0.003 sec (  0.575%)
 hessian update                 ...        0 min,  0.000 sec (  0.096%)
 rational function              ...        0 min,  0.002 sec (  0.375%)

================
 final structure:
================
47
 xtb: 6.7.1 (edcfbbe)
C            0.30367980401614       -0.59035035822901        0.31397311216838
C           -0.74518557432851       -0.18213320837269        1.33646581756562
N            0.14618447774770       -0.12639754099187       -1.10233306110665
C            0.96204237498998       -1.07242041919412       -1.95087816123859
C            0.41421372601952       -2.48052088376248       -2.14031062951440
C           -1.26651039189613       -0.20040727581619       -1.59769725818180
C           -2.19782928363116        0.97181497685313       -1.32553781823357
C            0.75959649173868        1.22491143214696       -1.34849553332381
C            0.51277135839702        2.38210536074151       -0.37255445176448
C            1.50914395691407        2.52099239632837        0.78601606714120
C            2.97423714304282        2.68781397453577        0.37526705167068
C            3.26575378816343        3.90251695604119       -0.50842969317074
C            2.88090551941843        5.25146589791415        0.10421943415830
C            3.53753352945458        5.55895013681281        1.45137541312601
C            5.05903746038651        5.60984348106984        1.38297735052236
H            0.31448817089771       -1.68070912028670        0.29225205630177
H            1.28846085587667       -0.25478074575506        0.64148769316483
H           -0.80854259144267        0.88945444317125        1.48388687590418
H           -1.72776499643297       -0.57430929265065        1.09266710457934
H           -0.45013475355525       -0.62230421489846        2.28697704466505
H            1.07299030005671       -0.61419055199130       -2.93595269356396
H            1.95165253848565       -1.13794184462324       -1.49340048881618
H           -0.49499256740871       -2.50023338117816       -2.73306880037223
H            1.16655662057094       -3.04948385068546       -2.68149102246016
H            0.23191600173505       -3.00117625837819       -1.20442215489835
H           -1.20830624799667       -0.31381651119944       -2.68245311403593
H           -1.70190780293377       -1.11006174880830       -1.18272449431780
H           -1.85325474493164        1.88773009487582       -1.79492244395463
H           -3.15814237133920        0.72129627560584       -1.77194596372727
H           -2.36913767294675        1.15008658931386       -0.27058361430164
H            1.83987288937028        1.07892807147767       -1.40202557123356
H            0.42099246372992        1.52303592207850       -2.34260747872263
H            0.58622381953424        3.29259965328137       -0.96975455651224
H           -0.49553970474827        2.36051041715331        0.02969200709796
H            1.21066007919468        3.40368942240047        1.35241128066298
H            1.43754019567960        1.67523483304618        1.47095018251529
H            3.56321013739884        2.76944498095909        1.28906029382691
H            3.33105094323930        1.79122493873372       -0.14118656216961
H            4.33424819046257        3.90763837386914       -0.72666023547385
H            2.74912316514351        3.79722233462629       -1.46611356846777
H            3.16658635049695        6.03115361836800       -0.60503686974938
H            1.79599857537945        5.30758118088767        0.22181823355578
H            3.16907767157118        6.53015159466836        1.78814802233226
H            3.23035557301455        4.82289831330542        2.19710173902538
H            5.38194767581509        6.31318421104148        0.61915675572163
H            5.46516205935260        5.93391007161922        2.33773994918578
H            5.47970479630122        4.63390725389700        1.15350275440788

 Bond Distances (Angstroems)
 ---------------------------
C1-C2=1.5206         C1-N3=1.4987         C1-H16=1.0906        C1-H17=1.0907        C2-C1=1.5206         C2-H18=1.0835        
C2-H19=1.0857        C2-H20=1.0882        N3-C1=1.4987         N3-C4=1.5102         N3-C6=1.4989         N3-C8=1.5043         
C4-N3=1.5102         C4-C5=1.5227         C4-H21=1.0921        C4-H22=1.0922        C5-C4=1.5227         C5-H23=1.0855        
C5-H24=1.0875        C5-H25=1.0864        C6-N3=1.4989         C6-C7=1.5217         C6-H26=1.0922        C6-H27=1.0905        
C7-C6=1.5217         C7-H28=1.0853        C7-H29=1.0882        C7-H30=1.0835        C8-N3=1.5043         C8-C9=1.5338         
C8-H31=1.0914        C8-H32=1.0917        C9-C8=1.5338         C9-C10=1.5344        C9-H33=1.0913        C9-H34=1.0858        
C10-C9=1.5344        C10-C11=1.5307       C10-H35=1.0904       C10-H36=1.0907       C11-C10=1.5307       C11-C12=1.5302       
C11-H37=1.0902       C11-H38=1.0945       C12-C11=1.5302       C12-C13=1.5307       C12-H39=1.0906       C12-H40=1.0932       
C13-C12=1.5307       C13-C14=1.5299       C13-H41=1.0920       C13-H42=1.0927       C14-C13=1.5299       C14-C15=1.5239       
C14-H43=1.0920       C14-H44=1.0919       C15-C14=1.5239       C15-H45=1.0874       C15-H46=1.0870       C15-H47=1.0872       
H16-C1=1.0906        H17-C1=1.0907        H18-C2=1.0835        H19-C2=1.0857        H20-C2=1.0882        H21-C4=1.0921        
H22-C4=1.0922        H23-C5=1.0855        H24-C5=1.0875        H25-C5=1.0864        H26-C6=1.0922        H27-C6=1.0905        
H28-C7=1.0853        H29-C7=1.0882        H30-C7=1.0835        H31-C8=1.0914        H32-C8=1.0917        H33-C9=1.0913        
H34-C9=1.0858        H35-C10=1.0904       H36-C10=1.0907       H37-C11=1.0902       H38-C11=1.0945       H39-C12=1.0906       
H40-C12=1.0932       H41-C13=1.0920       H42-C13=1.0927       H43-C14=1.0920       H44-C14=1.0919       H45-C15=1.0874       
H46-C15=1.0870       H47-C15=1.0872       
 C  H  Rav=1.0895 sigma=0.0029  Rmin=1.0835  Rmax=1.0945    32
 C  C  Rav=1.5279 sigma=0.0049  Rmin=1.5206  Rmax=1.5344    10
 N  C  Rav=1.5030 sigma=0.0047  Rmin=1.4987  Rmax=1.5102     4

 selected bond angles (degree)
 --------------------
N3-C1-C2=118.68                H16-C1-C2=106.78               H16-C1-N3=106.96               H17-C1-C2=109.77               
H17-C1-N3=106.46               H17-C1-H16=107.74              H18-C2-C1=113.41               H19-C2-C1=112.10               
H19-C2-H18=109.56              H20-C2-C1=106.96               H20-C2-H18=107.28              H20-C2-H19=107.18              
C4-N3-C1=106.28                C6-N3-C1=113.33                C6-N3-C4=107.01                C8-N3-C1=112.95                
C8-N3-C4=104.51                C8-N3-C6=112.00                C5-C4-N3=117.05                H21-C4-N3=107.39               
H21-C4-C5=108.20               H22-C4-N3=106.96               H22-C4-C5=108.82               H22-C4-H21=108.12              
H23-C5-C4=112.71               H24-C5-C4=107.27               H24-C5-H23=107.35              H25-C5-C4=113.35               
H25-C5-H23=108.73              H25-C5-H24=107.10              C7-C6-N3=118.67                H26-C6-N3=106.45               
H26-C6-C7=106.87               H27-C6-N3=106.96               H27-C6-C7=109.28               H27-C6-H26=108.22              
H28-C7-C6=112.24               H29-C7-C6=106.82               H29-C7-H28=107.28              H30-C7-C6=113.43               
H30-C7-H28=109.42              H30-C7-H29=107.32              C9-C8-N3=120.53                H31-C8-N3=106.95               
H31-C8-C9=106.94               H32-C8-N3=105.54               H32-C8-C9=108.87               H32-C8-H31=107.39              
C10-C9-C8=116.37               H33-C9-C8=105.69               H33-C9-C10=107.10              H34-C9-C8=111.73               
H34-C9-C10=108.97              H34-C9-H33=106.37              C11-C10-C9=115.39              H35-C10-C9=106.72              
H35-C10-C11=108.25             H36-C10-C9=111.18              H36-C10-C11=108.41             H36-C10-H35=106.47             

 selected dihedral angles (degree)
 ---------------------------------
H18-C2-C1-N3=297.71           H18-C2-C1-H16=176.90          H18-C2-C1-H17= 60.39          H19-C2-C1-N3= 62.44           
H19-C2-C1-H16=301.63          H19-C2-C1-H17=185.12          H20-C2-C1-N3=179.65           H20-C2-C1-H16= 58.84          
H20-C2-C1-H17=302.32          C4-N3-C1-C2=201.40            C4-N3-C1-H16=322.11           C4-N3-C1-H17= 77.08           
C6-N3-C1-C2=318.65            C6-N3-C1-H16= 79.36           C6-N3-C1-H17=194.33           C8-N3-C1-C2= 87.38            
C8-N3-C1-H16=208.09           C8-N3-C1-H17=323.07           C5-C4-N3-C1= 72.41            C5-C4-N3-C6=311.02            
C5-C4-N3-C8=192.08            H21-C4-N3-C1=194.24           H21-C4-N3-C6= 72.85           H21-C4-N3-C8=313.92           
H22-C4-N3-C1=310.10           H22-C4-N3-C6=188.71           H22-C4-N3-C8= 69.78           H23-C5-C4-N3= 67.84           
H23-C5-C4-H21=306.43          H23-C5-C4-H22=189.18          H24-C5-C4-N3=185.78           H24-C5-C4-H21= 64.37          
H24-C5-C4-H22=307.12          H25-C5-C4-N3=303.79           H25-C5-C4-H21=182.38          H25-C5-C4-H22= 65.13          
C7-C6-N3-C1= 86.00            C7-C6-N3-C4=202.82            C7-C6-N3-C8=316.78            H26-C6-N3-C1=206.41           
H26-C6-N3-C4=323.24           H26-C6-N3-C8= 77.20           H27-C6-N3-C1=321.93           H27-C6-N3-C4= 78.75           
H27-C6-N3-C8=192.72           H28-C7-C6-N3= 62.14           H28-C7-C6-H26=301.94          H28-C7-C6-H27=185.06          
H29-C7-C6-N3=179.45           H29-C7-C6-H26= 59.26          H29-C7-C6-H27=302.37          H30-C7-C6-N3=297.49           
H30-C7-C6-H26=177.29          H30-C7-C6-H27= 60.41          C9-C8-N3-C1=313.79            C9-C8-N3-C4=198.71            
C9-C8-N3-C6= 83.21            H31-C8-N3-C1= 76.03           H31-C8-N3-C4=320.94           H31-C8-N3-C6=205.44           
H32-C8-N3-C1=190.17           H32-C8-N3-C4= 75.08           H32-C8-N3-C6=319.59           C10-C9-C8-N3= 89.77           
C10-C9-C8-H31=327.53          C10-C9-C8-H32=211.79          H33-C9-C8-N3=208.46           H33-C9-C8-H31= 86.22          
H33-C9-C8-H32=330.48          H34-C9-C8-N3=323.74           H34-C9-C8-H31=201.50          H34-C9-C8-H32= 85.76          
C11-C10-C9-C8= 57.65          C11-C10-C9-H33=299.73         C11-C10-C9-H34=185.05         H35-C10-C9-C8=177.96          
H35-C10-C9-H33= 60.03         H35-C10-C9-H34=305.35         H36-C10-C9-C8=293.67          H36-C10-C9-H33=175.75         
H36-C10-C9-H34= 61.07         
           -------------------------------------------------
          |                Final Singlepoint                |
           -------------------------------------------------

          ...................................................
          :                      SETUP                      :
          :.................................................:
          :  # basis functions                  92          :
          :  # atomic orbitals                  92          :
          :  # shells                           62          :
          :  # electrons                        92          :
          :  max. iterations                   250          :
          :  Hamiltonian                  GFN2-xTB          :
          :  restarted?                      false          :
          :  GBSA solvation                  false          :
          :  PC potential                    false          :
          :  electronic temp.          300.0000000     K    :
          :  accuracy                    1.0000000          :
          :  -> integral cutoff          0.2500000E+02      :
          :  -> integral neglect         0.1000000E-07      :
          :  -> SCF convergence          0.1000000E-05 Eh   :
          :  -> wf. convergence          0.1000000E-03 e    :
          :  Broyden damping             0.4000000          :
          :  net charge                          1          :
          :  unpaired electrons                  0          :
          ...................................................

 iter      E             dE          RMSdq      gap      omega  full diag
   1    -49.5404399 -0.495404E+02  0.119E-05    6.97       0.0  T
   2    -49.5404399 -0.390799E-12  0.670E-06    6.97    2177.2  T
   3    -49.5404399  0.163425E-12  0.177E-06    6.97    8241.7  T

   *** convergence criteria satisfied after 3 iterations ***

         #    Occupation            Energy/Eh            Energy/eV
      -------------------------------------------------------------
         1        2.0000           -0.8490602             -23.1041
       ...           ...                  ...                  ...
        40        2.0000           -0.5508033             -14.9881
        41        2.0000           -0.5371705             -14.6172
        42        2.0000           -0.5309906             -14.4490
        43        2.0000           -0.5256399             -14.3034
        44        2.0000           -0.5052739             -13.7492
        45        2.0000           -0.5012016             -13.6384
        46        2.0000           -0.4968032             -13.5187 (HOMO)
        47                         -0.2406205              -6.5476 (LUMO)
        48                         -0.1770345              -4.8174
        49                         -0.1668637              -4.5406
        50                         -0.1575601              -4.2874
        51                         -0.0682867              -1.8582
       ...                                ...                  ...
        92                          0.2280738               6.2062
      -------------------------------------------------------------
                  HL-Gap            0.2561827 Eh            6.9711 eV
             Fermi-level           -0.3687119 Eh          -10.0332 eV

 SCC (total)                   0 d,  0 h,  0 min,  0.012 sec
 SCC setup                      ...        0 min,  0.000 sec (  0.669%)
 Dispersion                     ...        0 min,  0.000 sec (  1.978%)
 classical contributions        ...        0 min,  0.000 sec (  0.327%)
 integral evaluation            ...        0 min,  0.001 sec ( 11.629%)
 iterations                     ...        0 min,  0.004 sec ( 34.449%)
 molecular gradient             ...        0 min,  0.006 sec ( 50.023%)
 printout                       ...        0 min,  0.000 sec (  0.804%)

         :::::::::::::::::::::::::::::::::::::::::::::::::::::
         ::                     SUMMARY                     ::
         :::::::::::::::::::::::::::::::::::::::::::::::::::::
         :: total energy             -48.830527737635 Eh    ::
         :: gradient norm              0.000178224420 Eh/a0 ::
         :: HOMO-LUMO gap              6.971085835455 eV    ::
         ::.................................................::
         :: SCC energy               -49.539990067448 Eh    ::
         :: -> isotropic ES            0.078588231103 Eh    ::
         :: -> anisotropic ES         -0.000406046769 Eh    ::
         :: -> anisotropic XC          0.031098580309 Eh    ::
         :: -> dispersion             -0.038131579165 Eh    ::
         :: repulsion energy           0.709462329813 Eh    ::
         :: add. restraining           0.000000000000 Eh    ::
         :: total charge               1.000000000000 e     ::
         :::::::::::::::::::::::::::::::::::::::::::::::::::::

           -------------------------------------------------
          |                Property Printout                |
           -------------------------------------------------

    * Orbital Energies and Occupations

         #    Occupation            Energy/Eh            Energy/eV
      -------------------------------------------------------------
         1        2.0000           -0.8490602             -23.1041
       ...           ...                  ...                  ...
        34        2.0000           -0.5882057             -16.0059
        35        2.0000           -0.5861465             -15.9499
        36        2.0000           -0.5820004             -15.8370
        37        2.0000           -0.5745789             -15.6351
        38        2.0000           -0.5662708             -15.4090
        39        2.0000           -0.5565328             -15.1440
        40        2.0000           -0.5508033             -14.9881
        41        2.0000           -0.5371705             -14.6172
        42        2.0000           -0.5309906             -14.4490
        43        2.0000           -0.5256399             -14.3034
        44        2.0000           -0.5052739             -13.7492
        45        2.0000           -0.5012016             -13.6384
        46        2.0000           -0.4968032             -13.5187 (HOMO)
        47                         -0.2406205              -6.5476 (LUMO)
        48                         -0.1770345              -4.8174
        49                         -0.1668637              -4.5406
        50                         -0.1575601              -4.2874
        51                         -0.0682867              -1.8582
        52                         -0.0526977              -1.4340
        53                         -0.0508735              -1.3843
        54                         -0.0382565              -1.0410
        55                         -0.0308678              -0.8400
        56                         -0.0270835              -0.7370
        57                         -0.0170764              -0.4647
       ...                                ...                  ...
        92                          0.2280738               6.2062
      -------------------------------------------------------------
                  HL-Gap            0.2561827 Eh            6.9711 eV
             Fermi-level           -0.3687119 Eh          -10.0332 eV

     #   Z          covCN         q      C6AA      α(0)
     1   6 C        3.751    -0.028    21.128     6.555
     2   6 C        3.751    -0.125    22.954     6.833
     3   7 N        3.614     0.098    19.550     6.567
     4   6 C        3.775    -0.032    21.173     6.556
     5   6 C        3.750    -0.129    23.047     6.847
     6   6 C        3.749    -0.027    21.114     6.553
     7   6 C        3.751    -0.127    23.000     6.839
     8   6 C        3.756    -0.034    21.240     6.571
     9   6 C        3.799    -0.073    21.904     6.664
    10   6 C        3.799    -0.070    21.846     6.655
    11   6 C        3.800    -0.061    21.683     6.630
    12   6 C        3.800    -0.062    21.686     6.630
    13   6 C        3.800    -0.061    21.665     6.627
    14   6 C        3.799    -0.055    21.555     6.610
    15   6 C        3.751    -0.105    22.573     6.776
    16   1 H        0.924     0.081     1.973     2.196
    17   1 H        0.924     0.084     1.935     2.175
    18   1 H        0.925     0.069     2.092     2.262
    19   1 H        0.925     0.065     2.146     2.291
    20   1 H        0.925     0.077     2.011     2.218
    21   1 H        0.924     0.081     1.965     2.192
    22   1 H        0.924     0.080     1.977     2.199
    23   1 H        0.925     0.068     2.106     2.270
    24   1 H        0.925     0.086     1.914     2.164
    25   1 H        0.925     0.064     2.150     2.293
    26   1 H        0.924     0.079     1.990     2.206
    27   1 H        0.924     0.085     1.925     2.170
    28   1 H        0.925     0.067     2.120     2.277
    29   1 H        0.925     0.078     1.995     2.209
    30   1 H        0.925     0.069     2.098     2.265
    31   1 H        0.924     0.083     1.945     2.181
    32   1 H        0.924     0.073     2.055     2.242
    33   1 H        0.924     0.072     2.069     2.249
    34   1 H        0.925     0.059     2.209     2.324
    35   1 H        0.924     0.059     2.209     2.324
    36   1 H        0.924     0.034     2.531     2.488
    37   1 H        0.924     0.052     2.291     2.367
    38   1 H        0.924     0.015     2.807     2.620
    39   1 H        0.924     0.046     2.376     2.411
    40   1 H        0.924     0.022     2.705     2.572
    41   1 H        0.924     0.040     2.455     2.450
    42   1 H        0.924     0.025     2.656     2.549
    43   1 H        0.924     0.036     2.505     2.475
    44   1 H        0.924     0.028     2.610     2.526
    45   1 H        0.925     0.040     2.455     2.450
    46   1 H        0.925     0.040     2.455     2.450
    47   1 H        0.925     0.033     2.544     2.494

 Mol. C6AA /au·bohr⁶  :      13787.986751
 Mol. C8AA /au·bohr⁸  :     289526.079310
 Mol. α(0) /au        :        174.471596


Wiberg/Mayer (AO) data.
largest (>0.10) Wiberg bond orders for each atom

 ---------------------------------------------------------------------------
     #   Z sym  total        # sym  WBO       # sym  WBO       # sym  WBO
 ---------------------------------------------------------------------------
     1   6 C    3.935 --     2 C    1.022    17 H    0.963    16 H    0.961
                             3 N    0.930
     2   6 C    3.983 --     1 C    1.022    19 H    0.980    18 H    0.975
                            20 H    0.973
     3   7 N    3.795 --     6 C    0.931     1 C    0.930     4 C    0.927
                             8 C    0.926
     4   6 C    3.938 --     5 C    1.023    22 H    0.969    21 H    0.968
                             3 N    0.927
     5   6 C    3.982 --     4 C    1.023    23 H    0.981    25 H    0.975
                            24 H    0.971
     6   6 C    3.937 --     7 C    1.022    26 H    0.968    27 H    0.967
                             3 N    0.931
     7   6 C    3.982 --     6 C    1.022    28 H    0.981    30 H    0.977
                            29 H    0.973
     8   6 C    3.929 --     9 C    1.002    32 H    0.969    31 H    0.959
                             3 N    0.926
     9   6 C    3.983 --    10 C    1.005     8 C    1.002    34 H    0.963
                            33 H    0.963
    10   6 C    3.993 --    11 C    1.008     9 C    1.005    36 H    0.971
                            35 H    0.970
    11   6 C    3.995 --    10 C    1.008    12 C    1.007    37 H    0.971
                            38 H    0.971
    12   6 C    3.996 --    11 C    1.007    13 C    1.007    40 H    0.976
                            39 H    0.974
    13   6 C    3.997 --    14 C    1.008    12 C    1.007    41 H    0.976
                            42 H    0.976
    14   6 C    3.997 --    15 C    1.020    13 C    1.008    43 H    0.978
                            44 H    0.976
    15   6 C    3.996 --    14 C    1.020    45 H    0.987    46 H    0.987
                            47 H    0.986
    16   1 H    0.993 --     1 C    0.961
    17   1 H    0.993 --     1 C    0.963
    18   1 H    0.995 --     2 C    0.975
    19   1 H    0.996 --     2 C    0.980
    20   1 H    0.994 --     2 C    0.973
    21   1 H    0.993 --     4 C    0.968
    22   1 H    0.993 --     4 C    0.969
    23   1 H    0.995 --     5 C    0.981
    24   1 H    0.992 --     5 C    0.971
    25   1 H    0.996 --     5 C    0.975
    26   1 H    0.994 --     6 C    0.968
    27   1 H    0.993 --     6 C    0.967
    28   1 H    0.995 --     7 C    0.981
    29   1 H    0.993 --     7 C    0.973
    30   1 H    0.995 --     7 C    0.977
    31   1 H    0.993 --     8 C    0.959
    32   1 H    0.995 --     8 C    0.969
    33   1 H    0.995 --     9 C    0.963
    34   1 H    0.996 --     9 C    0.963
    35   1 H    0.996 --    10 C    0.970
    36   1 H    0.999 --    10 C    0.971
    37   1 H    0.997 --    11 C    0.971
    38   1 H    1.000 --    11 C    0.971
    39   1 H    0.998 --    12 C    0.974
    40   1 H    1.000 --    12 C    0.976
    41   1 H    0.998 --    13 C    0.976
    42   1 H    0.999 --    13 C    0.976
    43   1 H    0.999 --    14 C    0.978
    44   1 H    0.999 --    14 C    0.976
    45   1 H    0.998 --    15 C    0.987
    46   1 H    0.998 --    15 C    0.987
    47   1 H    0.999 --    15 C    0.986
 ---------------------------------------------------------------------------

Topologies differ in total number of bonds
Writing topology from bond orders to xtbtopo.mol

molecular dipole:
                 x           y           z       tot (Debye)
 q only:        0.289       0.179      -1.732
   full:        0.347       0.091      -1.840       4.765
molecular quadrupole (traceless):
                xx          xy          yy          xz          yz          zz
 q only:       -2.596       3.686       2.861       0.472       4.131      -0.265
  q+dip:       -2.974       3.710       1.901       0.547       2.553       1.072
   full:       -2.811       3.610       2.042       0.400       3.114       0.769

           -------------------------------------------------
          |                Geometry Summary                 |
           -------------------------------------------------

      molecular mass/u    :      214.4111098
   center of mass at/Å    :        1.1991092       1.6832971      -0.3060153
  moments of inertia/u·Å² :        0.4549580E+03   0.2261024E+04   0.2341562E+04
rotational constants/cm⁻¹ :        0.3705316E-01   0.7455752E-02   0.7199311E-02

 * 46 selected distances

     #   Z          #   Z                                           value/Å
     1   6 C        2   6 C                                       1.5206090
     1   6 C        3   7 N                                       1.4986596
     3   7 N        4   6 C                                       1.5101697
     4   6 C        5   6 C                                       1.5227437
     3   7 N        6   6 C                                       1.4988563
     6   6 C        7   6 C                                       1.5216869
     3   7 N        8   6 C                                       1.5042961
     8   6 C        9   6 C                                       1.5337803
     9   6 C       10   6 C                                       1.5343839 (max)
    10   6 C       11   6 C                                       1.5307001
    11   6 C       12   6 C                                       1.5301652
    12   6 C       13   6 C                                       1.5307223
    13   6 C       14   6 C                                       1.5298812
    14   6 C       15   6 C                                       1.5238908
     1   6 C       16   1 H                                       1.0906288
     1   6 C       17   1 H                                       1.0907184
     2   6 C       18   1 H                                       1.0835347 (min)
     2   6 C       19   1 H                                       1.0856806
     2   6 C       20   1 H                                       1.0882451
     4   6 C       21   1 H                                       1.0920880
     4   6 C       22   1 H                                       1.0922030
     5   6 C       23   1 H                                       1.0855446
     5   6 C       24   1 H                                       1.0874811
     5   6 C       25   1 H                                       1.0863710
     6   6 C       26   1 H                                       1.0922202
     6   6 C       27   1 H                                       1.0905250
     7   6 C       28   1 H                                       1.0853360
     7   6 C       29   1 H                                       1.0882285
     7   6 C       30   1 H                                       1.0835386
     8   6 C       31   1 H                                       1.0914091
     8   6 C       32   1 H                                       1.0916912
     9   6 C       33   1 H                                       1.0913493
     9   6 C       34   1 H                                       1.0857992
    10   6 C       35   1 H                                       1.0904359
    10   6 C       36   1 H                                       1.0906731
    11   6 C       37   1 H                                       1.0902161
    11   6 C       38   1 H                                       1.0944919
    12   6 C       39   1 H                                       1.0905647
    12   6 C       40   1 H                                       1.0932304
    13   6 C       41   1 H                                       1.0920491
    13   6 C       42   1 H                                       1.0927038
    14   6 C       43   1 H                                       1.0919744
    14   6 C       44   1 H                                       1.0918968
    15   6 C       45   1 H                                       1.0873736
    15   6 C       46   1 H                                       1.0869812
    15   6 C       47   1 H                                       1.0872310

 * 3 distinct bonds (by element types)

   Z      Z             #   av. dist./Å        max./Å        min./Å
   1 H    6 C          32     1.0894505     1.0944919     1.0835347
   6 C    6 C          10     1.5278563     1.5343839     1.5206090
   6 C    7 N           4     1.5029954     1.5101697     1.4986596


optimized geometry written to: xtbopt.xyz


           -------------------------------------------------
          | TOTAL ENERGY              -48.830527737635 Eh   |
          | GRADIENT NORM               0.000178224420 Eh/α |
          | HOMO-LUMO GAP               6.971085835455 eV   |
           -------------------------------------------------

------------------------------------------------------------------------
 * finished run on 2024/12/20 at 06:57:15.023     
------------------------------------------------------------------------
 total:
 * wall-time:     0 d,  0 h,  0 min,  0.512 sec
 *  cpu-time:     0 d,  0 h,  0 min,  4.061 sec
 * ratio c/w:     7.940 speedup
 SCF:
 * wall-time:     0 d,  0 h,  0 min,  0.029 sec
 *  cpu-time:     0 d,  0 h,  0 min,  0.223 sec
 * ratio c/w:     7.746 speedup
 ANC optimizer:
 * wall-time:     0 d,  0 h,  0 min,  0.465 sec
 *  cpu-time:     0 d,  0 h,  0 min,  3.712 sec
 * ratio c/w:     7.979 speedup

