80
 energy: -83.635143286598 gnorm: 0.000345563525 xtb: 6.7.1 (edcfbbe)
C            0.80676096160777        0.97605478161339       -1.41551728135139
C           -0.42299367249950        1.17921546416860       -2.29272631923420
C           -0.93785711165506       -0.11636203299705       -2.92169549571971
C           -1.44650735238216       -1.11664923065374       -1.88338388236910
C           -2.28770970907788       -2.24327721893460       -2.48646326474292
C           -1.58195594077389       -3.10248698892001       -3.54192036914458
C           -0.41976914736478       -4.02619392377255       -3.14905885625492
N           -0.70154855512838       -5.20282926004816       -2.25809248904781
C           -2.06923262093952       -5.77124778563566       -2.49455505334060
C           -2.36134057680836       -6.39823896681871       -3.85606946744276
C           -3.86016941803334       -6.71174160354342       -3.97656277782961
C           -4.75142022486494       -5.49839863973576       -4.25227096101424
C           -4.61406866058873       -4.91753379530030       -5.66247282178247
C           -5.17731750482024       -5.83338123055479       -6.74254142434226
C            0.32138227074649       -6.28650654608460       -2.46454024034791
C            0.86055413136340       -6.56030242240297       -3.87280969072754
C            1.58201464703182       -7.91586473147975       -3.89202204386529
C            0.63102074129364       -9.11205739585431       -3.91652181152426
C            1.36634295702099      -10.44453298477413       -4.07296821638650
C            2.20465991070228      -10.81695483878495       -2.85602306050187
C           -0.68921648583479       -4.72797688679475       -0.81221368346107
C            0.52517312112102       -4.99877416031806        0.08355506280359
C            1.83352113511324       -4.25136192273347       -0.20517206465386
C            1.78250629146351       -2.73280757861936       -0.01810144606135
C            1.30134261115235       -2.25287453415497        1.35209896088205
C            2.16913681275465       -2.74928301372684        2.50184792349353
H            0.56753133214277        0.38723479535375       -0.53342346305992
H            1.18923563569694        1.93670822341008       -1.08185108896305
H            1.59573359791812        0.47154349423781       -1.97012182159865
H           -1.21919299523501        1.63480473570687       -1.70102318807330
H           -0.17214378490327        1.87346009459148       -3.09661107764385
H           -1.75471837124700        0.13020557548392       -3.60354420812100
H           -0.13141301279470       -0.56058134438700       -3.51030097946958
H           -0.60104608463089       -1.52285343618916       -1.32769540569496
H           -2.07374766721222       -0.58367854901539       -1.16590673887468
H           -2.69893654412761       -2.85758546393397       -1.68135985313597
H           -3.14118361223839       -1.78324391016047       -2.99015520652578
H           -2.34187189063030       -3.67656471334737       -4.06938048733718
H           -1.15400917959279       -2.41990403965122       -4.27899895306713
H           -0.03247906377122       -4.41612799294771       -4.08825128373712
H            0.37652753926582       -3.45068642170873       -2.67619800099723
H           -2.22640681063621       -6.54750448145793       -1.74123154967253
H           -2.78825267220146       -4.97498804092891       -2.30538146853483
H           -2.06915994874339       -5.74269450379548       -4.67444335915757
H           -1.81748409594944       -7.33695442178547       -3.95414204600732
H           -3.99409689778288       -7.43037028949225       -4.78400267146409
H           -4.19345192677886       -7.19700549183293       -3.05683006372572
H           -5.78899389195942       -5.80578915396628       -4.11362953104684
H           -4.55459679709636       -4.71209523126545       -3.51887041728758
H           -5.15539683582248       -3.96990804280141       -5.69201502599910
H           -3.56764728608826       -4.69888587903764       -5.88962934706324
H           -6.21510608741892       -6.07740632323371       -6.52997558832328
H           -5.13471283617126       -5.33986749115157       -7.70985656796601
H           -4.61332446463043       -6.76008404517790       -6.81404590824487
H            1.19281630881305       -6.04552847715898       -1.86424551020673
H           -0.11743026670432       -7.20214011248662       -2.06691323982423
H            0.08259814717382       -6.57876636909108       -4.63238008787696
H            1.58691858006341       -5.79172957670455       -4.14427582182099
H            2.20143705969327       -7.95566511677030       -4.78885804986781
H            2.24703869906948       -7.98328746388559       -3.03052381590855
H            0.03720441372160       -9.15291219560923       -2.99983832549227
H           -0.05662834949167       -8.99709935416479       -4.75845209847085
H            0.62436126993342      -11.22725783102366       -4.24123556471895
H            2.00543639843943      -10.40124175610921       -4.95645486725986
H            1.59198933414352      -10.82976388003007       -1.95676119945679
H            2.63074934791952      -11.80735461606128       -2.98880561933608
H            3.02413950623296      -10.11811060380744       -2.70953499185107
H           -0.86756361341528       -3.65578469388064       -0.82878119894658
H           -1.53767297930753       -5.19489696431085       -0.31026591989801
H            0.19644767303509       -4.70047585708160        1.08121617672247
H            0.72348068286061       -6.06994657289970        0.14662098435944
H            2.58336154070699       -4.65389984778096        0.47703068330459
H            2.19468668605468       -4.44836144694875       -1.21778961503009
H            2.79256347584909       -2.35107465805707       -0.17948388609807
H            1.15271691880222       -2.28355993719831       -0.78903404891611
H            1.32397710254680       -1.16123226047112        1.34592600204996
H            0.26284678919850       -2.54939291668307        1.51886193558867
H            3.21025740450431       -2.48678352194366        2.33112374285392
H            1.85147718629527       -2.28824715575327        3.43319988809015
H            2.09940672548038       -3.82776701856318        2.62077052250890
