28
 energy: -30.868879748972 gnorm: 0.216130681499 xtb: 6.7.1 (edcfbbe)
C            0.74030000000000        0.22132000000000       -0.04505000000000
C            0.48155000000000       -0.77467000000000       -1.16686000000000
N            0.99709000000000       -2.19889000000000       -0.86683000000000
C            0.41706000000000       -2.70995000000000        0.49616000000000
C           -1.10294000000000       -2.70995000000000        0.49616000000000
C           -2.40679000000000       -2.70995000000000        0.49616000000000
C            0.47290000000000       -3.19041000000000       -1.94819000000000
C            1.04456000000000       -2.99163000000000       -3.33904000000000
C            2.53641000000000       -2.28612000000000       -0.71826000000000
C            3.34428000000000       -1.40067000000000       -1.65648000000000
H            0.10915000000000        0.02511000000000        0.82643000000000
H            0.49433000000000        1.23098000000000       -0.39125000000000
H            1.78308000000000        0.22962000000000        0.28126000000000
H           -0.59311000000000       -0.84207000000000       -1.36890000000000
H            0.96310000000000       -0.43557000000000       -2.08807000000000
H            0.79387000000000       -3.72827000000000        0.64694000000000
H            0.80167000000000       -2.07020000000000        1.29639000000000
H           -3.47460000000000       -2.71406000000000        0.51003000000000
H            0.70043000000000       -4.20347000000000       -1.59677000000000
H           -0.61493000000000       -3.07458000000000       -1.99717000000000
H            2.08964000000000       -3.30749000000000       -3.39155000000000
H            0.49638000000000       -3.62305000000000       -4.04744000000000
H            0.95424000000000       -1.96155000000000       -3.69104000000000
H            2.78039000000000       -2.00176000000000        0.31204000000000
H            2.80903000000000       -3.33992000000000       -0.84544000000000
H            3.21008000000000       -0.33856000000000       -1.43499000000000
H            4.41034000000000       -1.61492000000000       -1.52133000000000
H            3.11909000000000       -1.55457000000000       -2.71106000000000
28
 energy: -30.895910293648 gnorm: 0.047318400102 xtb: 6.7.1 (edcfbbe)
C            0.74071909767136        0.21000139520016       -0.04262788637340
C            0.49252730201695       -0.79323644354682       -1.15922030505947
N            0.98291238620338       -2.20296112527083       -0.86807234779700
C            0.36946101262903       -2.69411542059079        0.45163832528682
C           -1.11334156707411       -2.71373337028865        0.50544462641364
C           -2.30600657762747       -2.71290338375016        0.50674038183979
C            0.47999712256351       -3.17088400796595       -1.94274326504015
C            1.05231032213845       -2.98912784578310       -3.33593942670847
C            2.50647510746055       -2.27731523940071       -0.72331805481855
C            3.33386727393842       -1.39878721839626       -1.65187547720708
H            0.10677063387321        0.02277424256811        0.82252841469282
H            0.49578527584328        1.21034756339335       -0.40180267674288
H            1.78005568265738        0.22760995535876        0.27910372715852
H           -0.58092074050810       -0.86096590233217       -1.35496892226639
H            0.97649192559580       -0.45469173128767       -2.07663464493935
H            0.75146222525280       -3.70731626449400        0.62309903914603
H            0.75610757100066       -2.06611534561099        1.26036279716842
H           -3.37056444386871       -2.71511802658329        0.51450290324981
H            0.70390407308770       -4.18186027569158       -1.59149624508203
H           -0.60631632886993       -3.05978791953526       -1.97812500210359
H            2.09240961731431       -3.30345170227057       -3.39310223859024
H            0.49476308534630       -3.62145317139111       -4.02847960071185
H            0.95611909749556       -1.96640270532046       -3.69244775027594
H            2.75679797111838       -2.00171809334340        0.30525581071324
H            2.78522368110501       -3.32679685234875       -0.85427667870162
H            3.20916548499403       -0.34079668687037       -1.43034420379950
H            4.39081526293380       -1.62863876849656       -1.50362583440083
H            3.11960844570844       -1.55780565595093       -2.70372546505074
28
 energy: -30.899901805106 gnorm: 0.021690162577 xtb: 6.7.1 (edcfbbe)
C            0.74043307463896        0.19484157777778       -0.04069567778649
C            0.49326664396916       -0.81167787470953       -1.15336492923409
N            0.97566574648231       -2.20410456786266       -0.86566174787256
C            0.39170869669179       -2.69234684667236        0.43920578080428
C           -1.06031466065275       -2.69284303047494        0.45598739687750
C           -2.25245588032497       -2.69028228764894        0.47237698374214
C            0.48156420428304       -3.15370811125451       -1.93128821896765
C            1.04922938137212       -2.98205362010272       -3.32842737590652
C            2.48058878726234       -2.27483384539240       -0.72261460325195
C            3.31212869762045       -1.39521945751829       -1.64563875635702
H            0.10350994614617        0.01608900192310        0.82149148327471
H            0.49361787438711        1.18556996560616       -0.41764418840918
H            1.77832028072995        0.21981702087527        0.27967355922791
H           -0.58011199086361       -0.88108960374814       -1.34138945418599
H            0.98126883679092       -0.47728999368145       -2.06829727006070
H            0.75033567057676       -3.71123448545190        0.61605209552340
H            0.75378679189112       -2.05560993173869        1.24971418164712
H           -3.30694886699762       -2.71233939634500        0.50314568794583
H            0.70730849977620       -4.16333399982770       -1.58171625459522
H           -0.60431979006589       -3.04376714875773       -1.95672997184649
H            2.08723130562746       -3.29592796755236       -3.39102508546312
H            0.48244097272841       -3.62339297588609       -4.00142252680103
H            0.94855378833521       -1.96564314021718       -3.69693951320633
H            2.72519729714078       -2.00444236116510        0.30688155197515
H            2.75765583893115       -3.32168273876606       -0.86408213234793
H            3.19778049364470       -0.33806360322422       -1.42389574273711
H            4.36007376792839       -1.64425429763641       -1.47988164942930
H            3.10908459195028       -1.55642628054789       -2.69796362255938
28
 energy: -30.900305544029 gnorm: 0.008520126234 xtb: 6.7.1 (edcfbbe)
C            0.73629083905606        0.18814710018113       -0.04110945174308
C            0.49465215524918       -0.82428660735335       -1.15053434234894
N            0.98455724143277       -2.20510051876564       -0.86503827312935
C            0.39932943479530       -2.68727367874292        0.42747768141589
C           -1.04695506885886       -2.69534502359184        0.43003638347877
C           -2.24534659950318       -2.70612820683667        0.45177715895619
C            0.48572195860685       -3.14694705782388       -1.92166985871014
C            1.04369940426349       -2.97739168757201       -3.32346909191324
C            2.47852576593237       -2.27310106867859       -0.72233129482675
C            3.31077122911313       -1.38869580831154       -1.63905065473311
H            0.09599849382195        0.01280604122241        0.81870073381387
H            0.48724116145767        1.17359125541499       -0.42818832515874
H            1.77250277086492        0.21716916055200        0.28279971127203
H           -0.57936285542605       -0.89340045279796       -1.33497819832063
H            0.98132644145647       -0.48908591684736       -2.06479373101317
H            0.75930791808774       -3.70408809138252        0.60928515934966
H            0.75257932222486       -2.04705614495168        1.23857680436470
H           -3.29423712179313       -2.70407692916493        0.50024834308492
H            0.71060729392599       -4.15969990050271       -1.57992422738182
H           -0.60071050314459       -3.03849463352169       -1.94633013021815
H            2.08194702181608       -3.28786697602606       -3.39037215021569
H            0.47219505470220       -3.62731954834654       -3.98308101677779
H            0.93688887163798       -1.96457798588597       -3.70008957894405
H            2.72126047081821       -2.00540313617726        0.30762874123813
H            2.75855870105050       -3.31782896776950       -0.86968231851961
H            3.19387984212976       -0.33327795466204       -1.41422105279554
H            4.35470449927352       -1.64232164196643       -1.46425034879584
H            3.11066625700878       -1.54819561969145       -2.69156667142860
28
 energy: -30.900350925405 gnorm: 0.003163674881 xtb: 6.7.1 (edcfbbe)
C            0.73721806321435        0.18649497551131       -0.04163823909742
C            0.49811660521363       -0.82827004920803       -1.15064132498016
N            0.98661600183047       -2.20859315803168       -0.86392705809970
C            0.40163756144389       -2.69014720974135        0.42761232321300
C           -1.04677241788154       -2.68083491960433        0.43010386419446
C           -2.24355368897498       -2.67467993853775        0.45666154152962
C            0.48691967400523       -3.14788626000416       -1.92017606399346
C            1.03739563650289       -2.97662342347513       -3.32525915575137
C            2.47851042989899       -2.27651866562294       -0.72330774366748
C            3.31160747772524       -1.38873708929710       -1.63717565778711
H            0.09432419201687        0.01236569245082        0.81660527281314
H            0.48885683147682        1.17080526755039       -0.43129358149770
H            1.77225124434207        0.21543711719908        0.28585862740774
H           -0.57625839555229       -0.89680756611287       -1.33370094757515
H            0.98242844465526       -0.49118334434141       -2.06551219182979
H            0.75795703228864       -3.70830284899414        0.61280765196946
H            0.75771122987952       -2.05086534294520        1.23836340380289
H           -3.29204080910023       -2.70776512032219        0.49409165007943
H            0.71231673102523       -4.16252093614654       -1.58315948826465
H           -0.59996541375803       -3.04066297097566       -1.94248780387383
H            2.07701156778164       -3.28169538049436       -3.39640485875895
H            0.46532065577593       -3.63051957520127       -3.98004423089832
H            0.92381750363380       -1.96489006781922       -3.70286660853332
H            2.72405237851757       -2.01182742612086        0.30700820763427
H            2.76127977882815       -3.32021584916228       -0.87411128654671
H            3.19260723062037       -0.33403855563517       -1.41000587254115
H            4.35509091911890       -1.64121111807166       -1.46132462779827
H            3.11214353547150       -1.54555623684625       -2.69022580114955
28
 energy: -30.900394284753 gnorm: 0.003307009866 xtb: 6.7.1 (edcfbbe)
C            0.73519127337678        0.18715784147165       -0.04258586645928
C            0.49881533209911       -0.82850657811784       -1.15202211953049
N            0.98744433382251       -2.20918027688163       -0.86321367739955
C            0.40226664633011       -2.68968565783571        0.42994723133198
C           -1.04800313153982       -2.68741461957432        0.42823645362426
C           -2.24356638484958       -2.68805419267087        0.45113124826756
C            0.48958713629616       -3.14976969305512       -1.91985596145903
C            1.03556674548477       -2.97609967683214       -3.32679088743145
C            2.47951868161521       -2.27632397410814       -0.72239264163419
C            3.31253556454502       -1.38558607222572       -1.63455345097590
H            0.08964403452671        0.01311841724435        0.81388551196452
H            0.48788337697876        1.17120152727607       -0.43328471689821
H            1.76914794382947        0.21599289832320        0.28853151355987
H           -0.57541005485817       -0.89842500178449       -1.33571560976630
H            0.98266925059103       -0.49061662294018       -2.06698849605695
H            0.76012304622401       -3.70713221363142        0.61703802689424
H            0.75581630025384       -2.04986123033191        1.24200143306127
H           -3.29271442841586       -2.70186752797473        0.49121572508390
H            0.71801742751122       -4.16442672418742       -1.58438441640234
H           -0.59780436171823       -3.04549588532939       -1.94005634922050
H            2.07707927306640       -3.27443393619248       -3.40081888248376
H            0.46565446510225       -3.63371857769191       -3.97948445767329
H            0.91459611429778       -1.96517395509289       -3.70441090610236
H            2.72643798587406       -2.01399237450121        0.30851096572862
H            2.76469096628090       -3.31930470419730       -0.87540651465927
H            3.19106293637199       -0.33135443600993       -1.40578125516416
H            4.35646692879181       -1.63556723591392       -1.45871149114039
H            3.11388259811171       -1.54072951723455       -2.68819040905890
28
 energy: -30.900419298152 gnorm: 0.001327131909 xtb: 6.7.1 (edcfbbe)
C            0.73309608297871        0.18659046203387       -0.04351801997289
C            0.49959000022879       -0.82980030173451       -1.15325029310345
N            0.98979812358924       -2.21024485297819       -0.86362498142838
C            0.40276504651366       -2.68954504453996        0.42977035395200
C           -1.04800231691423       -2.68877081307318        0.42767927095713
C           -2.24450819825529       -2.68994464933737        0.45024314221563
C            0.49192064302182       -3.15252356087856       -1.91916102751675
C            1.03226023998532       -2.97460691775868       -3.32801509852261
C            2.48182932507386       -2.27716610891980       -0.72177727611747
C            3.31406437386590       -1.38242875223716       -1.63142433900830
H            0.08370422753925        0.01348148768834        0.81036543605727
H            0.48851156220445        1.17050923066968       -0.43604429277919
H            1.76563779198110        0.21443579733639        0.29215770869644
H           -0.57427066020489       -0.90114981155891       -1.33879977727114
H            0.98463093201475       -0.49205920864683       -2.06760786263341
H            0.75995613412817       -3.70691613215637        0.61800172223291
H            0.75512674895627       -2.04927922850889        1.24205612579826
H           -3.29428063370839       -2.69791211494315        0.48872851510519
H            0.72618381127102       -4.16636284015895       -1.58506853404296
H           -0.59616419388789       -3.05300464134439       -1.93568512044614
H            2.07642470724322       -3.26297156720251       -3.40606993631515
H            0.46603638421710       -3.63803824924981       -3.97785715791936
H            0.90034591864050       -1.96500154347679       -3.70578735925025
H            2.72908141784400       -2.01831086729326        0.31012544980328
H            2.76842668126438       -3.31936588003471       -0.87830902253598
H            3.18979267723687       -0.32890249475917       -1.40025876906260
H            4.35843180218058       -1.63031169604886       -1.45535921820071
H            3.11621137099172       -1.53564970088822       -2.68565963869146
28
 energy: -30.900465369076 gnorm: 0.003168786136 xtb: 6.7.1 (edcfbbe)
C            0.72409465479999        0.18187370441185       -0.04722267706157
C            0.50278751641553       -0.83694081907220       -1.15802020061952
N            0.99684751995479       -2.21546856277189       -0.86302973145968
C            0.40552722985611       -2.69061870967016        0.43018873687734
C           -1.04545672247730       -2.68779913895713        0.42396781283688
C           -2.24275842704099       -2.68479545488201        0.44629844286684
C            0.50194011004726       -3.16284129594715       -1.91543140215411
C            1.01795439730654       -2.96747231179689       -3.33196550958363
C            2.48832884768296       -2.28015059038331       -0.72010023002457
C            3.31803382964235       -1.37055480015948       -1.61910132715020
H            0.05901639996528        0.01388379295677        0.79596949369102
H            0.49181901251127        1.16562960632635       -0.44727364870567
H            1.75088583068459        0.20468701340774        0.30651293883361
H           -0.56940859647994       -0.91307928316162       -1.35137862608025
H            0.99356355156467       -0.49922571127911       -2.06917013215968
H            0.75963213897809       -3.70819186792893        0.62132155903654
H            0.75606803883131       -2.04829220481925        1.24151188574082
H           -3.29367337774734       -2.68285063832246        0.47563063963979
H            0.76069476550143       -4.17352102899313       -1.58846519286577
H           -0.58861670017904       -3.08389814268811       -1.91703991119503
H            2.07240430187775       -3.21519267966728       -3.42481221404529
H            0.46787896013772       -3.65484622149500       -3.97107579039910
H            0.84167570622873       -1.96351366366981       -3.71006321049923
H            2.73594169867697       -2.03480075586627        0.31535921046958
H            2.77985929705027       -3.31905960327088       -0.89076852011169
H            3.18455533396594       -0.32000215472722       -1.37855454507232
H            4.36371596846523       -1.61203470103024       -1.44205610883162
H            3.12328871377983       -1.51617377654310       -2.67538174197362
28
 energy: -30.900486224632 gnorm: 0.002224258774 xtb: 6.7.1 (edcfbbe)
C            0.72049063539037        0.17932854425318       -0.04824564643398
C            0.50311677268803       -0.83899086677022       -1.15984678699549
N            0.99751145528786       -2.21685203414244       -0.86313503287123
C            0.40644259687073       -2.69138286241033        0.43031181580543
C           -1.04396352936636       -2.68536132044305        0.42384267933069
C           -2.24109083267484       -2.67903353705349        0.44680946711519
C            0.50450313305472       -3.16578610285300       -1.91509634881119
C            1.01449302614319       -2.96519020311965       -3.33249060617989
C            2.48948663193592       -2.28014132702527       -0.71968495360478
C            3.31831480576754       -1.36787273110279       -1.61596086858324
H            0.05113035378720        0.01286135951591        0.79161905364932
H            0.49264441200248        1.16380960702261       -0.44908684236404
H            1.74558304712248        0.19989314562966        0.31029838351801
H           -0.56827226197270       -0.91629737114032       -1.35668612905582
H            0.99682504632445       -0.50092843483448       -2.06920631806006
H            0.75945968987831       -3.70935249600202        0.62113732916228
H            0.75820512949683       -2.04904921006743        1.24091209790600
H           -3.29169580293856       -2.67918648400230        0.47315582967471
H            0.77073515197341       -4.17502188255378       -1.59025504261835
H           -0.58622506072171       -3.09335055615697       -1.91268318897959
H            2.07046460063151       -3.20221568126988       -3.42784083609040
H            0.47067511786017       -3.65756180905015       -3.97110330291271
H            0.82759090458102       -1.96338882707994       -3.70923109096364
H            2.73593707109922       -2.03733663412468        0.31636249811542
H            2.78162034943016       -3.31816135457760       -0.89313628733850
H            3.18418417377422       -0.31809634758009       -1.37325953916626
H            4.36418833483601       -1.60904669784113       -1.43907378585558
H            3.12424504773834       -1.51153788522025       -2.67257654739244
28
 energy: -30.900505099509 gnorm: 0.000585836823 xtb: 6.7.1 (edcfbbe)
C            0.71277625376501        0.17453039643173       -0.04977294771803
C            0.50318259749619       -0.84253495305084       -1.16335429349541
N            0.99849740317909       -2.21890873733907       -0.86347794084932
C            0.40781465097755       -2.69306701960207        0.43005952033418
C           -1.04192620759454       -2.68209375854940        0.42328890054469
C           -2.23840345676475       -2.67117826807354        0.44721283788594
C            0.50964255710386       -3.17079185486315       -1.91464145081941
C            1.01030941497740       -2.96089614906358       -3.33314184919945
C            2.49144646546095       -2.27931603434724       -0.71895032188927
C            3.31895106464294       -1.36329332653219       -1.61098067090293
H            0.03574103745672        0.00982991269128        0.78395701648613
H            0.49209613604044        1.16041273628997       -0.45144659430750
H            1.73487888684662        0.19152740348865        0.31741983324761
H           -0.56666132691741       -0.92187642014627       -1.36720933479399
H            1.00233605094822       -0.50294054567475       -2.06909001516351
H            0.75941002459889       -3.71174321833750        0.62010785548891
H            0.76177381362848       -2.05136833944899        1.24006749852170
H           -3.28852769540390       -2.67197579866271        0.47109887635214
H            0.78846287590497       -4.17745526104202       -1.59317172068957
H           -0.58137335711515       -3.10972661824976       -1.90565219179780
H            2.06909799447260       -3.17984196579630       -3.43237987338875
H            0.47664802548368       -3.66182375578088       -3.97103931756281
H            0.80483693898432       -1.96269988377584       -3.70794955212667
H            2.73516318790932       -2.03933304893577        0.31792005865605
H            2.78491635471330       -3.31603213350384       -0.89549636888287
H            3.18485037630352       -0.31465112683801       -1.36448193107713
H            4.36499539256223       -1.60483719774081       -1.43485717667986
H            3.12566454033949       -1.50316503354700       -2.66818884617323
28
 energy: -30.900512708223 gnorm: 0.000876931262 xtb: 6.7.1 (edcfbbe)
C            0.70414026257427        0.17038262229474       -0.05060876502623
C            0.50324732231778       -0.84586137676119       -1.16640113753183
N            1.00000316523244       -2.22079961217840       -0.86409281914606
C            0.40902991320934       -2.69452727311375        0.42935731947580
C           -1.04057148578904       -2.67997770687597        0.42293175440558
C           -2.23689019145041       -2.66581458626174        0.44771147441068
C            0.51503101578202       -3.17500559973725       -1.91486673682393
C            1.00790835144734       -2.95748263128736       -3.33458784080999
C            2.49356292544831       -2.27791704121562       -0.71773176975151
C            3.32027179474786       -1.35912956538368       -1.60680444784024
H            0.02016021830269        0.00564636842822        0.77732793719540
H            0.48820461774171        1.15712154038050       -0.45286109839587
H            1.72337012292423        0.18564386133635        0.32474261399707
H           -0.56507874508891       -0.92752939278009       -1.37724303409039
H            1.00726846105591       -0.50417424610500       -2.06863301038591
H            0.75886875580864       -3.71407085627291        0.61844790751949
H            0.76450066837589       -2.05433052780862        1.23996506826769
H           -3.28681366458636       -2.66479828905770        0.47212597270694
H            0.80413372782722       -4.17962448257269       -1.59638174128404
H           -0.57633019009915       -3.12363676137854       -1.90086287834658
H            2.06916990094732       -3.16127039442358       -3.43715421781194
H            0.48241489450241       -3.66524275254809       -3.97188525063980
H            0.78702780907649       -1.96222369085784       -3.70778828782864
H            2.73495356609575       -2.03897887192269        0.31978184410494
H            2.78901485633786       -3.31373679465626       -0.89539976218566
H            3.18670438483089       -0.31130088278454       -1.35662859326066
H            4.36640404537018       -1.60152147748344       -1.43207282877848
H            3.12689349705739       -1.49508957897274       -2.66453767214602
28
 energy: -30.900518928551 gnorm: 0.000678760486 xtb: 6.7.1 (edcfbbe)
C            0.69531022925211        0.16734815854426       -0.05067137927663
C            0.50302821990118       -0.84833749029433       -1.16866950251409
N            1.00210205182935       -2.22196917215696       -0.86473328432471
C            0.41007455592558       -2.69645159399765        0.42787880624164
C           -1.03969130014035       -2.67930405422787        0.42227154593719
C           -2.23600150661580       -2.66272735798818        0.44767040855410
C            0.52014908322313       -3.17785838241948       -1.91521679589795
C            1.00765122328919       -2.95513010710671       -3.33609642725097
C            2.49561228183423       -2.27633976035043       -0.71614973211645
C            3.32194336945272       -1.35581711016359       -1.60391908222850
H            0.00631895834102        0.00031111645805        0.77258964615825
H            0.48037035385600        1.15405856193387       -0.45322263342735
H            1.71211381902405        0.18367060397513        0.33104492541677
H           -0.56395881401401       -0.93250000381112       -1.38540837761376
H            1.01087796261533       -0.50424818669235       -2.06782320129247
H            0.75788605777500       -3.71693071024656        0.61592422297675
H            0.76654799248236       -2.05803640247844        1.23954281354786
H           -3.28596624143660       -2.65811169363632        0.47532833834838
H            0.81610117780605       -4.18118554424496       -1.59910594590284
H           -0.57149271781960       -3.13316203878620       -1.89839399190606
H            2.07030478120055       -3.14907294217923       -3.44151883137220
H            0.48703621497111       -3.66707364116044       -3.97257795449021
H            0.77681336051477       -1.96187873867422       -3.70818471477220
H            2.73523825755500       -2.03649146497160        0.32166640007693
H            2.79366601641535       -3.31168782138830       -0.89282058274533
H            3.18904169206389       -0.30851525577354       -1.35063510643195
H            4.36811956017255       -1.59920714596093       -1.43102253031012
H            3.12740336052601       -1.48860182220178       -2.66189703338427
28
 energy: -30.900523220404 gnorm: 0.000499844536 xtb: 6.7.1 (edcfbbe)
C            0.68500422963183        0.16420538893182       -0.04992434768778
C            0.50266156568849       -0.85086895498822       -1.17028336813046
N            1.00418066765824       -2.22354391406977       -0.86538643077342
C            0.41123843592278       -2.69867981261945        0.42665747346929
C           -1.03868791944922       -2.67845302911976        0.42225614171752
C           -2.23513835746652       -2.65839997131046        0.44782958531762
C            0.52590062512369       -3.18037678763403       -1.91669582019128
C            1.00944011260962       -2.95329262508511       -3.33843544561248
C            2.49728721268922       -2.27401139679270       -0.71408955495365
C            3.32342074037541       -1.35267725368782       -1.60170190736228
H           -0.00761690348136       -0.00736497165236        0.76933482848504
H            0.46774657090053        1.15039642839714       -0.45236957342019
H            1.69971088142320        0.18435021924853        0.33688593869948
H           -0.56278868506972       -0.93817624497964       -1.39311067795920
H            1.01445050358337       -0.50392625736479       -2.06608630335318
H            0.75654518167212       -3.72038693662072        0.61215924310994
H            0.76912548722136       -2.06305827340714        1.23996782586325
H           -3.28507270898863       -2.65066903863834        0.47977947187906
H            0.82772784268938       -4.18253582949441       -1.60255597278074
H           -0.56601643100556       -3.14129543543274       -1.89805160038736
H            2.07314525738581       -3.13996009305079       -3.44619120130530
H            0.49206949183194       -3.66833285823220       -3.97406452810934
H            0.77101755135792       -1.96124351404009       -3.70909562706559
H            2.73502913581170       -2.03185762773251        0.32379630896283
H            2.79824635481981       -3.30903739266350       -0.88831511838129
H            3.19145789178359       -0.30583665024312       -1.34566931006948
H            4.36968723340349       -1.59720721013881       -1.43117038549618
H            3.12682803187773       -1.48300995757888       -2.65961964446503
