      -----------------------------------------------------------      
     |                   =====================                   |     
     |                           x T B                           |     
     |                   =====================                   |     
     |                         S. Grimme                         |     
     |          Mulliken Center for Theoretical Chemistry        |     
     |                    University of Bonn                     |     
      -----------------------------------------------------------      

   * xtb version 6.7.1 (edcfbbe) compiled by 'conda@3ef47c1a292c' on 2024-11-25

   xtb is free software: you can redistribute it and/or modify it under
   the terms of the GNU Lesser General Public License as published by
   the Free Software Foundation, either version 3 of the License, or
   (at your option) any later version.
   
   xtb is distributed in the hope that it will be useful,
   but WITHOUT ANY WARRANTY; without even the implied warranty of
   MERCHANTABILITY or FITNESS FOR A PARTICULAR PURPOSE.  See the
   GNU Lesser General Public License for more details.
   
   Cite this work as:
   * C. Bannwarth, E. Caldeweyher, S. Ehlert, A. Hansen, P. Pracht,
     J. Seibert, S. Spicher, S. Grimme, WIREs Comput. Mol. Sci., 2020, 11,
     e01493. DOI: 10.1002/wcms.1493
   
   for GFN2-xTB:
   * C. Bannwarth, S. Ehlert and S. Grimme., J. Chem. Theory Comput., 2019,
     15, 1652-1671. DOI: 10.1021/acs.jctc.8b01176
   for GFN1-xTB:
   * S. Grimme, C. Bannwarth, P. Shushkov, J. Chem. Theory Comput., 2017,
     13, 1989-2009. DOI: 10.1021/acs.jctc.7b00118
   for GFN0-xTB:
   * P. Pracht, E. Caldeweyher, S. Ehlert, S. Grimme, ChemRxiv, 2019, preprint.
     DOI: 10.26434/chemrxiv.8326202.v1
   for GFN-FF:
   * S. Spicher and S. Grimme, Angew. Chem. Int. Ed., 2020, 59, 15665-15673.
     DOI: 10.1002/anie.202004239
   
   for ALPB and GBSA implicit solvation:
   * S. Ehlert, M. Stahn, S. Spicher, S. Grimme, J. Chem. Theory Comput.,
     2021, 17, 4250-4261. DOI: 10.1021/acs.jctc.1c00471
   
   for ddCOSMO and CPCM-X implicit solvation:
   * M. Stahn, S. Ehlert, S. Grimme, J. Phys. Chem. A,
     2023, XX, XXXX-XXXX. DOI: 10.1021/acs.jpca.3c04382
   
   for DFT-D4:
   * E. Caldeweyher, C. Bannwarth and S. Grimme, J. Chem. Phys., 2017,
     147, 034112. DOI: 10.1063/1.4993215
   * E. Caldeweyher, S. Ehlert, A. Hansen, H. Neugebauer, S. Spicher,
     C. Bannwarth and S. Grimme, J. Chem. Phys., 2019, 150, 154122.
     DOI: 10.1063/1.5090222
   * E. Caldeweyher, J.-M. Mewes, S. Ehlert and S. Grimme, Phys. Chem. Chem. Phys.
     2020, 22, 8499-8512. DOI: 10.1039/D0CP00502A
   
   for sTDA-xTB:
   * S. Grimme and C. Bannwarth, J. Chem. Phys., 2016, 145, 054103.
     DOI: 10.1063/1.4959605
   
   in the mass-spec context:
   * V. Asgeirsson, C. Bauer and S. Grimme, Chem. Sci., 2017, 8, 4879.
     DOI: 10.1039/c7sc00601b
   * J. Koopman and S. Grimme, ACS Omega 2019, 4, 12, 15120-15133.
     DOI: 10.1021/acsomega.9b02011
   
   for metadynamics refer to:
   * S. Grimme, J. Chem. Theory Comput., 2019, 155, 2847-2862
     DOI: 10.1021/acs.jctc.9b00143
   
   for SPH calculations refer to:
   * S. Spicher and S. Grimme, J. Chem. Theory Comput., 2021, 17, 1701-1714
     DOI: 10.1021/acs.jctc.0c01306
   
   for ONIOM refer to:
   * C. Plett, A. Katbashev, S. Ehlert, S. Grimme, M. Bursch,
     Phys. Chem. Chem. Phys., 2023, 25, 17860-17868. DOI: 10.1039/D3CP02178E
   
   for DIPRO refer to:
   * J. Kohn, N. Gildemeister, S. Grimme, D. Fazzi, A. Hansen,
     J. Chem. Phys., 2023, just accepted.
   
   for PTB refer to:
   * S. Grimme, M. Mueller, A. Hansen, J. Chem. Phys., 2023, 158, 124111.
     DOI: 10.1063/5.0137838
   
   with help from (in alphabetical order)
   P. Atkinson, C. Bannwarth, F. Bohle, G. Brandenburg, E. Caldeweyher
   M. Checinski, S. Dohm, S. Ehlert, S. Ehrlich, I. Gerasimov, C. Hölzer
   A. Katbashev, J. Kohn, J. Koopman, C. Lavigne, S. Lehtola, F. März, M. Müller,
   F. Musil, H. Neugebauer, J. Pisarek, C. Plett, P. Pracht, F. Pultar,
   J. Seibert, P. Shushkov, S. Spicher, M. Stahn, M. Steiner, T. Strunk,
   J. Stückrath, T. Rose, and J. Unsleber
   
 * started run on 2024/12/20 at 06:58:12.197     
   ID    Z sym.   atoms
    1    6 C      1, 3, 5-8, 12-20
    2    7 N      2, 4, 9-11
    3    1 H      21-38

           -------------------------------------------------
          |                Calculation Setup                |
           -------------------------------------------------

          program call               : xtb C0797.xyz --opt --namespace C0797 --charge +1
          calculation namespace      : C0797
          coordinate file            : C0797.xyz
          omp threads                :                     8


           -------------------------------------------------
          |                 G F N 2 - x T B                 |
           -------------------------------------------------

        Reference                      10.1021/acs.jctc.8b01176
      * Hamiltonian:
        H0-scaling (s, p, d)           1.850000    2.230000    2.230000
        zeta-weighting                 0.500000
      * Dispersion:
        s8                             2.700000
        a1                             0.520000
        a2                             5.000000
        s9                             5.000000
      * Repulsion:
        kExp                           1.500000    1.000000
        rExp                           1.000000
      * Coulomb:
        alpha                          2.000000
        third order                    shell-resolved
        anisotropic                    true
        a3                             3.000000
        a5                             4.000000
        cn-shift                       1.200000
        cn-exp                         4.000000
        max-rad                        5.000000


          ...................................................
          :                      SETUP                      :
          :.................................................:
          :  # basis functions                  98          :
          :  # atomic orbitals                  98          :
          :  # shells                           58          :
          :  # electrons                       102          :
          :  max. iterations                   250          :
          :  Hamiltonian                  GFN2-xTB          :
          :  restarted?                      false          :
          :  GBSA solvation                  false          :
          :  PC potential                    false          :
          :  electronic temp.          300.0000000     K    :
          :  accuracy                    1.0000000          :
          :  -> integral cutoff          0.2500000E+02      :
          :  -> integral neglect         0.1000000E-07      :
          :  -> SCF convergence          0.1000000E-05 Eh   :
          :  -> wf. convergence          0.1000000E-03 e    :
          :  Broyden damping             0.4000000          :
          :  net charge                          1          :
          :  unpaired electrons                  0          :
          ...................................................

 iter      E             dE          RMSdq      gap      omega  full diag
   1    -56.2051031 -0.562051E+02  0.358E+00    3.90       0.0  T
   2    -56.3228398 -0.117737E+00  0.236E+00    3.38       1.0  T
   3    -56.3306481 -0.780823E-02  0.120E+00    2.98       1.0  T
   4    -56.3307643 -0.116279E-03  0.368E-01    2.43       1.0  T
   5    -56.3350209 -0.425657E-02  0.107E-01    2.48       1.0  T
   6    -56.3352468 -0.225915E-03  0.458E-02    2.52       1.0  T
   7    -56.3352712 -0.244210E-04  0.226E-02    2.53       1.0  T
   8    -56.3352733 -0.203940E-05  0.545E-03    2.53       3.0  T
   9    -56.3352738 -0.481514E-06  0.194E-03    2.53       8.3  T
  10    -56.3352738 -0.401624E-07  0.891E-04    2.53      18.2  T
  11    -56.3352738 -0.168283E-07  0.334E-04    2.53      48.5  T

   *** convergence criteria satisfied after 11 iterations ***

         #    Occupation            Energy/Eh            Energy/eV
      -------------------------------------------------------------
         1        2.0000           -0.8753756             -23.8202
       ...           ...                  ...                  ...
        45        2.0000           -0.5298819             -14.4188
        46        2.0000           -0.5219311             -14.2025
        47        2.0000           -0.5098558             -13.8739
        48        2.0000           -0.5058658             -13.7653
        49        2.0000           -0.4980768             -13.5534
        50        2.0000           -0.4873967             -13.2627
        51        2.0000           -0.4859963             -13.2246 (HOMO)
        52                         -0.3929740             -10.6934 (LUMO)
        53                         -0.3575402              -9.7292
        54                         -0.3561784              -9.6921
        55                         -0.3153023              -8.5798
        56                         -0.3146668              -8.5625
       ...                                ...                  ...
        98                          0.5451697              14.8348
      -------------------------------------------------------------
                  HL-Gap            0.0930223 Eh            2.5313 eV
             Fermi-level           -0.4394852 Eh          -11.9590 eV

 SCC (total)                   0 d,  0 h,  0 min,  0.026 sec
 SCC setup                      ...        0 min,  0.000 sec (  0.523%)
 Dispersion                     ...        0 min,  0.000 sec (  1.720%)
 classical contributions        ...        0 min,  0.000 sec (  0.245%)
 integral evaluation            ...        0 min,  0.002 sec (  7.204%)
 iterations                     ...        0 min,  0.018 sec ( 70.826%)
 molecular gradient             ...        0 min,  0.005 sec ( 18.918%)
 printout                       ...        0 min,  0.000 sec (  0.502%)

         :::::::::::::::::::::::::::::::::::::::::::::::::::::
         ::                     SUMMARY                     ::
         :::::::::::::::::::::::::::::::::::::::::::::::::::::
         :: total energy             -55.528593179524 Eh    ::
         :: gradient norm              0.090017979375 Eh/a0 ::
         :: HOMO-LUMO gap              2.531265701913 eV    ::
         ::.................................................::
         :: SCC energy               -56.335027705781 Eh    ::
         :: -> isotropic ES            0.083520567529 Eh    ::
         :: -> anisotropic ES         -0.005781955098 Eh    ::
         :: -> anisotropic XC          0.044305203593 Eh    ::
         :: -> dispersion             -0.036314996090 Eh    ::
         :: repulsion energy           0.806434526257 Eh    ::
         :: add. restraining           0.000000000000 Eh    ::
         :: total charge               1.000000000000 e     ::
         :::::::::::::::::::::::::::::::::::::::::::::::::::::

      ----------------------------------------------------------- 
     |                   =====================                   |
     |                        A N C O P T                        |
     |                   =====================                   |
     |               Approximate Normal Coordinate               |
     |                Rational Function Optimizer                |
      ----------------------------------------------------------- 
      ----------------------------------------------------------- 
     |                   =====================                   |
     |                        A N C O P T                        |
     |                   =====================                   |
     |               Approximate Normal Coordinate               |
     |                Rational Function Optimizer                |
      ----------------------------------------------------------- 

          ...................................................
          :                      SETUP                      :
          :.................................................:
          :   optimization level            normal          :
          :   max. optcycles                   200          :
          :   ANC micro-cycles                  20          :
          :   degrees of freedom               108          :
          :.................................................:
          :   RF solver                   davidson          :
          :   write xtbopt.log                true          :
          :   linear?                        false          :
          :   energy convergence         0.5000000E-05 Eh   :
          :   grad. convergence          0.1000000E-02 Eh/α :
          :   maxmium RF displ.          1.0000000          :
          :   Hlow (freq-cutoff)         0.1000000E-01      :
          :   Hmax (freq-cutoff)         5.0000000          :
          :   S6 in model hess.         20.0000000          :
          ...................................................

generating ANC from exact Hessian ...
Using Lindh-Hessian (1995)
 Shifting diagonal of input Hessian by    9.6968362595507267E-003
 Lowest  eigenvalues of input Hessian
    0.000000    0.000000    0.000000    0.000000    0.000000    0.000000
    0.010000    0.010128    0.010420    0.010557    0.011109    0.013258
    0.014986    0.015833    0.018147    0.018920    0.020038    0.021944
 Highest eigenvalues
    1.943230    1.976268    1.979476    2.023722    2.058371    2.065214


........................................................................
.............................. CYCLE    1 ..............................
........................................................................

 iter      E             dE          RMSdq      gap      omega  full diag
   1    -56.3352738 -0.563353E+02  0.126E-04    2.53       0.0  T
   2    -56.3352738 -0.152674E-09  0.730E-05    2.53     222.2  T
   3    -56.3352738 -0.735412E-10  0.448E-05    2.53     362.0  T
     SCC iter.                  ...        0 min,  0.005 sec
     gradient                   ...        0 min,  0.005 sec
 * total energy  :   -55.5285932 Eh     change       -0.6401848E-09 Eh
   gradient norm :     0.0900163 Eh/α   predicted     0.0000000E+00 (-100.00%)
   displ. norm   :     0.2138947 α      lambda       -0.1211509E-01
   maximum displ.:     0.0679941 α      in ANC's #63, #33, #62, ...

........................................................................
.............................. CYCLE    2 ..............................
........................................................................

 iter      E             dE          RMSdq      gap      omega  full diag
   1    -56.3856667 -0.563857E+02  0.202E-01    2.67       0.0  T
   2    -56.3858135 -0.146714E-03  0.119E-01    2.65       1.0  T
   3    -56.3858062  0.723034E-05  0.443E-02    2.66       1.0  T
   4    -56.3858276 -0.213697E-04  0.101E-02    2.65       1.6  T
   5    -56.3858304 -0.279356E-05  0.329E-03    2.66       4.9  T
   6    -56.3858304 -0.412781E-07  0.165E-03    2.66       9.8  T
   7    -56.3858305 -0.635996E-07  0.466E-04    2.66      34.8  T
   8    -56.3858305 -0.107718E-08  0.178E-04    2.66      91.1  T
     SCC iter.                  ...        0 min,  0.011 sec
     gradient                   ...        0 min,  0.005 sec
 * total energy  :   -55.5366954 Eh     change       -0.8102261E-02 Eh
   gradient norm :     0.0342319 Eh/α   predicted    -0.6335087E-02 ( -21.81%)
   displ. norm   :     0.1554100 α      lambda       -0.2587675E-02
   maximum displ.:     0.0522923 α      in ANC's #8, #18, #4, ...

........................................................................
.............................. CYCLE    3 ..............................
........................................................................

 iter      E             dE          RMSdq      gap      omega  full diag
   1    -56.4066178 -0.564066E+02  0.117E-01    2.72       0.0  T
   2    -56.4066823 -0.645547E-04  0.697E-02    2.71       1.0  T
   3    -56.4066822  0.976895E-07  0.285E-02    2.71       1.0  T
   4    -56.4066895 -0.728049E-05  0.562E-03    2.71       2.9  T
   5    -56.4066903 -0.744958E-06  0.175E-03    2.71       9.3  T
   6    -56.4066903 -0.184530E-07  0.895E-04    2.71      18.1  T
   7    -56.4066903 -0.180830E-07  0.286E-04    2.71      56.8  T
     SCC iter.                  ...        0 min,  0.010 sec
     gradient                   ...        0 min,  0.005 sec
 * total energy  :   -55.5380180 Eh     change       -0.1322586E-02 Eh
   gradient norm :     0.0086897 Eh/α   predicted    -0.1325236E-02 (   0.20%)
   displ. norm   :     0.0833601 α      lambda       -0.2283084E-03
   maximum displ.:     0.0392481 α      in ANC's #8, #4, #1, ...

........................................................................
.............................. CYCLE    4 ..............................
........................................................................

 iter      E             dE          RMSdq      gap      omega  full diag
   1    -56.4057271 -0.564057E+02  0.367E-02    2.71       0.0  T
   2    -56.4057283 -0.121371E-05  0.205E-02    2.71       1.0  T
   3    -56.4057283  0.263243E-07  0.382E-03    2.70       4.2  T
   4    -56.4057285 -0.214238E-06  0.125E-03    2.70      13.0  T
   5    -56.4057286 -0.223359E-07  0.591E-04    2.70      27.5  T
   6    -56.4057286 -0.260730E-08  0.108E-04    2.70     149.9  T
     SCC iter.                  ...        0 min,  0.008 sec
     gradient                   ...        0 min,  0.005 sec
 * total energy  :   -55.5381785 Eh     change       -0.1604435E-03 Eh
   gradient norm :     0.0053171 Eh/α   predicted    -0.1149564E-03 ( -28.35%)
   displ. norm   :     0.1587380 α      lambda       -0.2237965E-03
   maximum displ.:     0.0770007 α      in ANC's #4, #8, #1, ...

........................................................................
.............................. CYCLE    5 ..............................
........................................................................

 iter      E             dE          RMSdq      gap      omega  full diag
   1    -56.4034885 -0.564035E+02  0.562E-02    2.70       0.0  T
   2    -56.4034909 -0.241691E-05  0.318E-02    2.70       1.0  T
   3    -56.4034904  0.579225E-06  0.692E-03    2.70       2.3  T
   4    -56.4034915 -0.110067E-05  0.203E-03    2.70       8.0  T
   5    -56.4034915 -0.510196E-07  0.860E-04    2.70      18.9  T
   6    -56.4034915 -0.647501E-08  0.192E-04    2.70      84.5  T
     SCC iter.                  ...        0 min,  0.009 sec
     gradient                   ...        0 min,  0.005 sec
 * total energy  :   -55.5383235 Eh     change       -0.1449800E-03 Eh
   gradient norm :     0.0034093 Eh/α   predicted    -0.1147307E-03 ( -20.86%)
   displ. norm   :     0.1322323 α      lambda       -0.8826589E-04
   maximum displ.:     0.0687336 α      in ANC's #4, #1, #8, ...

........................................................................
.............................. CYCLE    6 ..............................
........................................................................

 iter      E             dE          RMSdq      gap      omega  full diag
   1    -56.4031128 -0.564031E+02  0.395E-02    2.70       0.0  T
   2    -56.4031143 -0.152128E-05  0.223E-02    2.70       1.0  T
   3    -56.4031139  0.386017E-06  0.523E-03    2.70       3.1  T
   4    -56.4031147 -0.783582E-06  0.161E-03    2.70      10.1  T
   5    -56.4031147 -0.200967E-07  0.706E-04    2.70      23.0  T
   6    -56.4031147 -0.752873E-08  0.144E-04    2.70     113.0  T
     SCC iter.                  ...        0 min,  0.009 sec
     gradient                   ...        0 min,  0.005 sec
 * total energy  :   -55.5383949 Eh     change       -0.7145269E-04 Eh
   gradient norm :     0.0039063 Eh/α   predicted    -0.4491111E-04 ( -37.15%)
   displ. norm   :     0.2314072 α      lambda       -0.1397047E-03
   maximum displ.:     0.1182646 α      in ANC's #4, #1, #8, ...

........................................................................
.............................. CYCLE    7 ..............................
........................................................................

 iter      E             dE          RMSdq      gap      omega  full diag
   1    -56.4031507 -0.564032E+02  0.692E-02    2.71       0.0  T
   2    -56.4031552 -0.446045E-05  0.389E-02    2.72       1.0  T
   3    -56.4031541  0.107724E-05  0.867E-03    2.72       1.9  T
   4    -56.4031564 -0.229314E-05  0.287E-03    2.72       5.7  T
   5    -56.4031564 -0.626248E-07  0.124E-03    2.72      13.0  T
   6    -56.4031565 -0.260313E-07  0.238E-04    2.72      68.1  T
   7    -56.4031565 -0.129981E-08  0.108E-04    2.72     150.8  T
     SCC iter.                  ...        0 min,  0.010 sec
     gradient                   ...        0 min,  0.005 sec
 * total energy  :   -55.5385104 Eh     change       -0.1155054E-03 Eh
   gradient norm :     0.0048585 Eh/α   predicted    -0.7359738E-04 ( -36.28%)
   displ. norm   :     0.3677614 α      lambda       -0.2044760E-03
   maximum displ.:     0.1892483 α      in ANC's #1, #4, #7, ...

........................................................................
.............................. CYCLE    8 ..............................
........................................................................

 iter      E             dE          RMSdq      gap      omega  full diag
   1    -56.4029345 -0.564029E+02  0.114E-01    2.73       0.0  T
   2    -56.4029445 -0.100227E-04  0.640E-02    2.74       1.0  T
   3    -56.4029420  0.253679E-05  0.132E-02    2.74       1.2  T
   4    -56.4029474 -0.544973E-05  0.461E-03    2.74       3.5  T
   5    -56.4029476 -0.161647E-06  0.179E-03    2.74       9.1  T
   6    -56.4029476 -0.543015E-07  0.371E-04    2.74      43.7  T
   7    -56.4029476 -0.285009E-08  0.169E-04    2.74      96.0  T
     SCC iter.                  ...        0 min,  0.009 sec
     gradient                   ...        0 min,  0.005 sec
 * total energy  :   -55.5386780 Eh     change       -0.1675813E-03 Eh
   gradient norm :     0.0067606 Eh/α   predicted    -0.1160754E-03 ( -30.73%)
   displ. norm   :     0.4588089 α      lambda       -0.2539743E-03
   maximum displ.:     0.2420968 α      in ANC's #1, #4, #7, ...

........................................................................
.............................. CYCLE    9 ..............................
........................................................................

 iter      E             dE          RMSdq      gap      omega  full diag
   1    -56.4024974 -0.564025E+02  0.145E-01    2.76       0.0  T
   2    -56.4025111 -0.136359E-04  0.817E-02    2.76       1.0  T
   3    -56.4025069  0.413469E-05  0.163E-02    2.76       1.0  T
   4    -56.4025153 -0.836500E-05  0.565E-03    2.76       2.9  T
   5    -56.4025155 -0.235144E-06  0.185E-03    2.76       8.8  T
   6    -56.4025156 -0.545075E-07  0.450E-04    2.76      36.0  T
   7    -56.4025156 -0.399332E-08  0.205E-04    2.76      79.2  T
     SCC iter.                  ...        0 min,  0.009 sec
     gradient                   ...        0 min,  0.006 sec
 * total energy  :   -55.5388790 Eh     change       -0.2009946E-03 Eh
   gradient norm :     0.0081797 Eh/α   predicted    -0.1537234E-03 ( -23.52%)
   displ. norm   :     0.4311458 α      lambda       -0.2876965E-03
   maximum displ.:     0.2405271 α      in ANC's #1, #4, #7, ...

........................................................................
.............................. CYCLE   10 ..............................
........................................................................

 iter      E             dE          RMSdq      gap      omega  full diag
   1    -56.4037706 -0.564038E+02  0.136E-01    2.78       0.0  T
   2    -56.4037815 -0.108602E-04  0.772E-02    2.78       1.0  T
   3    -56.4037780  0.347755E-05  0.141E-02    2.78       1.1  T
   4    -56.4037846 -0.655779E-05  0.515E-03    2.78       3.1  T
   5    -56.4037849 -0.308646E-06  0.189E-03    2.78       8.6  T
   6    -56.4037849 -0.393878E-07  0.356E-04    2.78      45.6  T
   7    -56.4037849 -0.180909E-08  0.182E-04    2.78      89.2  T
     SCC iter.                  ...        0 min,  0.010 sec
     gradient                   ...        0 min,  0.005 sec
 * total energy  :   -55.5391001 Eh     change       -0.2210755E-03 Eh
   gradient norm :     0.0063165 Eh/α   predicted    -0.1705935E-03 ( -22.83%)
   displ. norm   :     0.4397097 α      lambda       -0.2358795E-03
   maximum displ.:     0.2549679 α      in ANC's #1, #4, #7, ...

........................................................................
.............................. CYCLE   11 ..............................
........................................................................

 iter      E             dE          RMSdq      gap      omega  full diag
   1    -56.4038418 -0.564038E+02  0.137E-01    2.80       0.0  T
   2    -56.4038534 -0.115915E-04  0.777E-02    2.79       1.0  T
   3    -56.4038501  0.322388E-05  0.144E-02    2.80       1.1  T
   4    -56.4038568 -0.660461E-05  0.528E-03    2.80       3.1  T
   5    -56.4038570 -0.281500E-06  0.189E-03    2.80       8.6  T
   6    -56.4038571 -0.396935E-07  0.374E-04    2.80      43.4  T
   7    -56.4038571 -0.204919E-08  0.194E-04    2.80      83.6  T
     SCC iter.                  ...        0 min,  0.009 sec
     gradient                   ...        0 min,  0.005 sec
 * total energy  :   -55.5392836 Eh     change       -0.1835702E-03 Eh
   gradient norm :     0.0058600 Eh/α   predicted    -0.1407486E-03 ( -23.33%)
   displ. norm   :     0.3583679 α      lambda       -0.2489938E-03
   maximum displ.:     0.2315886 α      in ANC's #1, #4, #7, ...

........................................................................
.............................. CYCLE   12 ..............................
........................................................................

 iter      E             dE          RMSdq      gap      omega  full diag
   1    -56.4079579 -0.564080E+02  0.110E-01    2.80       0.0  T
   2    -56.4079739 -0.160535E-04  0.620E-02    2.80       1.0  T
   3    -56.4079724  0.153697E-05  0.154E-02    2.80       1.1  T
   4    -56.4079760 -0.361453E-05  0.462E-03    2.80       3.5  T
   5    -56.4079765 -0.477654E-06  0.197E-03    2.80       8.2  T
   6    -56.4079765 -0.371983E-07  0.459E-04    2.80      35.3  T
   7    -56.4079765 -0.343370E-08  0.173E-04    2.80      93.5  T
     SCC iter.                  ...        0 min,  0.010 sec
     gradient                   ...        0 min,  0.005 sec
 * total energy  :   -55.5394073 Eh     change       -0.1236325E-03 Eh
   gradient norm :     0.0062479 Eh/α   predicted    -0.1404902E-03 (  13.64%)
   displ. norm   :     0.6290025 α      lambda       -0.2886731E-03
   maximum displ.:     0.3812847 α      in ANC's #1, #4, #7, ...

........................................................................
.............................. CYCLE   13 ..............................
........................................................................

 iter      E             dE          RMSdq      gap      omega  full diag
   1    -56.4006455 -0.564006E+02  0.202E-01    2.82       0.0  T
   2    -56.4006750 -0.294628E-04  0.114E-01    2.81       1.0  T
   3    -56.4006644  0.105889E-04  0.269E-02    2.82       1.0  T
   4    -56.4006839 -0.194402E-04  0.797E-03    2.81       2.0  T
   5    -56.4006844 -0.516581E-06  0.297E-03    2.81       5.5  T
   6    -56.4006845 -0.833927E-07  0.870E-04    2.81      18.6  T
   7    -56.4006845 -0.225673E-07  0.307E-04    2.81      52.9  T
     SCC iter.                  ...        0 min,  0.010 sec
     gradient                   ...        0 min,  0.005 sec
 * total energy  :   -55.5394804 Eh     change       -0.7310499E-04 Eh
   gradient norm :     0.0121242 Eh/α   predicted    -0.2014527E-03 ( 175.57%)
   displ. norm   :     0.1401585 α      lambda       -0.2036817E-03
   maximum displ.:     0.0727776 α      in ANC's #4, #7, #1, ...

........................................................................
.............................. CYCLE   14 ..............................
........................................................................

 iter      E             dE          RMSdq      gap      omega  full diag
   1    -56.4050255 -0.564050E+02  0.561E-02    2.81       0.0  T
   2    -56.4050309 -0.541865E-05  0.311E-02    2.81       1.0  T
   3    -56.4050297  0.120673E-05  0.121E-02    2.81       1.3  T
   4    -56.4050319 -0.225097E-05  0.270E-03    2.81       6.0  T
   5    -56.4050321 -0.155599E-06  0.114E-03    2.81      14.3  T
   6    -56.4050321 -0.675897E-08  0.351E-04    2.81      46.2  T
   7    -56.4050321 -0.313435E-08  0.113E-04    2.81     143.0  T
     SCC iter.                  ...        0 min,  0.010 sec
     gradient                   ...        0 min,  0.005 sec
 * total energy  :   -55.5395978 Eh     change       -0.1174702E-03 Eh
   gradient norm :     0.0046673 Eh/α   predicted    -0.1038387E-03 ( -11.60%)
   displ. norm   :     0.1828339 α      lambda       -0.1031286E-03
   maximum displ.:     0.1434825 α      in ANC's #1, #7, #2, ...

........................................................................
.............................. CYCLE   15 ..............................
........................................................................

 iter      E             dE          RMSdq      gap      omega  full diag
   1    -56.4062338 -0.564062E+02  0.525E-02    2.82       0.0  T
   2    -56.4062366 -0.276604E-05  0.295E-02    2.82       1.0  T
   3    -56.4062361  0.452253E-06  0.659E-03    2.82       2.5  T
   4    -56.4062371 -0.102311E-05  0.205E-03    2.82       7.9  T
   5    -56.4062372 -0.591894E-07  0.949E-04    2.82      17.1  T
   6    -56.4062372 -0.118622E-07  0.205E-04    2.82      79.1  T
     SCC iter.                  ...        0 min,  0.008 sec
     gradient                   ...        0 min,  0.005 sec
 * total energy  :   -55.5396853 Eh     change       -0.8744499E-04 Eh
   gradient norm :     0.0022136 Eh/α   predicted    -0.5330086E-04 ( -39.05%)
   displ. norm   :     0.4481589 α      lambda       -0.1903048E-03
   maximum displ.:     0.3487976 α      in ANC's #1, #7, #2, ...

........................................................................
.............................. CYCLE   16 ..............................
........................................................................

 iter      E             dE          RMSdq      gap      omega  full diag
   1    -56.4057479 -0.564057E+02  0.132E-01    2.83       0.0  T
   2    -56.4057602 -0.122783E-04  0.747E-02    2.83       1.0  T
   3    -56.4057575  0.268378E-05  0.145E-02    2.83       1.1  T
   4    -56.4057639 -0.635416E-05  0.506E-03    2.83       3.2  T
   5    -56.4057640 -0.152392E-06  0.194E-03    2.83       8.4  T
   6    -56.4057641 -0.835527E-07  0.388E-04    2.83      41.9  T
   7    -56.4057641 -0.239806E-08  0.193E-04    2.83      83.8  T
     SCC iter.                  ...        0 min,  0.009 sec
     gradient                   ...        0 min,  0.005 sec
 * total energy  :   -55.5398358 Eh     change       -0.1505294E-03 Eh
   gradient norm :     0.0034056 Eh/α   predicted    -0.1143276E-03 ( -24.05%)
   displ. norm   :     0.4613006 α      lambda       -0.1552045E-03
   maximum displ.:     0.3701884 α      in ANC's #1, #7, #2, ...

........................................................................
.............................. CYCLE   17 ..............................
........................................................................

 iter      E             dE          RMSdq      gap      omega  full diag
   1    -56.4034821 -0.564035E+02  0.133E-01    2.84       0.0  T
   2    -56.4034942 -0.120158E-04  0.752E-02    2.84       1.0  T
   3    -56.4034903  0.388038E-05  0.160E-02    2.84       1.0  T
   4    -56.4034981 -0.787070E-05  0.507E-03    2.84       3.2  T
   5    -56.4034982 -0.966146E-07  0.161E-03    2.84      10.1  T
   6    -56.4034983 -0.713499E-07  0.400E-04    2.84      40.6  T
   7    -56.4034983 -0.224431E-08  0.198E-04    2.84      82.0  T
     SCC iter.                  ...        0 min,  0.009 sec
     gradient                   ...        0 min,  0.005 sec
 * total energy  :   -55.5399476 Eh     change       -0.1118226E-03 Eh
   gradient norm :     0.0070124 Eh/α   predicted    -0.9417349E-04 ( -15.78%)
   displ. norm   :     0.3741584 α      lambda       -0.1770955E-03
   maximum displ.:     0.3170333 α      in ANC's #1, #7, #5, ...

........................................................................
.............................. CYCLE   18 ..............................
........................................................................

 iter      E             dE          RMSdq      gap      omega  full diag
   1    -56.4034438 -0.564034E+02  0.954E-02    2.85       0.0  T
   2    -56.4034510 -0.714649E-05  0.538E-02    2.85       1.0  T
   3    -56.4034491  0.191098E-05  0.115E-02    2.85       1.4  T
   4    -56.4034532 -0.411167E-05  0.376E-03    2.85       4.3  T
   5    -56.4034533 -0.895731E-07  0.139E-03    2.85      11.7  T
   6    -56.4034533 -0.321289E-07  0.310E-04    2.85      52.4  T
   7    -56.4034533 -0.170382E-08  0.157E-04    2.85     103.1  T
     SCC iter.                  ...        0 min,  0.010 sec
     gradient                   ...        0 min,  0.005 sec
 * total energy  :   -55.5400961 Eh     change       -0.1484428E-03 Eh
   gradient norm :     0.0074264 Eh/α   predicted    -0.1009918E-03 ( -31.97%)
   displ. norm   :     0.4541472 α      lambda       -0.3366155E-03
   maximum displ.:     0.3716432 α      in ANC's #1, #5, #4, ...

........................................................................
.............................. CYCLE   19 ..............................
........................................................................

 iter      E             dE          RMSdq      gap      omega  full diag
   1    -56.4069024 -0.564069E+02  0.103E-01    2.86       0.0  T
   2    -56.4069135 -0.111691E-04  0.579E-02    2.85       1.0  T
   3    -56.4069118  0.172354E-05  0.131E-02    2.86       1.2  T
   4    -56.4069160 -0.417976E-05  0.429E-03    2.85       3.8  T
   5    -56.4069163 -0.279054E-06  0.190E-03    2.85       8.5  T
   6    -56.4069163 -0.352225E-07  0.363E-04    2.85      44.6  T
   7    -56.4069163 -0.188272E-08  0.182E-04    2.85      89.1  T
     SCC iter.                  ...        0 min,  0.013 sec
     gradient                   ...        0 min,  0.005 sec
 * total energy  :   -55.5403409 Eh     change       -0.2448588E-03 Eh
   gradient norm :     0.0052345 Eh/α   predicted    -0.2031483E-03 ( -17.03%)
   displ. norm   :     0.7416686 α      lambda       -0.3618825E-03
   maximum displ.:     0.6114561 α      in ANC's #1, #7, #5, ...

........................................................................
.............................. CYCLE   20 ..............................
........................................................................

 iter      E             dE          RMSdq      gap      omega  full diag
   1    -56.4024308 -0.564024E+02  0.190E-01    2.87       0.0  T
   2    -56.4024718 -0.410066E-04  0.106E-01    2.86       1.0  T
   3    -56.4024596  0.121959E-04  0.324E-02    2.87       1.0  T
   4    -56.4024836 -0.239567E-04  0.808E-03    2.87       2.0  T
   5    -56.4024842 -0.580268E-06  0.357E-03    2.87       4.6  T
   6    -56.4024843 -0.134463E-06  0.853E-04    2.87      19.0  T
   7    -56.4024843 -0.190831E-07  0.360E-04    2.87      45.0  T
     SCC iter.                  ...        0 min,  0.010 sec
     gradient                   ...        0 min,  0.005 sec
 * total energy  :   -55.5405304 Eh     change       -0.1894479E-03 Eh
   gradient norm :     0.0120502 Eh/α   predicted    -0.2807934E-03 (  48.22%)
   displ. norm   :     0.1799791 α      lambda       -0.2406216E-03
   maximum displ.:     0.0969774 α      in ANC's #4, #1, #2, ...
 * RMSD in coord.:     0.8695276 α      energy gain  -0.1193720E-01 Eh

generating ANC from exact Hessian ...
Using Lindh-Hessian (1995)
 Shifting diagonal of input Hessian by    9.6863163364767184E-003
 Lowest  eigenvalues of input Hessian
    0.000000    0.000000    0.000000    0.000000    0.000000    0.000000
    0.010000    0.010215    0.010461    0.010607    0.011219    0.014241
    0.015431    0.016420    0.018148    0.019904    0.020487    0.022796
 Highest eigenvalues
    2.023000    2.064956    2.077939    2.178709    2.181968    2.198535


........................................................................
.............................. CYCLE   21 ..............................
........................................................................

 iter      E             dE          RMSdq      gap      omega  full diag
   1    -56.4059382 -0.564059E+02  0.448E-02    2.87       0.0  T
   2    -56.4059418 -0.367640E-05  0.248E-02    2.87       1.0  T
   3    -56.4059409  0.899439E-06  0.113E-02    2.87       1.4  T
   4    -56.4059425 -0.160142E-05  0.214E-03    2.86       7.6  T
   5    -56.4059427 -0.143707E-06  0.656E-04    2.87      24.7  T
   6    -56.4059427 -0.966338E-09  0.286E-04    2.87      56.7  T
     SCC iter.                  ...        0 min,  0.008 sec
     gradient                   ...        0 min,  0.005 sec
 * total energy  :   -55.5406816 Eh     change       -0.1511772E-03 Eh
   gradient norm :     0.0070071 Eh/α   predicted     0.0000000E+00 (-100.00%)
   displ. norm   :     0.0563623 α      lambda       -0.7623748E-04
   maximum displ.:     0.0312530 α      in ANC's #2, #8, #7, ...

........................................................................
.............................. CYCLE   22 ..............................
........................................................................

 iter      E             dE          RMSdq      gap      omega  full diag
   1    -56.4066657 -0.564067E+02  0.221E-02    2.87       0.0  T
   2    -56.4066669 -0.128689E-05  0.120E-02    2.87       1.3  T
   3    -56.4066669  0.196178E-07  0.452E-03    2.87       3.6  T
   4    -56.4066671 -0.212866E-06  0.112E-03    2.87      14.5  T
   5    -56.4066672 -0.217084E-07  0.448E-04    2.87      36.2  T
   6    -56.4066672 -0.106488E-08  0.161E-04    2.87     100.8  T
     SCC iter.                  ...        0 min,  0.008 sec
     gradient                   ...        0 min,  0.005 sec
 * total energy  :   -55.5407518 Eh     change       -0.7026249E-04 Eh
   gradient norm :     0.0025523 Eh/α   predicted    -0.4368750E-04 ( -37.82%)
   displ. norm   :     0.1625051 α      lambda       -0.1392945E-03
   maximum displ.:     0.0893726 α      in ANC's #2, #7, #8, ...

........................................................................
.............................. CYCLE   23 ..............................
........................................................................

 iter      E             dE          RMSdq      gap      omega  full diag
   1    -56.4073190 -0.564073E+02  0.585E-02    2.87       0.0  T
   2    -56.4073246 -0.564054E-05  0.323E-02    2.87       1.0  T
   3    -56.4073245  0.967277E-07  0.877E-03    2.88       1.9  T
   4    -56.4073257 -0.114801E-05  0.243E-03    2.88       6.7  T
   5    -56.4073257 -0.654178E-07  0.109E-03    2.88      14.9  T
   6    -56.4073257 -0.119814E-07  0.296E-04    2.88      54.8  T
   7    -56.4073257 -0.190008E-08  0.976E-05    2.88     166.2  T
     SCC iter.                  ...        0 min,  0.009 sec
     gradient                   ...        0 min,  0.005 sec
 * total energy  :   -55.5408546 Eh     change       -0.1027999E-03 Eh
   gradient norm :     0.0045227 Eh/α   predicted    -0.7149174E-04 ( -30.46%)
   displ. norm   :     0.2421075 α      lambda       -0.1393684E-03
   maximum displ.:     0.1310673 α      in ANC's #2, #7, #8, ...

........................................................................
.............................. CYCLE   24 ..............................
........................................................................

 iter      E             dE          RMSdq      gap      omega  full diag
   1    -56.4069888 -0.564070E+02  0.840E-02    2.89       0.0  T
   2    -56.4069967 -0.790809E-05  0.467E-02    2.89       1.0  T
   3    -56.4069968 -0.135765E-06  0.933E-03    2.89       1.7  T
   4    -56.4069987 -0.190725E-05  0.336E-03    2.89       4.8  T
   5    -56.4069988 -0.688604E-07  0.138E-03    2.89      11.8  T
   6    -56.4069988 -0.325702E-07  0.314E-04    2.89      51.7  T
   7    -56.4069988 -0.181319E-08  0.134E-04    2.89     121.3  T
     SCC iter.                  ...        0 min,  0.009 sec
     gradient                   ...        0 min,  0.005 sec
 * total energy  :   -55.5409736 Eh     change       -0.1190261E-03 Eh
   gradient norm :     0.0073568 Eh/α   predicted    -0.7379948E-04 ( -38.00%)
   displ. norm   :     0.4731773 α      lambda       -0.2654466E-03
   maximum displ.:     0.2513438 α      in ANC's #2, #7, #8, ...

........................................................................
.............................. CYCLE   25 ..............................
........................................................................

 iter      E             dE          RMSdq      gap      omega  full diag
   1    -56.4039312 -0.564039E+02  0.163E-01    2.91       0.0  T
   2    -56.4039582 -0.269638E-04  0.906E-02    2.91       1.0  T
   3    -56.4039568  0.144897E-05  0.196E-02    2.92       1.0  T
   4    -56.4039665 -0.972653E-05  0.677E-03    2.91       2.4  T
   5    -56.4039666 -0.166836E-06  0.195E-03    2.91       8.3  T
   6    -56.4039667 -0.916261E-07  0.594E-04    2.91      27.3  T
   7    -56.4039667 -0.529727E-08  0.257E-04    2.91      63.1  T
     SCC iter.                  ...        0 min,  0.010 sec
     gradient                   ...        0 min,  0.005 sec
 * total energy  :   -55.5411423 Eh     change       -0.1686575E-03 Eh
   gradient norm :     0.0098910 Eh/α   predicted    -0.1624443E-03 (  -3.68%)
   displ. norm   :     0.1614131 α      lambda       -0.1813709E-03
   maximum displ.:     0.0993273 α      in ANC's #2, #7, #1, ...

........................................................................
.............................. CYCLE   26 ..............................
........................................................................

 iter      E             dE          RMSdq      gap      omega  full diag
   1    -56.4046309 -0.564046E+02  0.476E-02    2.92       0.0  T
   2    -56.4046331 -0.225426E-05  0.267E-02    2.92       1.0  T
   3    -56.4046329  0.231426E-06  0.560E-03    2.92       2.9  T
   4    -56.4046338 -0.920859E-06  0.200E-03    2.92       8.1  T
   5    -56.4046338 -0.253462E-07  0.546E-04    2.92      29.7  T
   6    -56.4046338 -0.492049E-08  0.163E-04    2.92      99.8  T
     SCC iter.                  ...        0 min,  0.008 sec
     gradient                   ...        0 min,  0.005 sec
 * total energy  :   -55.5413014 Eh     change       -0.1590851E-03 Eh
   gradient norm :     0.0072783 Eh/α   predicted    -0.9304978E-04 ( -41.51%)
   displ. norm   :     0.3587207 α      lambda       -0.4561752E-03
   maximum displ.:     0.2228364 α      in ANC's #2, #1, #7, ...

........................................................................
.............................. CYCLE   27 ..............................
........................................................................

 iter      E             dE          RMSdq      gap      omega  full diag
   1    -56.4076051 -0.564076E+02  0.988E-02    2.93       0.0  T
   2    -56.4076137 -0.858585E-05  0.559E-02    2.93       1.0  T
   3    -56.4076113  0.242504E-05  0.128E-02    2.94       1.3  T
   4    -56.4076164 -0.511487E-05  0.393E-03    2.93       4.1  T
   5    -56.4076165 -0.113151E-06  0.137E-03    2.93      11.9  T
   6    -56.4076165 -0.213548E-07  0.340E-04    2.93      47.7  T
   7    -56.4076165 -0.118048E-08  0.188E-04    2.93      86.2  T
     SCC iter.                  ...        0 min,  0.010 sec
     gradient                   ...        0 min,  0.005 sec
 * total energy  :   -55.5416035 Eh     change       -0.3020735E-03 Eh
   gradient norm :     0.0046933 Eh/α   predicted    -0.2574552E-03 ( -14.77%)
   displ. norm   :     0.6853953 α      lambda       -0.3876726E-03
   maximum displ.:     0.3944860 α      in ANC's #2, #7, #1, ...

........................................................................
.............................. CYCLE   28 ..............................
........................................................................

 iter      E             dE          RMSdq      gap      omega  full diag
   1    -56.3994424 -0.563994E+02  0.212E-01    2.96       0.0  T
   2    -56.3995083 -0.659518E-04  0.118E-01    2.95       1.0  T
   3    -56.3994950  0.133517E-04  0.390E-02    2.97       1.0  T
   4    -56.3995253 -0.303208E-04  0.986E-03    2.96       1.6  T
   5    -56.3995264 -0.113289E-05  0.432E-03    2.96       3.8  T
   6    -56.3995266 -0.124066E-06  0.114E-03    2.96      14.2  T
   7    -56.3995266 -0.330434E-07  0.446E-04    2.96      36.4  T
   8    -56.3995266 -0.174692E-08  0.197E-04    2.96      82.2  T
     SCC iter.                  ...        0 min,  0.011 sec
     gradient                   ...        0 min,  0.005 sec
 * total energy  :   -55.5415744 Eh     change        0.2909947E-04 Eh
   gradient norm :     0.0206598 Eh/α   predicted    -0.2848950E-03 (*******%)
   displ. norm   :     0.1865593 α      lambda       -0.6359051E-03
   maximum displ.:     0.1120239 α      in ANC's #7, #8, #2, ...

........................................................................
.............................. CYCLE   29 ..............................
........................................................................

 iter      E             dE          RMSdq      gap      omega  full diag
   1    -56.4065903 -0.564066E+02  0.907E-02    2.95       0.0  T
   2    -56.4066136 -0.232817E-04  0.494E-02    2.95       1.0  T
   3    -56.4066131  0.518764E-06  0.211E-02    2.95       1.0  T
   4    -56.4066169 -0.379966E-05  0.495E-03    2.95       3.3  T
   5    -56.4066174 -0.546287E-06  0.197E-03    2.95       8.2  T
   6    -56.4066174 -0.206282E-07  0.524E-04    2.95      31.0  T
   7    -56.4066174 -0.372911E-08  0.195E-04    2.95      83.2  T
     SCC iter.                  ...        0 min,  0.010 sec
     gradient                   ...        0 min,  0.005 sec
 * total energy  :   -55.5418683 Eh     change       -0.2939826E-03 Eh
   gradient norm :     0.0051811 Eh/α   predicted    -0.3290217E-03 (  11.92%)
   displ. norm   :     0.2013231 α      lambda       -0.1052930E-03
   maximum displ.:     0.1219587 α      in ANC's #2, #1, #7, ...

........................................................................
.............................. CYCLE   30 ..............................
........................................................................

 iter      E             dE          RMSdq      gap      omega  full diag
   1    -56.4067720 -0.564068E+02  0.501E-02    2.96       0.0  T
   2    -56.4067747 -0.268939E-05  0.281E-02    2.96       1.0  T
   3    -56.4067737  0.974678E-06  0.795E-03    2.96       2.0  T
   4    -56.4067756 -0.189617E-05  0.209E-03    2.96       7.8  T
   5    -56.4067756 -0.154594E-07  0.789E-04    2.96      20.6  T
   6    -56.4067756 -0.121092E-07  0.197E-04    2.96      82.5  T
     SCC iter.                  ...        0 min,  0.009 sec
     gradient                   ...        0 min,  0.005 sec
 * total energy  :   -55.5419630 Eh     change       -0.9467171E-04 Eh
   gradient norm :     0.0045344 Eh/α   predicted    -0.5478082E-04 ( -42.14%)
   displ. norm   :     0.5574126 α      lambda       -0.2780438E-03
   maximum displ.:     0.3302580 α      in ANC's #2, #1, #7, ...

........................................................................
.............................. CYCLE   31 ..............................
........................................................................

 iter      E             dE          RMSdq      gap      omega  full diag
   1    -56.4044968 -0.564045E+02  0.141E-01    2.98       0.0  T
   2    -56.4045184 -0.215627E-04  0.788E-02    2.97       1.0  T
   3    -56.4045122  0.620056E-05  0.217E-02    2.99       1.0  T
   4    -56.4045257 -0.135052E-04  0.594E-03    2.98       2.7  T
   5    -56.4045258 -0.105726E-06  0.200E-03    2.98       8.1  T
   6    -56.4045259 -0.899368E-07  0.577E-04    2.98      28.1  T
   7    -56.4045259 -0.498490E-08  0.259E-04    2.98      62.7  T
     SCC iter.                  ...        0 min,  0.025 sec
     gradient                   ...        0 min,  0.007 sec
 * total energy  :   -55.5421419 Eh     change       -0.1788631E-03 Eh
   gradient norm :     0.0079778 Eh/α   predicted    -0.1822203E-03 (   1.88%)
   displ. norm   :     0.2156219 α      lambda       -0.1329363E-03
   maximum displ.:     0.1367775 α      in ANC's #1, #2, #6, ...

........................................................................
.............................. CYCLE   32 ..............................
........................................................................

 iter      E             dE          RMSdq      gap      omega  full diag
   1    -56.4059990 -0.564060E+02  0.503E-02    2.98       0.0  T
   2    -56.4060034 -0.441567E-05  0.279E-02    2.98       1.0  T
   3    -56.4060028  0.560525E-06  0.913E-03    2.99       1.8  T
   4    -56.4060042 -0.141543E-05  0.231E-03    2.99       7.0  T
   5    -56.4060043 -0.998390E-07  0.101E-03    2.99      16.1  T
   6    -56.4060043 -0.713669E-08  0.254E-04    2.99      63.8  T
   7    -56.4060043 -0.128006E-08  0.929E-05    2.99     174.6  T
     SCC iter.                  ...        0 min,  0.020 sec
     gradient                   ...        0 min,  0.005 sec
 * total energy  :   -55.5422436 Eh     change       -0.1017149E-03 Eh
   gradient norm :     0.0053364 Eh/α   predicted    -0.6956148E-04 ( -31.61%)
   displ. norm   :     0.3279485 α      lambda       -0.1309319E-03
   maximum displ.:     0.2163129 α      in ANC's #1, #2, #3, ...

........................................................................
.............................. CYCLE   33 ..............................
........................................................................

 iter      E             dE          RMSdq      gap      omega  full diag
   1    -56.4064521 -0.564065E+02  0.753E-02    2.99       0.0  T
   2    -56.4064587 -0.660002E-05  0.423E-02    2.99       1.0  T
   3    -56.4064574  0.132632E-05  0.110E-02    3.00       1.5  T
   4    -56.4064603 -0.297097E-05  0.319E-03    2.99       5.1  T
   5    -56.4064605 -0.133488E-06  0.135E-03    2.99      12.0  T
   6    -56.4064605 -0.152724E-07  0.338E-04    2.99      48.0  T
   7    -56.4064605 -0.245550E-08  0.133E-04    2.99     121.8  T
     SCC iter.                  ...        0 min,  0.010 sec
     gradient                   ...        0 min,  0.005 sec
 * total energy  :   -55.5423363 Eh     change       -0.9267789E-04 Eh
   gradient norm :     0.0027652 Eh/α   predicted    -0.7251644E-04 ( -21.75%)
   displ. norm   :     0.2452012 α      lambda       -0.8797326E-04
   maximum displ.:     0.1826680 α      in ANC's #1, #2, #3, ...

........................................................................
.............................. CYCLE   34 ..............................
........................................................................

 iter      E             dE          RMSdq      gap      omega  full diag
   1    -56.4081054 -0.564081E+02  0.550E-02    3.00       0.0  T
   2    -56.4081086 -0.327311E-05  0.311E-02    3.00       1.0  T
   3    -56.4081083  0.354367E-06  0.665E-03    3.00       2.4  T
   4    -56.4081094 -0.111849E-05  0.230E-03    3.00       7.0  T
   5    -56.4081095 -0.745325E-07  0.947E-04    3.00      17.1  T
   6    -56.4081095 -0.593555E-08  0.213E-04    3.00      76.3  T
     SCC iter.                  ...        0 min,  0.008 sec
     gradient                   ...        0 min,  0.005 sec
 * total energy  :   -55.5423931 Eh     change       -0.5678335E-04 Eh
   gradient norm :     0.0023956 Eh/α   predicted    -0.4663848E-04 ( -17.87%)
   displ. norm   :     0.2595394 α      lambda       -0.6305324E-04
   maximum displ.:     0.1906563 α      in ANC's #1, #2, #3, ...

........................................................................
.............................. CYCLE   35 ..............................
........................................................................

 iter      E             dE          RMSdq      gap      omega  full diag
   1    -56.4069733 -0.564070E+02  0.601E-02    3.00       0.0  T
   2    -56.4069760 -0.272217E-05  0.341E-02    3.00       1.0  T
   3    -56.4069756  0.429740E-06  0.651E-03    3.01       2.5  T
   4    -56.4069769 -0.129979E-05  0.232E-03    3.00       7.0  T
   5    -56.4069769 -0.390830E-07  0.652E-04    3.00      24.9  T
   6    -56.4069769 -0.564337E-08  0.202E-04    3.00      80.2  T
     SCC iter.                  ...        0 min,  0.008 sec
     gradient                   ...        0 min,  0.005 sec
 * total energy  :   -55.5424367 Eh     change       -0.4365440E-04 Eh
   gradient norm :     0.0024320 Eh/α   predicted    -0.3365605E-04 ( -22.90%)
   displ. norm   :     0.1565153 α      lambda       -0.6911273E-04
   maximum displ.:     0.1236702 α      in ANC's #1, #5, #10, ...

........................................................................
.............................. CYCLE   36 ..............................
........................................................................

 iter      E             dE          RMSdq      gap      omega  full diag
   1    -56.4092500 -0.564093E+02  0.337E-02    3.00       0.0  T
   2    -56.4092514 -0.140458E-05  0.193E-02    3.00       1.0  T
   3    -56.4092509  0.543128E-06  0.681E-03    3.00       2.4  T
   4    -56.4092517 -0.791008E-06  0.142E-03    3.00      11.4  T
   5    -56.4092517 -0.490280E-07  0.455E-04    3.00      35.6  T
   6    -56.4092517 -0.237605E-09  0.208E-04    3.00      78.0  T
     SCC iter.                  ...        0 min,  0.008 sec
     gradient                   ...        0 min,  0.005 sec
 * total energy  :   -55.5424731 Eh     change       -0.3635068E-04 Eh
   gradient norm :     0.0058348 Eh/α   predicted    -0.3540397E-04 (  -2.60%)
   displ. norm   :     0.2614401 α      lambda       -0.8868087E-04
   maximum displ.:     0.2120193 α      in ANC's #1, #3, #10, ...

........................................................................
.............................. CYCLE   37 ..............................
........................................................................

 iter      E             dE          RMSdq      gap      omega  full diag
   1    -56.4083780 -0.564084E+02  0.560E-02    3.00       0.0  T
   2    -56.4083811 -0.309066E-05  0.317E-02    3.00       1.0  T
   3    -56.4083800  0.113642E-05  0.953E-03    3.01       1.7  T
   4    -56.4083820 -0.202213E-05  0.230E-03    3.01       7.0  T
   5    -56.4083821 -0.641241E-07  0.954E-04    3.01      17.0  T
   6    -56.4083821 -0.653925E-08  0.267E-04    3.01      60.6  T
     SCC iter.                  ...        0 min,  0.008 sec
     gradient                   ...        0 min,  0.005 sec
 * total energy  :   -55.5425406 Eh     change       -0.6751390E-04 Eh
   gradient norm :     0.0041274 Eh/α   predicted    -0.4737149E-04 ( -29.83%)
   displ. norm   :     0.1621555 α      lambda       -0.5998603E-04
   maximum displ.:     0.1289688 α      in ANC's #1, #5, #10, ...

........................................................................
.............................. CYCLE   38 ..............................
........................................................................

 iter      E             dE          RMSdq      gap      omega  full diag
   1    -56.4078977 -0.564079E+02  0.332E-02    3.01       0.0  T
   2    -56.4078983 -0.651641E-06  0.191E-02    3.01       1.0  T
   3    -56.4078983  0.638473E-07  0.314E-03    3.01       5.2  T
   4    -56.4078984 -0.182439E-06  0.114E-03    3.01      14.3  T
   5    -56.4078985 -0.232587E-07  0.473E-04    3.01      34.3  T
   6    -56.4078985 -0.173677E-08  0.121E-04    3.01     134.4  T
     SCC iter.                  ...        0 min,  0.008 sec
     gradient                   ...        0 min,  0.005 sec
 * total energy  :   -55.5425899 Eh     change       -0.4929825E-04 Eh
   gradient norm :     0.0028203 Eh/α   predicted    -0.3078208E-04 ( -37.56%)
   displ. norm   :     0.2073963 α      lambda       -0.7322866E-04
   maximum displ.:     0.1542862 α      in ANC's #1, #5, #10, ...

........................................................................
.............................. CYCLE   39 ..............................
........................................................................

 iter      E             dE          RMSdq      gap      omega  full diag
   1    -56.4077822 -0.564078E+02  0.434E-02    3.01       0.0  T
   2    -56.4077826 -0.389373E-06  0.254E-02    3.01       1.0  T
   3    -56.4077823  0.289576E-06  0.330E-03    3.01       4.9  T
   4    -56.4077828 -0.428707E-06  0.962E-04    3.01      16.9  T
   5    -56.4077828 -0.102770E-07  0.398E-04    3.01      40.8  T
     SCC iter.                  ...        0 min,  0.007 sec
     gradient                   ...        0 min,  0.005 sec
 * total energy  :   -55.5426467 Eh     change       -0.5680972E-04 Eh
   gradient norm :     0.0026278 Eh/α   predicted    -0.3819378E-04 ( -32.77%)
   displ. norm   :     0.2255086 α      lambda       -0.6222429E-04
   maximum displ.:     0.1722204 α      in ANC's #1, #5, #10, ...

........................................................................
.............................. CYCLE   40 ..............................
........................................................................

 iter      E             dE          RMSdq      gap      omega  full diag
   1    -56.4075619 -0.564076E+02  0.469E-02    3.01       0.0  T
   2    -56.4075624 -0.507241E-06  0.274E-02    3.01       1.0  T
   3    -56.4075621  0.371897E-06  0.408E-03    3.01       4.0  T
   4    -56.4075626 -0.542226E-06  0.962E-04    3.01      16.9  T
   5    -56.4075626 -0.919299E-08  0.428E-04    3.01      37.9  T
     SCC iter.                  ...        0 min,  0.007 sec
     gradient                   ...        0 min,  0.005 sec
 * total energy  :   -55.5426947 Eh     change       -0.4799128E-04 Eh
   gradient norm :     0.0024140 Eh/α   predicted    -0.3269715E-04 ( -31.87%)
   displ. norm   :     0.2088639 α      lambda       -0.5320281E-04
   maximum displ.:     0.1625371 α      in ANC's #1, #5, #10, ...

........................................................................
.............................. CYCLE   41 ..............................
........................................................................

 iter      E             dE          RMSdq      gap      omega  full diag
   1    -56.4077425 -0.564077E+02  0.438E-02    3.01       0.0  T
   2    -56.4077431 -0.591298E-06  0.257E-02    3.01       1.0  T
   3    -56.4077429  0.247641E-06  0.335E-03    3.01       4.8  T
   4    -56.4077433 -0.386451E-06  0.974E-04    3.01      16.6  T
   5    -56.4077433 -0.166523E-07  0.453E-04    3.01      35.8  T
     SCC iter.                  ...        0 min,  0.007 sec
     gradient                   ...        0 min,  0.005 sec
 * total energy  :   -55.5427377 Eh     change       -0.4298580E-04 Eh
   gradient norm :     0.0024285 Eh/α   predicted    -0.2776347E-04 ( -35.41%)
   displ. norm   :     0.2143370 α      lambda       -0.5672310E-04
   maximum displ.:     0.1719201 α      in ANC's #1, #5, #10, ...

........................................................................
.............................. CYCLE   42 ..............................
........................................................................

 iter      E             dE          RMSdq      gap      omega  full diag
   1    -56.4083302 -0.564083E+02  0.426E-02    3.01       0.0  T
   2    -56.4083307 -0.509956E-06  0.249E-02    3.01       1.0  T
   3    -56.4083303  0.400502E-06  0.396E-03    3.01       4.1  T
   4    -56.4083309 -0.559837E-06  0.991E-04    3.01      16.4  T
   5    -56.4083309 -0.127542E-07  0.444E-04    3.01      36.5  T
     SCC iter.                  ...        0 min,  0.007 sec
     gradient                   ...        0 min,  0.005 sec
 * total energy  :   -55.5427837 Eh     change       -0.4607759E-04 Eh
   gradient norm :     0.0021360 Eh/α   predicted    -0.2966566E-04 ( -35.62%)
   displ. norm   :     0.2274104 α      lambda       -0.5315310E-04
   maximum displ.:     0.1858946 α      in ANC's #1, #5, #10, ...
 * RMSD in coord.:     0.7013779 α      energy gain  -0.2253357E-02 Eh

generating ANC from exact Hessian ...
Using Lindh-Hessian (1995)
 Shifting diagonal of input Hessian by    9.6861534330343942E-003
 Lowest  eigenvalues of input Hessian
    0.000000    0.000000    0.000000    0.000000    0.000000    0.000000
    0.010000    0.010309    0.010438    0.010626    0.011290    0.014096
    0.015615    0.016937    0.017569    0.020216    0.020584    0.022734
 Highest eigenvalues
    2.023848    2.064476    2.088025    2.180187    2.183062    2.197504


........................................................................
.............................. CYCLE   43 ..............................
........................................................................

 iter      E             dE          RMSdq      gap      omega  full diag
   1    -56.4082772 -0.564083E+02  0.447E-02    3.01       0.0  T
   2    -56.4082779 -0.618982E-06  0.261E-02    3.01       1.0  T
   3    -56.4082774  0.450476E-06  0.419E-03    3.02       3.9  T
   4    -56.4082781 -0.659814E-06  0.106E-03    3.01      15.2  T
   5    -56.4082781 -0.980161E-08  0.459E-04    3.01      35.3  T
   6    -56.4082781 -0.142804E-08  0.129E-04    3.01     126.1  T
     SCC iter.                  ...        0 min,  0.008 sec
     gradient                   ...        0 min,  0.007 sec
 * total energy  :   -55.5428269 Eh     change       -0.4319443E-04 Eh
   gradient norm :     0.0022758 Eh/α   predicted     0.0000000E+00 (-100.00%)
   displ. norm   :     0.0226804 α      lambda       -0.1415949E-04
   maximum displ.:     0.0160040 α      in ANC's #1, #5, #7, ...

........................................................................
.............................. CYCLE   44 ..............................
........................................................................

 iter      E             dE          RMSdq      gap      omega  full diag
   1    -56.4085710 -0.564086E+02  0.721E-03    3.02       0.0  T
   2    -56.4085711 -0.593017E-07  0.421E-03    3.02       3.8  T
   3    -56.4085710  0.429634E-07  0.164E-03    3.02       9.9  T
   4    -56.4085711 -0.602733E-07  0.257E-04    3.02      63.0  T
   5    -56.4085711 -0.177271E-08  0.968E-05    3.02     167.6  T
     SCC iter.                  ...        0 min,  0.007 sec
     gradient                   ...        0 min,  0.005 sec
 * total energy  :   -55.5428394 Eh     change       -0.1246390E-04 Eh
   gradient norm :     0.0011158 Eh/α   predicted    -0.7715118E-05 ( -38.10%)
   displ. norm   :     0.0830737 α      lambda       -0.2008568E-04
   maximum displ.:     0.0592323 α      in ANC's #1, #5, #10, ...

........................................................................
.............................. CYCLE   45 ..............................
........................................................................

 iter      E             dE          RMSdq      gap      omega  full diag
   1    -56.4088736 -0.564089E+02  0.197E-02    3.02       0.0  T
   2    -56.4088740 -0.456424E-06  0.114E-02    3.02       1.4  T
   3    -56.4088738  0.278843E-06  0.455E-03    3.02       3.6  T
   4    -56.4088742 -0.400877E-06  0.725E-04    3.02      22.4  T
   5    -56.4088742 -0.153003E-07  0.253E-04    3.02      64.0  T
     SCC iter.                  ...        0 min,  0.007 sec
     gradient                   ...        0 min,  0.005 sec
 * total energy  :   -55.5428550 Eh     change       -0.1562013E-04 Eh
   gradient norm :     0.0017860 Eh/α   predicted    -0.1058635E-04 ( -32.23%)
   displ. norm   :     0.0346045 α      lambda       -0.6212933E-05
   maximum displ.:     0.0264826 α      in ANC's #1, #5, #10, ...

........................................................................
.............................. CYCLE   46 ..............................
........................................................................

 iter      E             dE          RMSdq      gap      omega  full diag
   1    -56.4087052 -0.564087E+02  0.637E-03    3.01       0.0  T
   2    -56.4087052 -0.133091E-07  0.374E-03    3.01       4.3  T
   3    -56.4087052  0.115798E-07  0.630E-04    3.02      25.8  T
   4    -56.4087052 -0.154176E-07  0.149E-04    3.02     108.8  T
     SCC iter.                  ...        0 min,  0.006 sec
     gradient                   ...        0 min,  0.005 sec
 * total energy  :   -55.5428633 Eh     change       -0.8255330E-05 Eh
   gradient norm :     0.0011359 Eh/α   predicted    -0.3108976E-05 ( -62.34%)
   displ. norm   :     0.0840841 α      lambda       -0.1305776E-04
   maximum displ.:     0.0595714 α      in ANC's #1, #5, #10, ...

........................................................................
.............................. CYCLE   47 ..............................
........................................................................

 iter      E             dE          RMSdq      gap      omega  full diag
   1    -56.4084793 -0.564085E+02  0.180E-02    3.01       0.0  T
   2    -56.4084794 -0.892956E-07  0.106E-02    3.02       1.5  T
   3    -56.4084793  0.812884E-07  0.178E-03    3.02       9.1  T
   4    -56.4084795 -0.110254E-06  0.389E-04    3.02      41.7  T
   5    -56.4084795 -0.172886E-08  0.187E-04    3.02      86.6  T
     SCC iter.                  ...        0 min,  0.011 sec
     gradient                   ...        0 min,  0.005 sec
 * total energy  :   -55.5428784 Eh     change       -0.1513998E-04 Eh
   gradient norm :     0.0007275 Eh/α   predicted    -0.6549509E-05 ( -56.74%)
   displ. norm   :     0.1130343 α      lambda       -0.1152140E-04
   maximum displ.:     0.0788330 α      in ANC's #1, #5, #10, ...

........................................................................
.............................. CYCLE   48 ..............................
........................................................................

 iter      E             dE          RMSdq      gap      omega  full diag
   1    -56.4082656 -0.564083E+02  0.236E-02    3.02       0.0  T
   2    -56.4082657 -0.134824E-06  0.138E-02    3.02       1.2  T
   3    -56.4082656  0.410226E-07  0.161E-03    3.02      10.1  T
   4    -56.4082657 -0.859857E-07  0.540E-04    3.02      30.0  T
   5    -56.4082657 -0.226655E-08  0.207E-04    3.02      78.6  T
     SCC iter.                  ...        0 min,  0.007 sec
     gradient                   ...        0 min,  0.005 sec
 * total energy  :   -55.5428928 Eh     change       -0.1439685E-04 Eh
   gradient norm :     0.0013729 Eh/α   predicted    -0.5797322E-05 ( -59.73%)
   displ. norm   :     0.1449494 α      lambda       -0.1371451E-04
   maximum displ.:     0.0992609 α      in ANC's #1, #5, #10, ...

........................................................................
.............................. CYCLE   49 ..............................
........................................................................

 iter      E             dE          RMSdq      gap      omega  full diag
   1    -56.4081283 -0.564081E+02  0.312E-02    3.02       0.0  T
   2    -56.4081285 -0.239485E-06  0.182E-02    3.02       1.0  T
   3    -56.4081285  0.230918E-07  0.180E-03    3.02       9.0  T
   4    -56.4081286 -0.100815E-06  0.763E-04    3.02      21.3  T
   5    -56.4081286 -0.585428E-08  0.240E-04    3.02      67.6  T
     SCC iter.                  ...        0 min,  0.007 sec
     gradient                   ...        0 min,  0.005 sec
 * total energy  :   -55.5429113 Eh     change       -0.1851485E-04 Eh
   gradient norm :     0.0016704 Eh/α   predicted    -0.6922769E-05 ( -62.61%)
   displ. norm   :     0.2470376 α      lambda       -0.2414869E-04
   maximum displ.:     0.1673202 α      in ANC's #1, #5, #10, ...

........................................................................
.............................. CYCLE   50 ..............................
........................................................................

 iter      E             dE          RMSdq      gap      omega  full diag
   1    -56.4078344 -0.564078E+02  0.548E-02    3.02       0.0  T
   2    -56.4078352 -0.818589E-06  0.319E-02    3.02       1.0  T
   3    -56.4078351  0.811266E-07  0.335E-03    3.02       4.8  T
   4    -56.4078355 -0.355116E-06  0.143E-03    3.02      11.4  T
   5    -56.4078355 -0.197370E-07  0.358E-04    3.02      45.3  T
   6    -56.4078355 -0.207940E-08  0.119E-04    3.02     136.3  T
     SCC iter.                  ...        0 min,  0.008 sec
     gradient                   ...        0 min,  0.005 sec
 * total energy  :   -55.5429435 Eh     change       -0.3215165E-04 Eh
   gradient norm :     0.0017446 Eh/α   predicted    -0.1240349E-04 ( -61.42%)
   displ. norm   :     0.4154677 α      lambda       -0.3896574E-04
   maximum displ.:     0.2815457 α      in ANC's #1, #5, #10, ...

........................................................................
.............................. CYCLE   51 ..............................
........................................................................

 iter      E             dE          RMSdq      gap      omega  full diag
   1    -56.4068234 -0.564068E+02  0.937E-02    3.02       0.0  T
   2    -56.4068259 -0.247333E-05  0.544E-02    3.02       1.0  T
   3    -56.4068257  0.172606E-06  0.581E-03    3.03       2.8  T
   4    -56.4068267 -0.997003E-06  0.251E-03    3.03       6.5  T
   5    -56.4068268 -0.656050E-07  0.489E-04    3.03      33.2  T
   6    -56.4068268 -0.334243E-08  0.213E-04    3.03      76.3  T
     SCC iter.                  ...        0 min,  0.008 sec
     gradient                   ...        0 min,  0.005 sec
 * total energy  :   -55.5429894 Eh     change       -0.4596754E-04 Eh
   gradient norm :     0.0024250 Eh/α   predicted    -0.2098042E-04 ( -54.36%)
   displ. norm   :     0.2913611 α      lambda       -0.3946981E-04
   maximum displ.:     0.1998933 α      in ANC's #1, #5, #10, ...

........................................................................
.............................. CYCLE   52 ..............................
........................................................................

 iter      E             dE          RMSdq      gap      omega  full diag
   1    -56.4067361 -0.564067E+02  0.664E-02    3.02       0.0  T
   2    -56.4067374 -0.128883E-05  0.385E-02    3.03       1.0  T
   3    -56.4067373  0.672830E-07  0.412E-03    3.03       3.9  T
   4    -56.4067378 -0.493001E-06  0.182E-03    3.03       8.9  T
   5    -56.4067378 -0.366820E-07  0.322E-04    3.03      50.3  T
   6    -56.4067378 -0.110186E-08  0.149E-04    3.03     109.2  T
     SCC iter.                  ...        0 min,  0.008 sec
     gradient                   ...        0 min,  0.005 sec
 * total energy  :   -55.5430221 Eh     change       -0.3260461E-04 Eh
   gradient norm :     0.0023366 Eh/α   predicted    -0.2141215E-04 ( -34.33%)
   displ. norm   :     0.3811485 α      lambda       -0.5258495E-04
   maximum displ.:     0.2647182 α      in ANC's #1, #5, #7, ...

........................................................................
.............................. CYCLE   53 ..............................
........................................................................

 iter      E             dE          RMSdq      gap      omega  full diag
   1    -56.4070765 -0.564071E+02  0.870E-02    3.03       0.0  T
   2    -56.4070788 -0.229481E-05  0.504E-02    3.03       1.0  T
   3    -56.4070787  0.383662E-07  0.534E-03    3.03       3.0  T
   4    -56.4070795 -0.775819E-06  0.242E-03    3.03       6.7  T
   5    -56.4070796 -0.692277E-07  0.444E-04    3.03      36.6  T
   6    -56.4070796 -0.214852E-08  0.194E-04    3.03      83.8  T
     SCC iter.                  ...        0 min,  0.008 sec
     gradient                   ...        0 min,  0.005 sec
 * total energy  :   -55.5430627 Eh     change       -0.4066255E-04 Eh
   gradient norm :     0.0019498 Eh/α   predicted    -0.3011570E-04 ( -25.94%)
   displ. norm   :     0.5522083 α      lambda       -0.4378050E-04
   maximum displ.:     0.3887551 α      in ANC's #1, #5, #7, ...

........................................................................
.............................. CYCLE   54 ..............................
........................................................................

 iter      E             dE          RMSdq      gap      omega  full diag
   1    -56.4072589 -0.564073E+02  0.125E-01    3.03       0.0  T
   2    -56.4072638 -0.490432E-05  0.726E-02    3.03       1.0  T
   3    -56.4072640 -0.189630E-06  0.747E-03    3.03       2.2  T
   4    -56.4072653 -0.133476E-05  0.351E-03    3.03       4.6  T
   5    -56.4072654 -0.153637E-06  0.752E-04    3.03      21.6  T
   6    -56.4072655 -0.939094E-08  0.281E-04    3.03      57.8  T
     SCC iter.                  ...        0 min,  0.008 sec
     gradient                   ...        0 min,  0.005 sec
 * total energy  :   -55.5431075 Eh     change       -0.4477588E-04 Eh
   gradient norm :     0.0021334 Eh/α   predicted    -0.2488594E-04 ( -44.42%)
   displ. norm   :     0.1806442 α      lambda       -0.3282509E-04
   maximum displ.:     0.1306775 α      in ANC's #1, #5, #7, ...

........................................................................
.............................. CYCLE   55 ..............................
........................................................................

 iter      E             dE          RMSdq      gap      omega  full diag
   1    -56.4103940 -0.564104E+02  0.424E-02    3.03       0.0  T
   2    -56.4103950 -0.941197E-06  0.244E-02    3.03       1.0  T
   3    -56.4103949  0.339910E-07  0.330E-03    3.03       4.9  T
   4    -56.4103952 -0.223823E-06  0.126E-03    3.03      12.9  T
   5    -56.4103952 -0.208093E-07  0.573E-04    3.03      28.3  T
   6    -56.4103952 -0.333290E-08  0.138E-04    3.03     117.7  T
     SCC iter.                  ...        0 min,  0.008 sec
     gradient                   ...        0 min,  0.034 sec
 * total energy  :   -55.5431226 Eh     change       -0.1515739E-04 Eh
   gradient norm :     0.0022665 Eh/α   predicted    -0.1695014E-04 (  11.83%)
   displ. norm   :     0.5324299 α      lambda       -0.5045314E-04
   maximum displ.:     0.3814737 α      in ANC's #1, #5, #10, ...

........................................................................
.............................. CYCLE   56 ..............................
........................................................................

 iter      E             dE          RMSdq      gap      omega  full diag
   1    -56.4073037 -0.564073E+02  0.120E-01    3.02       0.0  T
   2    -56.4073091 -0.538051E-05  0.695E-02    3.03       1.0  T
   3    -56.4073096 -0.517158E-06  0.718E-03    3.03       2.3  T
   4    -56.4073105 -0.920230E-06  0.336E-03    3.03       4.8  T
   5    -56.4073107 -0.119230E-06  0.122E-03    3.03      13.3  T
   6    -56.4073107 -0.296165E-07  0.274E-04    3.03      59.2  T
   7    -56.4073107 -0.414417E-09  0.139E-04    3.03     116.8  T
     SCC iter.                  ...        0 min,  0.020 sec
     gradient                   ...        0 min,  0.008 sec
 * total energy  :   -55.5431540 Eh     change       -0.3130504E-04 Eh
   gradient norm :     0.0025849 Eh/α   predicted    -0.3237873E-04 (   3.43%)
   displ. norm   :     0.1260952 α      lambda       -0.1685786E-04
   maximum displ.:     0.0933063 α      in ANC's #1, #5, #7, ...

........................................................................
.............................. CYCLE   57 ..............................
........................................................................

 iter      E             dE          RMSdq      gap      omega  full diag
   1    -56.4076531 -0.564077E+02  0.289E-02    3.03       0.0  T
   2    -56.4076534 -0.298233E-06  0.167E-02    3.03       1.0  T
   3    -56.4076534 -0.302454E-07  0.165E-03    3.03       9.8  T
   4    -56.4076534 -0.529024E-07  0.826E-04    3.03      19.6  T
   5    -56.4076535 -0.960514E-08  0.236E-04    3.03      68.6  T
     SCC iter.                  ...        0 min,  0.008 sec
     gradient                   ...        0 min,  0.006 sec
 * total energy  :   -55.5431691 Eh     change       -0.1514200E-04 Eh
   gradient norm :     0.0019986 Eh/α   predicted    -0.8563244E-05 ( -43.45%)
   displ. norm   :     0.4468846 α      lambda       -0.5160483E-04
   maximum displ.:     0.3344556 α      in ANC's #1, #5, #7, ...

........................................................................
.............................. CYCLE   58 ..............................
........................................................................

 iter      E             dE          RMSdq      gap      omega  full diag
   1    -56.4103179 -0.564103E+02  0.103E-01    3.03       0.0  T
   2    -56.4103219 -0.407072E-05  0.596E-02    3.03       1.0  T
   3    -56.4103215  0.416425E-06  0.767E-03    3.03       2.1  T
   4    -56.4103231 -0.158270E-05  0.307E-03    3.03       5.3  T
   5    -56.4103232 -0.997951E-07  0.989E-04    3.03      16.4  T
   6    -56.4103232 -0.121382E-07  0.295E-04    3.03      55.0  T
     SCC iter.                  ...        0 min,  0.009 sec
     gradient                   ...        0 min,  0.005 sec
 * total energy  :   -55.5432137 Eh     change       -0.4464370E-04 Eh
   gradient norm :     0.0019020 Eh/α   predicted    -0.2809888E-04 ( -37.06%)
   displ. norm   :     1.0853018 α      lambda       -0.5907354E-04
   maximum displ.:     0.8071004 α      in ANC's #1, #5, #7, ...

........................................................................
.............................. CYCLE   59 ..............................
........................................................................

 iter      E             dE          RMSdq      gap      omega  full diag
   1    -56.3955523 -0.563956E+02  0.254E-01    2.98       0.0  T
   2    -56.3955943 -0.420047E-04  0.145E-01    2.99       1.0  T
   3    -56.3955925  0.185743E-05  0.240E-02    3.00       1.0  T
   4    -56.3956026 -0.100957E-04  0.809E-03    3.00       2.0  T
   5    -56.3956033 -0.739387E-06  0.368E-03    3.00       4.4  T
   6    -56.3956035 -0.186741E-06  0.739E-04    3.00      21.9  T
   7    -56.3956035 -0.561532E-08  0.362E-04    3.00      44.9  T
[...]
H27-C7-N4=108.62               H27-C7-C8=109.92               H27-C7-H26=109.27              N9-C8-C7=121.55                
C12-C8-C7=131.02               C12-C8-N9=107.43               N10-N9-C8=109.07               N11-N10-N9=109.13              

 selected dihedral angles (degree)
 ---------------------------------
C3-N2-C1-H21=181.44           C3-N2-C1-H22= 61.91           C3-N2-C1-H23=301.06           C6-N2-C1-H21=  1.69           
C6-N2-C1-H22=242.16           C6-N2-C1-H23=121.31           N4-C3-N2-C1=179.93            N4-C3-N2-C6=359.72            
C20-C3-N2-C1=359.05           C20-C3-N2-C6=178.83           C5-N4-C3-N2=  0.44            C5-N4-C3-C20=181.31           
C7-N4-C3-N2=176.78            C7-N4-C3-C20=357.65           C6-C5-N4-C3=359.58            C6-C5-N4-C7=183.21            
H24-C5-N4-C3=179.94           H24-C5-N4-C7=  3.58           C5-C6-N2-C1=179.81            C5-C6-N2-C3=  0.00            
H25-C6-N2-C1=359.83           H25-C6-N2-C3=180.04           N2-C6-C5-N4=  0.25            N2-C6-C5-H24=179.85           
H25-C6-C5-N4=180.22           H25-C6-C5-H24=359.82          C8-C7-N4-C3=282.93            C8-C7-N4-C5= 98.69            
H26-C7-N4-C3= 43.41           H26-C7-N4-C5=219.17           H27-C7-N4-C3=162.19           H27-C7-N4-C5=337.95           
N9-C8-C7-N4= 60.84            N9-C8-C7-H26=300.97           N9-C8-C7-H27=180.81           C12-C8-C7-N4=241.31           
C12-C8-C7-H26=121.44          C12-C8-C7-H27=  1.28          N10-N9-C8-C7=180.08           N10-N9-C8-C12=359.71          
N11-N10-N9-C8=  0.07          
           -------------------------------------------------
          |                Final Singlepoint                |
           -------------------------------------------------

          ...................................................
          :                      SETUP                      :
          :.................................................:
          :  # basis functions                  98          :
          :  # atomic orbitals                  98          :
          :  # shells                           58          :
          :  # electrons                       102          :
          :  max. iterations                   250          :
          :  Hamiltonian                  GFN2-xTB          :
          :  restarted?                      false          :
          :  GBSA solvation                  false          :
          :  PC potential                    false          :
          :  electronic temp.          300.0000000     K    :
          :  accuracy                    1.0000000          :
          :  -> integral cutoff          0.2500000E+02      :
          :  -> integral neglect         0.1000000E-07      :
          :  -> SCF convergence          0.1000000E-05 Eh   :
          :  -> wf. convergence          0.1000000E-03 e    :
          :  Broyden damping             0.4000000          :
          :  net charge                          1          :
          :  unpaired electrons                  0          :
          ...................................................

 iter      E             dE          RMSdq      gap      omega  full diag
   1    -56.4098100 -0.564098E+02  0.101E-04    2.94       0.0  T
   2    -56.4098100 -0.496740E-10  0.578E-05    2.94     280.8  T
   3    -56.4098100 -0.144738E-10  0.351E-05    2.94     462.3  T

   *** convergence criteria satisfied after 3 iterations ***

         #    Occupation            Energy/Eh            Energy/eV
      -------------------------------------------------------------
         1        2.0000           -0.8759478             -23.8358
       ...           ...                  ...                  ...
        45        2.0000           -0.5304898             -14.4354
        46        2.0000           -0.5268881             -14.3374
        47        2.0000           -0.5126987             -13.9512
        48        2.0000           -0.5081285             -13.8269
        49        2.0000           -0.5001199             -13.6090
        50        2.0000           -0.4920117             -13.3883
        51        2.0000           -0.4899116             -13.3312 (HOMO)
        52                         -0.3817946             -10.3892 (LUMO)
        53                         -0.3521080              -9.5813
        54                         -0.3457937              -9.4095
        55                         -0.3150441              -8.5728
        56                         -0.3105645              -8.4509
       ...                                ...                  ...
        98                          0.5765935              15.6899
      -------------------------------------------------------------
                  HL-Gap            0.1081170 Eh            2.9420 eV
             Fermi-level           -0.4358531 Eh          -11.8602 eV

 SCC (total)                   0 d,  0 h,  0 min,  0.011 sec
 SCC setup                      ...        0 min,  0.000 sec (  0.759%)
 Dispersion                     ...        0 min,  0.000 sec (  1.755%)
 classical contributions        ...        0 min,  0.000 sec (  0.255%)
 integral evaluation            ...        0 min,  0.001 sec ( 13.062%)
 iterations                     ...        0 min,  0.004 sec ( 38.363%)
 molecular gradient             ...        0 min,  0.005 sec ( 44.740%)
 printout                       ...        0 min,  0.000 sec (  0.925%)

         :::::::::::::::::::::::::::::::::::::::::::::::::::::
         ::                     SUMMARY                     ::
         :::::::::::::::::::::::::::::::::::::::::::::::::::::
         :: total energy             -55.544386834462 Eh    ::
         :: gradient norm              0.000326108493 Eh/a0 ::
         :: HOMO-LUMO gap              2.942013704152 eV    ::
         ::.................................................::
         :: SCC energy               -56.409645675866 Eh    ::
         :: -> isotropic ES            0.080452459441 Eh    ::
         :: -> anisotropic ES         -0.009362754104 Eh    ::
         :: -> anisotropic XC          0.042790014720 Eh    ::
         :: -> dispersion             -0.036831001995 Eh    ::
         :: repulsion energy           0.865258841404 Eh    ::
         :: add. restraining           0.000000000000 Eh    ::
         :: total charge               1.000000000000 e     ::
         :::::::::::::::::::::::::::::::::::::::::::::::::::::

           -------------------------------------------------
          |                Property Printout                |
           -------------------------------------------------

    * Orbital Energies and Occupations

         #    Occupation            Energy/Eh            Energy/eV
      -------------------------------------------------------------
         1        2.0000           -0.8759478             -23.8358
       ...           ...                  ...                  ...
        39        2.0000           -0.5730002             -15.5921
        40        2.0000           -0.5691966             -15.4886
        41        2.0000           -0.5635124             -15.3340
        42        2.0000           -0.5608497             -15.2615
        43        2.0000           -0.5570392             -15.1578
        44        2.0000           -0.5445588             -14.8182
        45        2.0000           -0.5304898             -14.4354
        46        2.0000           -0.5268881             -14.3374
        47        2.0000           -0.5126987             -13.9512
        48        2.0000           -0.5081285             -13.8269
        49        2.0000           -0.5001199             -13.6090
        50        2.0000           -0.4920117             -13.3883
        51        2.0000           -0.4899116             -13.3312 (HOMO)
        52                         -0.3817946             -10.3892 (LUMO)
        53                         -0.3521080              -9.5813
        54                         -0.3457937              -9.4095
        55                         -0.3150441              -8.5728
        56                         -0.3105645              -8.4509
        57                         -0.3098017              -8.4301
        58                         -0.1857394              -5.0542
        59                         -0.1683136              -4.5800
        60                         -0.1169447              -3.1822
        61                         -0.0946933              -2.5767
        62                         -0.0484734              -1.3190
       ...                                ...                  ...
        98                          0.5765935              15.6899
      -------------------------------------------------------------
                  HL-Gap            0.1081170 Eh            2.9420 eV
             Fermi-level           -0.4358531 Eh          -11.8602 eV

     #   Z          covCN         q      C6AA      α(0)
     1   6 C        3.692    -0.079    22.211     6.744
     2   7 N        2.871     0.047    20.418     6.711
     3   6 C        3.097     0.114    25.378     8.256
     4   7 N        2.878     0.037    20.589     6.739
     5   6 C        3.045    -0.011    28.250     8.717
     6   6 C        3.049    -0.012    28.276     8.721
     7   6 C        3.744    -0.021    21.020     6.540
     8   6 C        3.119     0.040    26.932     8.500
     9   7 N        2.070    -0.198    25.991     7.563
    10   7 N        2.181    -0.109    23.839     7.246
    11   7 N        3.026     0.105    19.426     6.546
    12   6 C        2.981    -0.024    28.597     8.772
    13   6 C        3.747    -0.024    21.068     6.547
    14   6 C        2.973     0.000    28.016     8.682
    15   6 C        2.923    -0.036    28.888     8.814
    16   6 C        2.919    -0.025    28.623     8.773
    17   6 C        2.920    -0.024    28.609     8.771
    18   6 C        2.919    -0.025    28.631     8.775
    19   6 C        2.923    -0.037    28.909     8.817
    20   6 C        3.754    -0.153    23.520     6.915
    21   1 H        0.925     0.100     1.783     2.088
    22   1 H        0.924     0.098     1.805     2.101
    23   1 H        0.924     0.096     1.819     2.109
    24   1 H        0.927     0.096     1.817     2.108
    25   1 H        0.927     0.100     1.789     2.092
    26   1 H        0.924     0.092     1.858     2.132
    27   1 H        0.924     0.083     1.951     2.185
    28   1 H        0.927     0.055     2.260     2.351
    29   1 H        0.924     0.071     2.076     2.253
    30   1 H        0.924     0.091     1.866     2.136
    31   1 H        0.926     0.038     2.473     2.459
    32   1 H        0.926     0.048     2.349     2.397
    33   1 H        0.926     0.050     2.324     2.384
    34   1 H        0.926     0.048     2.345     2.395
    35   1 H        0.926     0.037     2.495     2.470
    36   1 H        0.925     0.099     1.793     2.094
    37   1 H        0.924     0.139     1.467     1.894
    38   1 H        0.925     0.093     1.851     2.127

 Mol. C6AA /au·bohr⁶  :      15814.054331
 Mol. C8AA /au·bohr⁸  :     374643.861274
 Mol. α(0) /au        :        196.923398


Wiberg/Mayer (AO) data.
largest (>0.10) Wiberg bond orders for each atom

 ---------------------------------------------------------------------------
     #   Z sym  total        # sym  WBO       # sym  WBO       # sym  WBO
 ---------------------------------------------------------------------------
     1   6 C    3.939 --     2 N    0.990    21 H    0.975    23 H    0.967
                            22 H    0.965
     2   7 N    3.693 --     3 C    1.325     6 C    1.204     1 C    0.990
     3   6 C    3.948 --     2 N    1.325     4 N    1.321    20 C    1.054
     4   7 N    3.688 --     3 C    1.321     5 C    1.207     7 C    0.964
     5   6 C    3.950 --     6 C    1.612     4 N    1.207    24 H    0.963
     6   6 C    3.948 --     5 C    1.612     2 N    1.204    25 H    0.962
     7   6 C    3.947 --     8 C    0.992    27 H    0.967     4 N    0.964
                            26 H    0.952
     8   6 C    3.969 --    12 C    1.477     9 N    1.341     7 C    0.992
     9   7 N    3.058 --    10 N    1.473     8 C    1.341    11 N    0.117
    10   7 N    3.011 --     9 N    1.473    11 N    1.271    12 C    0.128
    11   7 N    3.726 --    12 C    1.292    10 N    1.271    13 C    0.968
                             9 N    0.117
    12   6 C    3.960 --     8 C    1.477    11 N    1.292    28 H    0.967
                            10 N    0.128
    13   6 C    3.952 --    14 C    0.993    11 N    0.968    30 H    0.958
                            29 H    0.955
    14   6 C    3.983 --    19 C    1.419    15 C    1.411    13 C    0.993
                            17 C    0.110
    15   6 C    3.992 --    16 C    1.448    14 C    1.411    31 H    0.970
                            18 C    0.112
    16   6 C    3.991 --    15 C    1.448    17 C    1.436    32 H    0.970
                            19 C    0.111
    17   6 C    3.990 --    18 C    1.443    16 C    1.436    33 H    0.970
                            14 C    0.110
    18   6 C    3.991 --    17 C    1.443    19 C    1.439    34 H    0.970
                            15 C    0.112
    19   6 C    3.990 --    18 C    1.439    14 C    1.419    35 H    0.968
                            16 C    0.111
    20   6 C    3.968 --     3 C    1.054    38 H    0.972    36 H    0.944
                            37 H    0.920
    21   1 H    0.990 --     1 C    0.975
    22   1 H    0.990 --     1 C    0.965
    23   1 H    0.991 --     1 C    0.967
    24   1 H    0.990 --     5 C    0.963
    25   1 H    0.990 --     6 C    0.962
    26   1 H    0.991 --     7 C    0.952
    27   1 H    0.993 --     7 C    0.967
    28   1 H    0.997 --    12 C    0.967
    29   1 H    0.995 --    13 C    0.955
    30   1 H    0.991 --    13 C    0.958
    31   1 H    0.999 --    15 C    0.970
    32   1 H    0.997 --    16 C    0.970
    33   1 H    0.997 --    17 C    0.970
    34   1 H    0.997 --    18 C    0.970
    35   1 H    0.999 --    19 C    0.968
    36   1 H    0.990 --    20 C    0.944
    37   1 H    0.981 --    20 C    0.920
    38   1 H    0.991 --    20 C    0.972
 ---------------------------------------------------------------------------

Topologies differ in total number of bonds
Writing topology from bond orders to xtbtopo.mol

molecular dipole:
                 x           y           z       tot (Debye)
 q only:       -1.491       2.627       4.463
   full:       -1.634       3.203       4.754      15.151
molecular quadrupole (traceless):
                xx          xy          yy          xz          yz          zz
 q only:       11.702      -6.097     -24.351     -38.310      15.670      12.649
  q+dip:        9.284     -13.343     -25.665     -42.015      19.167      16.381
   full:       10.843     -11.079     -26.646     -40.845      19.118      15.803

           -------------------------------------------------
          |                Geometry Summary                 |
           -------------------------------------------------

      molecular mass/u    :      268.3374880
   center of mass at/Å    :       -2.9664074       0.7662502       3.4590096
  moments of inertia/u·Å² :        0.4867585E+03   0.3699987E+04   0.3816286E+04
rotational constants/cm⁻¹ :        0.3463243E-01   0.4556133E-02   0.4417288E-02

 * 39 selected distances

     #   Z          #   Z                                           value/Å
     1   6 C        2   7 N                                       1.4401353
     2   7 N        3   6 C                                       1.3384992
     3   6 C        4   7 N                                       1.3392758
     4   7 N        5   6 C                                       1.3652502
     2   7 N        6   6 C                                       1.3664386
     5   6 C        6   6 C                                       1.3568362
     4   7 N        7   6 C                                       1.4502333
     7   6 C        8   6 C                                       1.4957692 (max)
     8   6 C        9   7 N                                       1.3528359
     9   7 N       10   7 N                                       1.2789294
    10   7 N       11   7 N                                       1.3172285
     8   6 C       12   6 C                                       1.3804817
    11   7 N       12   6 C                                       1.3487308
    11   7 N       13   6 C                                       1.4434147
    14   6 C       15   6 C                                       1.3900358
    15   6 C       16   6 C                                       1.3831370
    16   6 C       17   6 C                                       1.3854447
    17   6 C       18   6 C                                       1.3842382
    14   6 C       19   6 C                                       1.3879152
    18   6 C       19   6 C                                       1.3846066
     3   6 C       20   6 C                                       1.4716441
     1   6 C       21   1 H                                       1.0873709
     1   6 C       22   1 H                                       1.0906870
     1   6 C       23   1 H                                       1.0903044
     5   6 C       24   1 H                                       1.0702064
     6   6 C       25   1 H                                       1.0702043
     7   6 C       26   1 H                                       1.0938130
     7   6 C       27   1 H                                       1.0907547
    12   6 C       28   1 H                                       1.0687467 (min)
    13   6 C       29   1 H                                       1.0950336
    13   6 C       30   1 H                                       1.0930839
    15   6 C       31   1 H                                       1.0807520
    16   6 C       32   1 H                                       1.0791205
    17   6 C       33   1 H                                       1.0789297
    18   6 C       34   1 H                                       1.0791616
    19   6 C       35   1 H                                       1.0808127
    20   6 C       36   1 H                                       1.0900257
    20   6 C       37   1 H                                       1.0955573
    20   6 C       38   1 H                                       1.0844218

 * 4 distinct bonds (by element types)

   Z      Z             #   av. dist./Å        max./Å        min./Å
   1 H    6 C          18     1.0843881     1.0955573     1.0687467
   6 C    6 C          10     1.4020109     1.4957692     1.3568362
   6 C    7 N           9     1.3827571     1.4502333     1.3384992
   7 N    7 N           2     1.2980790     1.3172285     1.2789294


optimized geometry written to: xtbopt.xyz


           -------------------------------------------------
          | TOTAL ENERGY              -55.544386834462 Eh   |
          | GRADIENT NORM               0.000326108493 Eh/α |
          | HOMO-LUMO GAP               2.942013704152 eV   |
           -------------------------------------------------

------------------------------------------------------------------------
 * finished run on 2024/12/20 at 06:58:14.000     
------------------------------------------------------------------------
 total:
 * wall-time:     0 d,  0 h,  0 min,  1.803 sec
 *  cpu-time:     0 d,  0 h,  0 min, 14.178 sec
 * ratio c/w:     7.862 speedup
 SCF:
 * wall-time:     0 d,  0 h,  0 min,  0.026 sec
 *  cpu-time:     0 d,  0 h,  0 min,  0.207 sec
 * ratio c/w:     7.925 speedup
 ANC optimizer:
 * wall-time:     0 d,  0 h,  0 min,  1.760 sec
 *  cpu-time:     0 d,  0 h,  0 min, 13.847 sec
 * ratio c/w:     7.868 speedup

