      -----------------------------------------------------------      
     |                   =====================                   |     
     |                           x T B                           |     
     |                   =====================                   |     
     |                         S. Grimme                         |     
     |          Mulliken Center for Theoretical Chemistry        |     
     |                    University of Bonn                     |     
      -----------------------------------------------------------      

   * xtb version 6.7.1 (edcfbbe) compiled by 'conda@3ef47c1a292c' on 2024-11-25

   xtb is free software: you can redistribute it and/or modify it under
   the terms of the GNU Lesser General Public License as published by
   the Free Software Foundation, either version 3 of the License, or
   (at your option) any later version.
   
   xtb is distributed in the hope that it will be useful,
   but WITHOUT ANY WARRANTY; without even the implied warranty of
   MERCHANTABILITY or FITNESS FOR A PARTICULAR PURPOSE.  See the
   GNU Lesser General Public License for more details.
   
   Cite this work as:
   * C. Bannwarth, E. Caldeweyher, S. Ehlert, A. Hansen, P. Pracht,
     J. Seibert, S. Spicher, S. Grimme, WIREs Comput. Mol. Sci., 2020, 11,
     e01493. DOI: 10.1002/wcms.1493
   
   for GFN2-xTB:
   * C. Bannwarth, S. Ehlert and S. Grimme., J. Chem. Theory Comput., 2019,
     15, 1652-1671. DOI: 10.1021/acs.jctc.8b01176
   for GFN1-xTB:
   * S. Grimme, C. Bannwarth, P. Shushkov, J. Chem. Theory Comput., 2017,
     13, 1989-2009. DOI: 10.1021/acs.jctc.7b00118
   for GFN0-xTB:
   * P. Pracht, E. Caldeweyher, S. Ehlert, S. Grimme, ChemRxiv, 2019, preprint.
     DOI: 10.26434/chemrxiv.8326202.v1
   for GFN-FF:
   * S. Spicher and S. Grimme, Angew. Chem. Int. Ed., 2020, 59, 15665-15673.
     DOI: 10.1002/anie.202004239
   
   for ALPB and GBSA implicit solvation:
   * S. Ehlert, M. Stahn, S. Spicher, S. Grimme, J. Chem. Theory Comput.,
     2021, 17, 4250-4261. DOI: 10.1021/acs.jctc.1c00471
   
   for ddCOSMO and CPCM-X implicit solvation:
   * M. Stahn, S. Ehlert, S. Grimme, J. Phys. Chem. A,
     2023, XX, XXXX-XXXX. DOI: 10.1021/acs.jpca.3c04382
   
   for DFT-D4:
   * E. Caldeweyher, C. Bannwarth and S. Grimme, J. Chem. Phys., 2017,
     147, 034112. DOI: 10.1063/1.4993215
   * E. Caldeweyher, S. Ehlert, A. Hansen, H. Neugebauer, S. Spicher,
     C. Bannwarth and S. Grimme, J. Chem. Phys., 2019, 150, 154122.
     DOI: 10.1063/1.5090222
   * E. Caldeweyher, J.-M. Mewes, S. Ehlert and S. Grimme, Phys. Chem. Chem. Phys.
     2020, 22, 8499-8512. DOI: 10.1039/D0CP00502A
   
   for sTDA-xTB:
   * S. Grimme and C. Bannwarth, J. Chem. Phys., 2016, 145, 054103.
     DOI: 10.1063/1.4959605
   
   in the mass-spec context:
   * V. Asgeirsson, C. Bauer and S. Grimme, Chem. Sci., 2017, 8, 4879.
     DOI: 10.1039/c7sc00601b
   * J. Koopman and S. Grimme, ACS Omega 2019, 4, 12, 15120-15133.
     DOI: 10.1021/acsomega.9b02011
   
   for metadynamics refer to:
   * S. Grimme, J. Chem. Theory Comput., 2019, 155, 2847-2862
     DOI: 10.1021/acs.jctc.9b00143
   
   for SPH calculations refer to:
   * S. Spicher and S. Grimme, J. Chem. Theory Comput., 2021, 17, 1701-1714
     DOI: 10.1021/acs.jctc.0c01306
   
   for ONIOM refer to:
   * C. Plett, A. Katbashev, S. Ehlert, S. Grimme, M. Bursch,
     Phys. Chem. Chem. Phys., 2023, 25, 17860-17868. DOI: 10.1039/D3CP02178E
   
   for DIPRO refer to:
   * J. Kohn, N. Gildemeister, S. Grimme, D. Fazzi, A. Hansen,
     J. Chem. Phys., 2023, just accepted.
   
   for PTB refer to:
   * S. Grimme, M. Mueller, A. Hansen, J. Chem. Phys., 2023, 158, 124111.
     DOI: 10.1063/5.0137838
   
   with help from (in alphabetical order)
   P. Atkinson, C. Bannwarth, F. Bohle, G. Brandenburg, E. Caldeweyher
   M. Checinski, S. Dohm, S. Ehlert, S. Ehrlich, I. Gerasimov, C. Hölzer
   A. Katbashev, J. Kohn, J. Koopman, C. Lavigne, S. Lehtola, F. März, M. Müller,
   F. Musil, H. Neugebauer, J. Pisarek, C. Plett, P. Pracht, F. Pultar,
   J. Seibert, P. Shushkov, S. Spicher, M. Stahn, M. Steiner, T. Strunk,
   J. Stückrath, T. Rose, and J. Unsleber
   
 * started run on 2024/12/20 at 06:58:17.996     
   ID    Z sym.   atoms
    1    6 C      1, 3-14, 16-22
    2    7 N      2
    3    8 O      15
    4    1 H      23-50

           -------------------------------------------------
          |                Calculation Setup                |
           -------------------------------------------------

          program call               : xtb C0800.xyz --opt --namespace C0800 --charge +1
          calculation namespace      : C0800
          coordinate file            : C0800.xyz
          omp threads                :                     8


           -------------------------------------------------
          |                 G F N 2 - x T B                 |
           -------------------------------------------------

        Reference                      10.1021/acs.jctc.8b01176
      * Hamiltonian:
        H0-scaling (s, p, d)           1.850000    2.230000    2.230000
        zeta-weighting                 0.500000
      * Dispersion:
        s8                             2.700000
        a1                             0.520000
        a2                             5.000000
        s9                             5.000000
      * Repulsion:
        kExp                           1.500000    1.000000
        rExp                           1.000000
      * Coulomb:
        alpha                          2.000000
        third order                    shell-resolved
        anisotropic                    true
        a3                             3.000000
        a5                             4.000000
        cn-shift                       1.200000
        cn-exp                         4.000000
        max-rad                        5.000000


          ...................................................
          :                      SETUP                      :
          :.................................................:
          :  # basis functions                 116          :
          :  # atomic orbitals                 116          :
          :  # shells                           72          :
          :  # electrons                       118          :
          :  max. iterations                   250          :
          :  Hamiltonian                  GFN2-xTB          :
          :  restarted?                      false          :
          :  GBSA solvation                  false          :
          :  PC potential                    false          :
          :  electronic temp.          300.0000000     K    :
          :  accuracy                    1.0000000          :
          :  -> integral cutoff          0.2500000E+02      :
          :  -> integral neglect         0.1000000E-07      :
          :  -> SCF convergence          0.1000000E-05 Eh   :
          :  -> wf. convergence          0.1000000E-03 e    :
          :  Broyden damping             0.4000000          :
          :  net charge                          1          :
          :  unpaired electrons                  0          :
          ...................................................

 iter      E             dE          RMSdq      gap      omega  full diag
   1    -64.4640728 -0.644641E+02  0.358E+00    4.12       0.0  T
   2    -64.6143951 -0.150322E+00  0.231E+00    3.18       1.0  T
   3    -64.6162651 -0.186998E-02  0.106E+00    2.73       1.0  T
   4    -64.6161706  0.945290E-04  0.391E-01    2.40       1.0  T
   5    -64.6217813 -0.561075E-02  0.824E-02    2.43       1.0  T
   6    -64.6218386 -0.573119E-04  0.410E-02    2.44       1.0  T
   7    -64.6218413 -0.269499E-05  0.169E-02    2.45       1.0  T
   8    -64.6218476 -0.628229E-05  0.389E-03    2.45       3.6  T
   9    -64.6218478 -0.206902E-06  0.170E-03    2.45       8.3  T
  10    -64.6218478 -0.427869E-07  0.855E-04    2.45      16.5  T
  11    -64.6218478 -0.902082E-08  0.271E-04    2.45      52.2  T

   *** convergence criteria satisfied after 11 iterations ***

         #    Occupation            Energy/Eh            Energy/eV
      -------------------------------------------------------------
         1        2.0000           -0.8447611             -22.9871
       ...           ...                  ...                  ...
        53        2.0000           -0.5276150             -14.3571
        54        2.0000           -0.5258388             -14.3088
        55        2.0000           -0.5140084             -13.9869
        56        2.0000           -0.5023589             -13.6699
        57        2.0000           -0.4889549             -13.3051
        58        2.0000           -0.4731643             -12.8755
        59        2.0000           -0.4525109             -12.3134 (HOMO)
        60                         -0.3625416              -9.8653 (LUMO)
        61                         -0.3486946              -9.4885
        62                         -0.2970093              -8.0820
        63                         -0.2891668              -7.8686
        64                         -0.2741889              -7.4611
       ...                                ...                  ...
       116                          0.5744202              15.6308
      -------------------------------------------------------------
                  HL-Gap            0.0899693 Eh            2.4482 eV
             Fermi-level           -0.4075262 Eh          -11.0894 eV

 SCC (total)                   0 d,  0 h,  0 min,  0.036 sec
 SCC setup                      ...        0 min,  0.000 sec (  0.487%)
 Dispersion                     ...        0 min,  0.001 sec (  2.126%)
 classical contributions        ...        0 min,  0.000 sec (  0.199%)
 integral evaluation            ...        0 min,  0.003 sec (  7.182%)
 iterations                     ...        0 min,  0.024 sec ( 66.255%)
 molecular gradient             ...        0 min,  0.008 sec ( 23.277%)
 printout                       ...        0 min,  0.000 sec (  0.429%)

         :::::::::::::::::::::::::::::::::::::::::::::::::::::
         ::                     SUMMARY                     ::
         :::::::::::::::::::::::::::::::::::::::::::::::::::::
         :: total energy             -63.662913808717 Eh    ::
         :: gradient norm              0.061365899620 Eh/a0 ::
         :: HOMO-LUMO gap              2.448188947897 eV    ::
         ::.................................................::
         :: SCC energy               -64.621168682649 Eh    ::
         :: -> isotropic ES            0.093645080674 Eh    ::
         :: -> anisotropic ES         -0.004581990476 Eh    ::
         :: -> anisotropic XC          0.040181865999 Eh    ::
         :: -> dispersion             -0.046001721155 Eh    ::
         :: repulsion energy           0.958254873932 Eh    ::
         :: add. restraining           0.000000000000 Eh    ::
         :: total charge               1.000000000000 e     ::
         :::::::::::::::::::::::::::::::::::::::::::::::::::::

      ----------------------------------------------------------- 
     |                   =====================                   |
     |                        A N C O P T                        |
     |                   =====================                   |
     |               Approximate Normal Coordinate               |
     |                Rational Function Optimizer                |
      ----------------------------------------------------------- 
      ----------------------------------------------------------- 
     |                   =====================                   |
     |                        A N C O P T                        |
     |                   =====================                   |
     |               Approximate Normal Coordinate               |
     |                Rational Function Optimizer                |
      ----------------------------------------------------------- 

          ...................................................
          :                      SETUP                      :
          :.................................................:
          :   optimization level            normal          :
          :   max. optcycles                   200          :
          :   ANC micro-cycles                  20          :
          :   degrees of freedom               144          :
          :.................................................:
          :   RF solver                   davidson          :
          :   write xtbopt.log                true          :
          :   linear?                        false          :
          :   energy convergence         0.5000000E-05 Eh   :
          :   grad. convergence          0.1000000E-02 Eh/α :
          :   maxmium RF displ.          1.0000000          :
          :   Hlow (freq-cutoff)         0.1000000E-01      :
          :   Hmax (freq-cutoff)         5.0000000          :
          :   S6 in model hess.         20.0000000          :
          ...................................................

generating ANC from exact Hessian ...
Using Lindh-Hessian (1995)
 Shifting diagonal of input Hessian by    9.8804709519005607E-003
 Lowest  eigenvalues of input Hessian
    0.000000    0.000000    0.000000    0.000000    0.000000    0.000000
    0.010000    0.010052    0.010222    0.010531    0.010662    0.010901
    0.011001    0.011986    0.012507    0.013044    0.014928    0.015317
 Highest eigenvalues
    1.827359    1.858297    1.928853    1.941779    1.971680    2.057137


........................................................................
.............................. CYCLE    1 ..............................
........................................................................

 iter      E             dE          RMSdq      gap      omega  full diag
   1    -64.6218478 -0.646218E+02  0.128E-04    2.45       0.0  T
   2    -64.6218478 -0.938343E-10  0.789E-05    2.45     179.2  T
   3    -64.6218478 -0.646594E-11  0.505E-05    2.45     280.0  T
     SCC iter.                  ...        0 min,  0.006 sec
     gradient                   ...        0 min,  0.008 sec
 * total energy  :   -63.6629138 Eh     change       -0.4822880E-09 Eh
   gradient norm :     0.0613673 Eh/α   predicted     0.0000000E+00 (-100.00%)
   displ. norm   :     0.3023969 α      lambda       -0.1193357E-01
   maximum displ.:     0.1346887 α      in ANC's #34, #37, #54, ...

........................................................................
.............................. CYCLE    2 ..............................
........................................................................

 iter      E             dE          RMSdq      gap      omega  full diag
   1    -64.6715802 -0.646716E+02  0.166E-01    2.54       0.0  T
   2    -64.6717496 -0.169366E-03  0.998E-02    2.53       1.0  T
   3    -64.6717504 -0.798956E-06  0.395E-02    2.53       1.0  T
   4    -64.6717525 -0.206618E-05  0.999E-03    2.53       1.4  T
   5    -64.6717573 -0.482811E-05  0.278E-03    2.53       5.1  T
   6    -64.6717573 -0.862028E-08  0.108E-03    2.53      13.1  T
   7    -64.6717573 -0.181647E-07  0.315E-04    2.53      44.9  T
   8    -64.6717573 -0.123657E-08  0.155E-04    2.53      91.1  T
     SCC iter.                  ...        0 min,  0.015 sec
     gradient                   ...        0 min,  0.008 sec
 * total energy  :   -63.6710414 Eh     change       -0.8127608E-02 Eh
   gradient norm :     0.0275849 Eh/α   predicted    -0.6512785E-02 ( -19.87%)
   displ. norm   :     0.2898646 α      lambda       -0.3637278E-02
   maximum displ.:     0.1048328 α      in ANC's #11, #34, #18, ...

........................................................................
.............................. CYCLE    3 ..............................
........................................................................

 iter      E             dE          RMSdq      gap      omega  full diag
   1    -64.6932762 -0.646933E+02  0.105E-01    2.58       0.0  T
   2    -64.6933874 -0.111144E-03  0.644E-02    2.58       1.0  T
   3    -64.6933887 -0.128880E-05  0.305E-02    2.58       1.0  T
   4    -64.6933879  0.770684E-06  0.716E-03    2.58       2.0  T
   5    -64.6933902 -0.235651E-05  0.171E-03    2.58       8.2  T
   6    -64.6933902 -0.257548E-08  0.647E-04    2.58      21.9  T
   7    -64.6933903 -0.570907E-08  0.186E-04    2.58      75.9  T
     SCC iter.                  ...        0 min,  0.013 sec
     gradient                   ...        0 min,  0.008 sec
 * total energy  :   -63.6731071 Eh     change       -0.2065717E-02 Eh
   gradient norm :     0.0067138 Eh/α   predicted    -0.1972715E-02 (  -4.50%)
   displ. norm   :     0.1956431 α      lambda       -0.5453649E-03
   maximum displ.:     0.0811332 α      in ANC's #11, #10, #3, ...

........................................................................
.............................. CYCLE    4 ..............................
........................................................................

 iter      E             dE          RMSdq      gap      omega  full diag
   1    -64.6920837 -0.646921E+02  0.499E-02    2.58       0.0  T
   2    -64.6920889 -0.516218E-05  0.293E-02    2.58       1.0  T
   3    -64.6920879  0.941564E-06  0.761E-03    2.58       1.9  T
   4    -64.6920889 -0.102778E-05  0.243E-03    2.58       5.8  T
   5    -64.6920892 -0.301164E-06  0.474E-04    2.58      29.8  T
   6    -64.6920892 -0.352614E-09  0.173E-04    2.58      81.9  T
     SCC iter.                  ...        0 min,  0.011 sec
     gradient                   ...        0 min,  0.008 sec
 * total energy  :   -63.6735321 Eh     change       -0.4249208E-03 Eh
   gradient norm :     0.0046781 Eh/α   predicted    -0.2831454E-03 ( -33.37%)
   displ. norm   :     0.3566571 α      lambda       -0.6621620E-03
   maximum displ.:     0.1386669 α      in ANC's #6, #3, #11, ...

........................................................................
.............................. CYCLE    5 ..............................
........................................................................

 iter      E             dE          RMSdq      gap      omega  full diag
   1    -64.6883030 -0.646883E+02  0.867E-02    2.58       0.0  T
   2    -64.6883072 -0.411535E-05  0.510E-02    2.58       1.0  T
   3    -64.6883040  0.318364E-05  0.982E-03    2.58       1.4  T
   4    -64.6883079 -0.389661E-05  0.215E-03    2.58       6.6  T
   5    -64.6883080 -0.143959E-06  0.773E-04    2.58      18.3  T
   6    -64.6883080 -0.105592E-08  0.312E-04    2.58      45.4  T
     SCC iter.                  ...        0 min,  0.012 sec
     gradient                   ...        0 min,  0.008 sec
 * total energy  :   -63.6739773 Eh     change       -0.4452135E-03 Eh
   gradient norm :     0.0063749 Eh/α   predicted    -0.3732032E-03 ( -16.17%)
   displ. norm   :     0.2645462 α      lambda       -0.2987724E-03
   maximum displ.:     0.1279522 α      in ANC's #6, #3, #9, ...

........................................................................
.............................. CYCLE    6 ..............................
........................................................................

 iter      E             dE          RMSdq      gap      omega  full diag
   1    -64.6877077 -0.646877E+02  0.642E-02    2.58       0.0  T
   2    -64.6877090 -0.128686E-05  0.379E-02    2.58       1.0  T
   3    -64.6877071  0.186611E-05  0.736E-03    2.58       1.9  T
   4    -64.6877094 -0.229687E-05  0.115E-03    2.58      12.3  T
   5    -64.6877094 -0.189360E-07  0.538E-04    2.58      26.3  T
   6    -64.6877094 -0.787097E-09  0.232E-04    2.58      60.9  T
     SCC iter.                  ...        0 min,  0.012 sec
     gradient                   ...        0 min,  0.028 sec
 * total energy  :   -63.6742084 Eh     change       -0.2311021E-03 Eh
   gradient norm :     0.0058866 Eh/α   predicted    -0.1598409E-03 ( -30.84%)
   displ. norm   :     0.3088969 α      lambda       -0.3309067E-03
   maximum displ.:     0.1648882 α      in ANC's #6, #3, #9, ...

........................................................................
.............................. CYCLE    7 ..............................
........................................................................

 iter      E             dE          RMSdq      gap      omega  full diag
   1    -64.6894024 -0.646894E+02  0.781E-02    2.57       0.0  T
   2    -64.6894050 -0.255087E-05  0.461E-02    2.57       1.0  T
   3    -64.6894022  0.276513E-05  0.914E-03    2.57       1.5  T
   4    -64.6894056 -0.336874E-05  0.157E-03    2.57       9.0  T
   5    -64.6894057 -0.608309E-07  0.667E-04    2.57      21.2  T
   6    -64.6894057 -0.265203E-09  0.277E-04    2.57      51.0  T
     SCC iter.                  ...        0 min,  0.034 sec
     gradient                   ...        0 min,  0.015 sec
 * total energy  :   -63.6744695 Eh     change       -0.2611230E-03 Eh
   gradient norm :     0.0037874 Eh/α   predicted    -0.1812416E-03 ( -30.59%)
   displ. norm   :     0.3682014 α      lambda       -0.3327545E-03
   maximum displ.:     0.2058301 α      in ANC's #6, #3, #9, ...

........................................................................
.............................. CYCLE    8 ..............................
........................................................................

 iter      E             dE          RMSdq      gap      omega  full diag
   1    -64.6915241 -0.646915E+02  0.930E-02    2.55       0.0  T
   2    -64.6915270 -0.295884E-05  0.547E-02    2.55       1.0  T
   3    -64.6915229  0.419517E-05  0.107E-02    2.56       1.3  T
   4    -64.6915279 -0.507148E-05  0.161E-03    2.55       8.8  T
   5    -64.6915280 -0.592226E-07  0.746E-04    2.55      19.0  T
   6    -64.6915280 -0.215522E-09  0.307E-04    2.55      46.0  T
     SCC iter.                  ...        0 min,  0.015 sec
     gradient                   ...        0 min,  0.008 sec
 * total energy  :   -63.6747375 Eh     change       -0.2680286E-03 Eh
   gradient norm :     0.0040069 Eh/α   predicted    -0.1889333E-03 ( -29.51%)
   displ. norm   :     0.4345953 α      lambda       -0.3394498E-03
   maximum displ.:     0.2460562 α      in ANC's #6, #3, #9, ...

........................................................................
.............................. CYCLE    9 ..............................
........................................................................

 iter      E             dE          RMSdq      gap      omega  full diag
   1    -64.6925650 -0.646926E+02  0.104E-01    2.54       0.0  T
   2    -64.6925676 -0.264372E-05  0.611E-02    2.53       1.0  T
   3    -64.6925623  0.535499E-05  0.114E-02    2.54       1.2  T
   4    -64.6925687 -0.644979E-05  0.149E-03    2.54       9.5  T
   5    -64.6925688 -0.311083E-07  0.774E-04    2.54      18.3  T
   6    -64.6925688 -0.782393E-09  0.314E-04    2.53      45.1  T
     SCC iter.                  ...        0 min,  0.012 sec
     gradient                   ...        0 min,  0.008 sec
 * total energy  :   -63.6750207 Eh     change       -0.2831317E-03 Eh
   gradient norm :     0.0052032 Eh/α   predicted    -0.2017813E-03 ( -28.73%)
   displ. norm   :     0.4949418 α      lambda       -0.3672587E-03
   maximum displ.:     0.2797631 α      in ANC's #6, #3, #9, ...

........................................................................
.............................. CYCLE   10 ..............................
........................................................................

 iter      E             dE          RMSdq      gap      omega  full diag
   1    -64.6925094 -0.646925E+02  0.108E-01    2.51       0.0  T
   2    -64.6925119 -0.251245E-05  0.632E-02    2.51       1.0  T
   3    -64.6925066  0.530893E-05  0.110E-02    2.52       1.3  T
   4    -64.6925130 -0.641145E-05  0.149E-03    2.51       9.5  T
   5    -64.6925130 -0.261494E-07  0.778E-04    2.51      18.2  T
   6    -64.6925130 -0.997900E-09  0.303E-04    2.51      46.7  T
     SCC iter.                  ...        0 min,  0.011 sec
     gradient                   ...        0 min,  0.008 sec
 * total energy  :   -63.6753244 Eh     change       -0.3037828E-03 Eh
   gradient norm :     0.0056476 Eh/α   predicted    -0.2286126E-03 ( -24.74%)
   displ. norm   :     0.5097903 α      lambda       -0.3635024E-03
   maximum displ.:     0.2866551 α      in ANC's #6, #3, #9, ...

........................................................................
.............................. CYCLE   11 ..............................
........................................................................

 iter      E             dE          RMSdq      gap      omega  full diag
   1    -64.6919472 -0.646919E+02  0.987E-02    2.50       0.0  T
   2    -64.6919494 -0.225499E-05  0.580E-02    2.50       1.0  T
   3    -64.6919456  0.387012E-05  0.924E-03    2.50       1.5  T
   4    -64.6919503 -0.470284E-05  0.146E-03    2.50       9.7  T
   5    -64.6919503 -0.396025E-07  0.735E-04    2.50      19.3  T
   6    -64.6919503 -0.469655E-09  0.265E-04    2.50      53.3  T
     SCC iter.                  ...        0 min,  0.011 sec
     gradient                   ...        0 min,  0.008 sec
 * total energy  :   -63.6756123 Eh     change       -0.2878618E-03 Eh
   gradient norm :     0.0053516 Eh/α   predicted    -0.2289866E-03 ( -20.45%)
   displ. norm   :     0.4640444 α      lambda       -0.3162835E-03
   maximum displ.:     0.2583451 α      in ANC's #6, #3, #9, ...

........................................................................
.............................. CYCLE   12 ..............................
........................................................................

 iter      E             dE          RMSdq      gap      omega  full diag
   1    -64.6917950 -0.646918E+02  0.810E-02    2.49       0.0  T
   2    -64.6917965 -0.152761E-05  0.477E-02    2.49       1.0  T
   3    -64.6917944  0.213989E-05  0.679E-03    2.49       2.1  T
   4    -64.6917970 -0.263078E-05  0.128E-03    2.49      11.1  T
   5    -64.6917970 -0.395833E-07  0.621E-04    2.49      22.8  T
   6    -64.6917970 -0.377455E-09  0.197E-04    2.49      71.9  T
     SCC iter.                  ...        0 min,  0.012 sec
     gradient                   ...        0 min,  0.008 sec
 * total energy  :   -63.6758554 Eh     change       -0.2431217E-03 Eh
   gradient norm :     0.0048706 Eh/α   predicted    -0.1921952E-03 ( -20.95%)
   displ. norm   :     0.4114638 α      lambda       -0.2631054E-03
   maximum displ.:     0.2193686 α      in ANC's #6, #3, #9, ...

........................................................................
.............................. CYCLE   13 ..............................
........................................................................

 iter      E             dE          RMSdq      gap      omega  full diag
   1    -64.6917955 -0.646918E+02  0.667E-02    2.50       0.0  T
   2    -64.6917964 -0.844160E-06  0.393E-02    2.50       1.0  T
   3    -64.6917950  0.132289E-05  0.530E-03    2.50       2.7  T
   4    -64.6917967 -0.166311E-05  0.101E-03    2.50      14.0  T
   5    -64.6917967 -0.142700E-07  0.530E-04    2.50      26.7  T
   6    -64.6917967 -0.605652E-09  0.149E-04    2.50      94.8  T
     SCC iter.                  ...        0 min,  0.012 sec
     gradient                   ...        0 min,  0.008 sec
 * total energy  :   -63.6760620 Eh     change       -0.2065406E-03 Eh
   gradient norm :     0.0047900 Eh/α   predicted    -0.1538259E-03 ( -25.52%)
   displ. norm   :     0.4176441 α      lambda       -0.2583148E-03
   maximum displ.:     0.2013193 α      in ANC's #3, #6, #7, ...

........................................................................
.............................. CYCLE   14 ..............................
........................................................................

 iter      E             dE          RMSdq      gap      omega  full diag
   1    -64.6922830 -0.646923E+02  0.629E-02    2.50       0.0  T
   2    -64.6922838 -0.756920E-06  0.371E-02    2.50       1.0  T
   3    -64.6922828  0.955925E-06  0.463E-03    2.51       3.1  T
   4    -64.6922841 -0.124467E-05  0.101E-03    2.51      14.0  T
   5    -64.6922841 -0.143686E-07  0.539E-04    2.51      26.2  T
   6    -64.6922841 -0.937433E-09  0.145E-04    2.51      97.2  T
     SCC iter.                  ...        0 min,  0.011 sec
     gradient                   ...        0 min,  0.008 sec
 * total energy  :   -63.6762673 Eh     change       -0.2052904E-03 Eh
   gradient norm :     0.0050658 Eh/α   predicted    -0.1516897E-03 ( -26.11%)
   displ. norm   :     0.4192742 α      lambda       -0.2493491E-03
   maximum displ.:     0.1990274 α      in ANC's #7, #3, #6, ...

........................................................................
.............................. CYCLE   15 ..............................
........................................................................

 iter      E             dE          RMSdq      gap      omega  full diag
   1    -64.6928799 -0.646929E+02  0.616E-02    2.51       0.0  T
   2    -64.6928809 -0.940028E-06  0.364E-02    2.51       1.0  T
   3    -64.6928803  0.541280E-06  0.376E-03    2.51       3.8  T
   4    -64.6928811 -0.759134E-06  0.112E-03    2.51      12.7  T
   5    -64.6928811 -0.361164E-07  0.564E-04    2.51      25.1  T
   6    -64.6928811 -0.130100E-08  0.158E-04    2.51      89.5  T
     SCC iter.                  ...        0 min,  0.012 sec
     gradient                   ...        0 min,  0.008 sec
 * total energy  :   -63.6764601 Eh     change       -0.1928771E-03 Eh
   gradient norm :     0.0049756 Eh/α   predicted    -0.1465912E-03 ( -24.00%)
   displ. norm   :     0.3659112 α      lambda       -0.1921309E-03
   maximum displ.:     0.1938062 α      in ANC's #7, #3, #1, ...

........................................................................
.............................. CYCLE   16 ..............................
........................................................................

 iter      E             dE          RMSdq      gap      omega  full diag
   1    -64.6940166 -0.646940E+02  0.544E-02    2.52       0.0  T
   2    -64.6940173 -0.707828E-06  0.322E-02    2.52       1.0  T
   3    -64.6940170  0.264339E-06  0.308E-03    2.52       4.6  T
   4    -64.6940174 -0.415915E-06  0.949E-04    2.52      14.9  T
   5    -64.6940175 -0.231789E-07  0.483E-04    2.52      29.3  T
     SCC iter.                  ...        0 min,  0.010 sec
     gradient                   ...        0 min,  0.008 sec
 * total energy  :   -63.6766047 Eh     change       -0.1445712E-03 Eh
   gradient norm :     0.0040608 Eh/α   predicted    -0.1089280E-03 ( -24.65%)
   displ. norm   :     0.3126590 α      lambda       -0.1279287E-03
   maximum displ.:     0.1620270 α      in ANC's #7, #3, #1, ...

........................................................................
.............................. CYCLE   17 ..............................
........................................................................

 iter      E             dE          RMSdq      gap      omega  full diag
   1    -64.6934234 -0.646934E+02  0.483E-02    2.51       0.0  T
   2    -64.6934241 -0.656511E-06  0.284E-02    2.51       1.0  T
   3    -64.6934237  0.385256E-06  0.366E-03    2.51       3.9  T
   4    -64.6934242 -0.531770E-06  0.859E-04    2.51      16.5  T
   5    -64.6934242 -0.161545E-07  0.414E-04    2.51      34.1  T
     SCC iter.                  ...        0 min,  0.010 sec
     gradient                   ...        0 min,  0.008 sec
 * total energy  :   -63.6767008 Eh     change       -0.9614492E-04 Eh
   gradient norm :     0.0034142 Eh/α   predicted    -0.7021884E-04 ( -26.97%)
   displ. norm   :     0.3176994 α      lambda       -0.1426627E-03
   maximum displ.:     0.1865761 α      in ANC's #7, #2, #4, ...

........................................................................
.............................. CYCLE   18 ..............................
........................................................................

 iter      E             dE          RMSdq      gap      omega  full diag
   1    -64.6991915 -0.646992E+02  0.673E-02    2.51       0.0  T
   2    -64.6991926 -0.116237E-05  0.396E-02    2.51       1.0  T
   3    -64.6991917  0.891082E-06  0.529E-03    2.51       2.7  T
   4    -64.6991929 -0.119660E-05  0.113E-03    2.51      12.5  T
   5    -64.6991930 -0.231908E-07  0.549E-04    2.51      25.8  T
   6    -64.6991930 -0.768821E-09  0.203E-04    2.51      69.5  T
     SCC iter.                  ...        0 min,  0.012 sec
     gradient                   ...        0 min,  0.011 sec
 * total energy  :   -63.6767425 Eh     change       -0.4161409E-04 Eh
   gradient norm :     0.0054760 Eh/α   predicted    -0.7853180E-04 (  88.71%)
   displ. norm   :     0.3742183 α      lambda       -0.1874647E-03
   maximum displ.:     0.1685729 α      in ANC's #7, #3, #1, ...

........................................................................
.............................. CYCLE   19 ..............................
........................................................................

 iter      E             dE          RMSdq      gap      omega  full diag
   1    -64.6938379 -0.646938E+02  0.570E-02    2.50       0.0  T
   2    -64.6938399 -0.194004E-05  0.331E-02    2.50       1.0  T
   3    -64.6938394  0.426713E-06  0.439E-03    2.50       3.2  T
   4    -64.6938401 -0.641259E-06  0.145E-03    2.50       9.8  T
   5    -64.6938402 -0.721138E-07  0.643E-04    2.50      22.0  T
   6    -64.6938402 -0.834191E-09  0.189E-04    2.50      74.7  T
     SCC iter.                  ...        0 min,  0.012 sec
     gradient                   ...        0 min,  0.008 sec
 * total energy  :   -63.6768400 Eh     change       -0.9751842E-04 Eh
   gradient norm :     0.0052348 Eh/α   predicted    -0.1068592E-03 (   9.58%)
   displ. norm   :     0.1017875 α      lambda       -0.8494001E-04
   maximum displ.:     0.0577304 α      in ANC's #4, #2, #1, ...

........................................................................
.............................. CYCLE   20 ..............................
........................................................................

 iter      E             dE          RMSdq      gap      omega  full diag
   1    -64.6927870 -0.646928E+02  0.203E-02    2.49       0.0  T
   2    -64.6927872 -0.194375E-06  0.120E-02    2.49       1.2  T
   3    -64.6927869  0.255009E-06  0.239E-03    2.49       5.9  T
   4    -64.6927872 -0.316349E-06  0.451E-04    2.49      31.3  T
   5    -64.6927873 -0.466264E-08  0.229E-04    2.49      61.7  T
     SCC iter.                  ...        0 min,  0.014 sec
     gradient                   ...        0 min,  0.008 sec
 * total energy  :   -63.6769085 Eh     change       -0.6852825E-04 Eh
   gradient norm :     0.0042788 Eh/α   predicted    -0.4291176E-04 ( -37.38%)
   displ. norm   :     0.2136878 α      lambda       -0.1799288E-03
   maximum displ.:     0.1354645 α      in ANC's #4, #2, #1, ...
 * RMSD in coord.:     0.7678447 α      energy gain  -0.1399470E-01 Eh

generating ANC from exact Hessian ...
Using Lindh-Hessian (1995)
 Shifting diagonal of input Hessian by    9.8798039146063416E-003
 Lowest  eigenvalues of input Hessian
    0.000000    0.000000    0.000000    0.000000    0.000000    0.000000
    0.010000    0.010044    0.010274    0.010590    0.010714    0.011220
    0.011314    0.012340    0.012908    0.013291    0.015328    0.016145
 Highest eigenvalues
    1.891033    1.913194    1.999267    2.018891    2.029291    2.110978


........................................................................
.............................. CYCLE   21 ..............................
........................................................................

 iter      E             dE          RMSdq      gap      omega  full diag
   1    -64.6939857 -0.646940E+02  0.413E-02    2.49       0.0  T
   2    -64.6939863 -0.566505E-06  0.243E-02    2.49       1.0  T
   3    -64.6939857  0.622550E-06  0.398E-03    2.49       3.5  T
   4    -64.6939865 -0.790555E-06  0.799E-04    2.49      17.7  T
   5    -64.6939865 -0.117064E-07  0.403E-04    2.49      35.1  T
     SCC iter.                  ...        0 min,  0.010 sec
     gradient                   ...        0 min,  0.008 sec
 * total energy  :   -63.6770389 Eh     change       -0.1304334E-03 Eh
   gradient norm :     0.0029095 Eh/α   predicted     0.0000000E+00 (-100.00%)
   displ. norm   :     0.0482429 α      lambda       -0.4022991E-04
   maximum displ.:     0.0327239 α      in ANC's #2, #4, #5, ...

........................................................................
.............................. CYCLE   22 ..............................
........................................................................

 iter      E             dE          RMSdq      gap      omega  full diag
   1    -64.6947571 -0.646948E+02  0.121E-02    2.50       0.0  T
   2    -64.6947572 -0.109839E-06  0.718E-03    2.50       2.0  T
   3    -64.6947571  0.172503E-06  0.207E-03    2.50       6.8  T
   4    -64.6947573 -0.211662E-06  0.302E-04    2.50      46.8  T
   5    -64.6947573 -0.215152E-08  0.140E-04    2.50     101.1  T
     SCC iter.                  ...        0 min,  0.010 sec
     gradient                   ...        0 min,  0.008 sec
 * total energy  :   -63.6770727 Eh     change       -0.3378019E-04 Eh
   gradient norm :     0.0012229 Eh/α   predicted    -0.2032642E-04 ( -39.83%)
   displ. norm   :     0.1926704 α      lambda       -0.7026767E-04
   maximum displ.:     0.1223091 α      in ANC's #2, #4, #5, ...

........................................................................
.............................. CYCLE   23 ..............................
........................................................................

 iter      E             dE          RMSdq      gap      omega  full diag
   1    -64.6960501 -0.646961E+02  0.430E-02    2.49       0.0  T
   2    -64.6960508 -0.738940E-06  0.254E-02    2.50       1.0  T
   3    -64.6960495  0.131079E-05  0.545E-03    2.50       2.6  T
   4    -64.6960511 -0.160025E-05  0.880E-04    2.50      16.1  T
   5    -64.6960511 -0.126995E-07  0.456E-04    2.50      31.0  T
   6    -64.6960511 -0.792170E-09  0.175E-04    2.50      80.7  T
     SCC iter.                  ...        0 min,  0.011 sec
     gradient                   ...        0 min,  0.008 sec
 * total energy  :   -63.6771440 Eh     change       -0.7124144E-04 Eh
   gradient norm :     0.0034335 Eh/α   predicted    -0.3571486E-04 ( -49.87%)
   displ. norm   :     0.1245651 α      lambda       -0.5151908E-04
   maximum displ.:     0.0788757 α      in ANC's #2, #4, #5, ...

........................................................................
.............................. CYCLE   24 ..............................
........................................................................

 iter      E             dE          RMSdq      gap      omega  full diag
   1    -64.6959501 -0.646960E+02  0.269E-02    2.49       0.0  T
   2    -64.6959502 -0.872079E-07  0.158E-02    2.49       1.0  T
   3    -64.6959501  0.155756E-06  0.183E-03    2.49       7.7  T
   4    -64.6959503 -0.206896E-06  0.402E-04    2.49      35.2  T
   5    -64.6959503 -0.358227E-09  0.167E-04    2.49      84.8  T
     SCC iter.                  ...        0 min,  0.010 sec
     gradient                   ...        0 min,  0.008 sec
 * total energy  :   -63.6771931 Eh     change       -0.4917410E-04 Eh
   gradient norm :     0.0036251 Eh/α   predicted    -0.2616381E-04 ( -46.79%)
   displ. norm   :     0.2723277 α      lambda       -0.1231176E-03
   maximum displ.:     0.1669456 α      in ANC's #2, #4, #5, ...

........................................................................
.............................. CYCLE   25 ..............................
........................................................................

 iter      E             dE          RMSdq      gap      omega  full diag
   1    -64.6951937 -0.646952E+02  0.603E-02    2.48       0.0  T
   2    -64.6951941 -0.407947E-06  0.355E-02    2.48       1.0  T
   3    -64.6951934  0.767256E-06  0.406E-03    2.48       3.5  T
   4    -64.6951944 -0.101565E-05  0.847E-04    2.48      16.7  T
   5    -64.6951944 -0.518256E-09  0.341E-04    2.48      41.4  T
   6    -64.6951944 -0.148401E-08  0.733E-05    2.48     193.0  T
     SCC iter.                  ...        0 min,  0.012 sec
     gradient                   ...        0 min,  0.008 sec
 * total energy  :   -63.6773064 Eh     change       -0.1133150E-03 Eh
   gradient norm :     0.0028045 Eh/α   predicted    -0.6612990E-04 ( -41.64%)
   displ. norm   :     0.4714501 α      lambda       -0.1914147E-03
   maximum displ.:     0.2899145 α      in ANC's #2, #4, #5, ...

........................................................................
.............................. CYCLE   26 ..............................
........................................................................

 iter      E             dE          RMSdq      gap      omega  full diag
   1    -64.6933633 -0.646934E+02  0.105E-01    2.47       0.0  T
   2    -64.6933646 -0.133004E-05  0.617E-02    2.47       1.0  T
   3    -64.6933618  0.280161E-05  0.773E-03    2.47       1.8  T
   4    -64.6933654 -0.359659E-05  0.142E-03    2.47      10.0  T
   5    -64.6933654 -0.283603E-08  0.674E-04    2.47      21.0  T
   6    -64.6933654 -0.413796E-08  0.143E-04    2.47      99.0  T
     SCC iter.                  ...        0 min,  0.012 sec
     gradient                   ...        0 min,  0.009 sec
 * total energy  :   -63.6774693 Eh     change       -0.1628164E-03 Eh
   gradient norm :     0.0027026 Eh/α   predicted    -0.1169934E-03 ( -28.14%)
   displ. norm   :     0.4968930 α      lambda       -0.1661162E-03
   maximum displ.:     0.3113138 α      in ANC's #2, #4, #5, ...

........................................................................
.............................. CYCLE   27 ..............................
........................................................................

 iter      E             dE          RMSdq      gap      omega  full diag
   1    -64.6917630 -0.646918E+02  0.110E-01    2.46       0.0  T
   2    -64.6917644 -0.143033E-05  0.644E-02    2.46       1.0  T
   3    -64.6917613  0.308409E-05  0.814E-03    2.46       1.7  T
   4    -64.6917653 -0.393085E-05  0.143E-03    2.46       9.9  T
   5    -64.6917653 -0.359866E-08  0.700E-04    2.46      20.2  T
   6    -64.6917653 -0.376254E-08  0.158E-04    2.46      89.4  T
     SCC iter.                  ...        0 min,  0.011 sec
     gradient                   ...        0 min,  0.008 sec
 * total energy  :   -63.6776062 Eh     change       -0.1369081E-03 Eh
   gradient norm :     0.0039624 Eh/α   predicted    -0.1035700E-03 ( -24.35%)
   displ. norm   :     0.4008035 α      lambda       -0.1396038E-03
   maximum displ.:     0.2592500 α      in ANC's #2, #4, #5, ...

........................................................................
.............................. CYCLE   28 ..............................
........................................................................

 iter      E             dE          RMSdq      gap      omega  full diag
   1    -64.6921256 -0.646921E+02  0.859E-02    2.45       0.0  T
   2    -64.6921263 -0.693162E-06  0.505E-02    2.45       1.0  T
   3    -64.6921252  0.109702E-05  0.495E-03    2.45       2.9  T
   4    -64.6921267 -0.149320E-05  0.106E-03    2.45      13.3  T
   5    -64.6921267 -0.279577E-08  0.480E-04    2.45      29.5  T
   6    -64.6921267 -0.132522E-08  0.106E-04    2.45     133.0  T
     SCC iter.                  ...        0 min,  0.011 sec
     gradient                   ...        0 min,  0.008 sec
 * total energy  :   -63.6777297 Eh     change       -0.1234951E-03 Eh
   gradient norm :     0.0039787 Eh/α   predicted    -0.8106449E-04 ( -34.36%)
   displ. norm   :     0.4177603 α      lambda       -0.1779025E-03
   maximum displ.:     0.2779067 α      in ANC's #2, #4, #5, ...

........................................................................
.............................. CYCLE   29 ..............................
........................................................................

 iter      E             dE          RMSdq      gap      omega  full diag
   1    -64.6941940 -0.646942E+02  0.865E-02    2.45       0.0  T
   2    -64.6941946 -0.562333E-06  0.508E-02    2.45       1.0  T
   3    -64.6941942  0.402367E-06  0.350E-03    2.45       4.0  T
   4    -64.6941949 -0.701234E-06  0.104E-03    2.45      13.6  T
   5    -64.6941949 -0.411420E-08  0.444E-04    2.45      31.9  T
   6    -64.6941949 -0.139431E-08  0.109E-04    2.45     129.8  T
     SCC iter.                  ...        0 min,  0.011 sec
     gradient                   ...        0 min,  0.008 sec
 * total energy  :   -63.6778858 Eh     change       -0.1560947E-03 Eh
   gradient norm :     0.0029897 Eh/α   predicted    -0.1044912E-03 ( -33.06%)
   displ. norm   :     0.5327583 α      lambda       -0.2046213E-03
   maximum displ.:     0.3553822 α      in ANC's #2, #4, #5, ...

........................................................................
.............................. CYCLE   30 ..............................
........................................................................

 iter      E             dE          RMSdq      gap      omega  full diag
   1    -64.6947614 -0.646948E+02  0.109E-01    2.45       0.0  T
   2    -64.6947623 -0.876811E-06  0.639E-02    2.45       1.0  T
   3    -64.6947619  0.440942E-06  0.401E-03    2.45       3.5  T
   4    -64.6947628 -0.894849E-06  0.133E-03    2.45      10.7  T
   5    -64.6947628 -0.684808E-08  0.557E-04    2.45      25.4  T
   6    -64.6947628 -0.327530E-08  0.133E-04    2.45     106.0  T
     SCC iter.                  ...        0 min,  0.011 sec
     gradient                   ...        0 min,  0.008 sec
 * total energy  :   -63.6780654 Eh     change       -0.1796356E-03 Eh
   gradient norm :     0.0026060 Eh/α   predicted    -0.1313559E-03 ( -26.88%)
   displ. norm   :     0.5571060 α      lambda       -0.1991093E-03
   maximum displ.:     0.3779868 α      in ANC's #2, #4, #5, ...

........................................................................
.............................. CYCLE   31 ..............................
........................................................................

 iter      E             dE          RMSdq      gap      omega  full diag
   1    -64.6952754 -0.646953E+02  0.108E-01    2.44       0.0  T
   2    -64.6952764 -0.965290E-06  0.636E-02    2.44       1.0  T
   3    -64.6952759  0.436802E-06  0.415E-03    2.45       3.4  T
   4    -64.6952768 -0.900820E-06  0.140E-03    2.44      10.1  T
   5    -64.6952769 -0.119258E-07  0.633E-04    2.44      22.3  T
   6    -64.6952769 -0.246030E-08  0.141E-04    2.44     100.4  T
     SCC iter.                  ...        0 min,  0.013 sec
     gradient                   ...        0 min,  0.008 sec
 * total energy  :   -63.6782350 Eh     change       -0.1696143E-03 Eh
   gradient norm :     0.0028864 Eh/α   predicted    -0.1304602E-03 ( -23.08%)
   displ. norm   :     0.5345394 α      lambda       -0.1660024E-03
   maximum displ.:     0.3691852 α      in ANC's #2, #4, #5, ...

........................................................................
.............................. CYCLE   32 ..............................
........................................................................

 iter      E             dE          RMSdq      gap      omega  full diag
   1    -64.6953381 -0.646953E+02  0.996E-02    2.44       0.0  T
   2    -64.6953390 -0.914497E-06  0.586E-02    2.44       1.0  T
   3    -64.6953385  0.545085E-06  0.437E-03    2.44       3.2  T
   4    -64.6953395 -0.983629E-06  0.138E-03    2.44      10.3  T
   5    -64.6953395 -0.112172E-07  0.633E-04    2.44      22.4  T
   6    -64.6953395 -0.199242E-08  0.140E-04    2.44     100.7  T
     SCC iter.                  ...        0 min,  0.011 sec
     gradient                   ...        0 min,  0.008 sec
 * total energy  :   -63.6783732 Eh     change       -0.1381975E-03 Eh
   gradient norm :     0.0031006 Eh/α   predicted    -0.1067223E-03 ( -22.78%)
   displ. norm   :     0.4690678 α      lambda       -0.1336900E-03
   maximum displ.:     0.3327949 α      in ANC's #2, #4, #5, ...

........................................................................
.............................. CYCLE   33 ..............................
........................................................................

 iter      E             dE          RMSdq      gap      omega  full diag
   1    -64.6960617 -0.646961E+02  0.836E-02    2.44       0.0  T
   2    -64.6960623 -0.646245E-06  0.492E-02    2.44       1.0  T
   3    -64.6960622  0.982537E-07  0.300E-03    2.44       4.7  T
   4    -64.6960626 -0.395752E-06  0.126E-03    2.44      11.2  T
   5    -64.6960627 -0.121890E-07  0.535E-04    2.44      26.4  T
   6    -64.6960627 -0.204068E-08  0.122E-04    2.44     115.8  T
     SCC iter.                  ...        0 min,  0.011 sec
     gradient                   ...        0 min,  0.008 sec
 * total energy  :   -63.6784828 Eh     change       -0.1096137E-03 Eh
   gradient norm :     0.0027287 Eh/α   predicted    -0.8155636E-04 ( -25.60%)
   displ. norm   :     0.4238655 α      lambda       -0.1106239E-03
   maximum displ.:     0.3067197 α      in ANC's #2, #4, #5, ...

........................................................................
.............................. CYCLE   34 ..............................
........................................................................

 iter      E             dE          RMSdq      gap      omega  full diag
   1    -64.6955282 -0.646955E+02  0.774E-02    2.43       0.0  T
   2    -64.6955287 -0.548889E-06  0.456E-02    2.43       1.0  T
   3    -64.6955285  0.178116E-06  0.307E-03    2.43       4.6  T
   4    -64.6955290 -0.466417E-06  0.124E-03    2.43      11.4  T
   5    -64.6955290 -0.748757E-08  0.419E-04    2.43      33.8  T
   6    -64.6955290 -0.160946E-08  0.109E-04    2.43     129.2  T
     SCC iter.                  ...        0 min,  0.012 sec
     gradient                   ...        0 min,  0.008 sec
 * total energy  :   -63.6785762 Eh     change       -0.9341462E-04 Eh
   gradient norm :     0.0026975 Eh/α   predicted    -0.6525437E-04 ( -30.15%)
   displ. norm   :     0.4562159 α      lambda       -0.1464212E-03
   maximum displ.:     0.3408212 α      in ANC's #2, #7, #1, ...

........................................................................
.............................. CYCLE   35 ..............................
........................................................................

 iter      E             dE          RMSdq      gap      omega  full diag
   1    -64.6980253 -0.646980E+02  0.822E-02    2.42       0.0  T
   2    -64.6980260 -0.723533E-06  0.485E-02    2.42       1.0  T
   3    -64.6980260 -0.230928E-08  0.345E-03    2.42       4.1  T
   4    -64.6980264 -0.346804E-06  0.146E-03    2.42       9.7  T
   5    -64.6980264 -0.899043E-08  0.558E-04    2.42      25.3  T
   6    -64.6980264 -0.220631E-08  0.146E-04    2.42      96.7  T
     SCC iter.                  ...        0 min,  0.013 sec
     gradient                   ...        0 min,  0.008 sec
 * total energy  :   -63.6786875 Eh     change       -0.1112450E-03 Eh
   gradient norm :     0.0027760 Eh/α   predicted    -0.8845209E-04 ( -20.49%)
   displ. norm   :     0.6230025 α      lambda       -0.1710805E-03
   maximum displ.:     0.4649091 α      in ANC's #2, #1, #4, ...

........................................................................
.............................. CYCLE   36 ..............................
........................................................................

 iter      E             dE          RMSdq      gap      omega  full diag
   1    -64.6937216 -0.646937E+02  0.123E-01    2.42       0.0  T
   2    -64.6937238 -0.220818E-05  0.728E-02    2.42       1.0  T
   3    -64.6937197  0.411350E-05  0.977E-03    2.42       1.4  T
   4    -64.6937251 -0.540858E-05  0.219E-03    2.42       6.5  T
   5    -64.6937251 -0.342452E-08  0.905E-04    2.42      15.6  T
   6    -64.6937251 -0.104809E-07  0.252E-04    2.42      56.0  T
     SCC iter.                  ...        0 min,  0.011 sec
     gradient                   ...        0 min,  0.008 sec
 * total energy  :   -63.6787931 Eh     change       -0.1055839E-03 Eh
   gradient norm :     0.0049500 Eh/α   predicted    -0.1187495E-03 (  12.47%)
   displ. norm   :     0.2856877 α      lambda       -0.1510034E-03
   maximum displ.:     0.2028662 α      in ANC's #2, #7, #1, ...

........................................................................
.............................. CYCLE   37 ..............................
........................................................................

 iter      E             dE          RMSdq      gap      omega  full diag
   1    -64.6956375 -0.646956E+02  0.651E-02    2.41       0.0  T
   2    -64.6956383 -0.772265E-06  0.385E-02    2.41       1.0  T
   3    -64.6956370  0.125831E-05  0.635E-03    2.41       2.2  T
   4    -64.6956387 -0.164350E-05  0.120E-03    2.41      11.8  T
   5    -64.6956387 -0.365091E-08  0.575E-04    2.41      24.6  T
   6    -64.6956387 -0.137138E-08  0.167E-04    2.41      84.6  T
     SCC iter.                  ...        0 min,  0.011 sec
     gradient                   ...        0 min,  0.008 sec
 * total energy  :   -63.6789107 Eh     change       -0.1176733E-03 Eh
   gradient norm :     0.0040106 Eh/α   predicted    -0.8166859E-04 ( -30.60%)
   displ. norm   :     0.4228165 α      lambda       -0.1954184E-03
   maximum displ.:     0.2860684 α      in ANC's #2, #7, #1, ...

........................................................................
.............................. CYCLE   38 ..............................
........................................................................

 iter      E             dE          RMSdq      gap      omega  full diag
   1    -64.6968484 -0.646968E+02  0.104E-01    2.40       0.0  T
   2    -64.6968497 -0.133846E-05  0.613E-02    2.40       1.0  T
   3    -64.6968491  0.635755E-06  0.605E-03    2.41       2.3  T
   4    -64.6968503 -0.123317E-05  0.182E-03    2.41       7.8  T
   5    -64.6968503 -0.122269E-07  0.765E-04    2.41      18.5  T
   6    -64.6968503 -0.379751E-08  0.209E-04    2.41      67.7  T
     SCC iter.                  ...        0 min,  0.012 sec
     gradient                   ...        0 min,  0.012 sec
 * total energy  :   -63.6790358 Eh     change       -0.1250896E-03 Eh
   gradient norm :     0.0045858 Eh/α   predicted    -0.1151803E-03 (  -7.92%)
   displ. norm   :     0.4653984 α      lambda       -0.1578905E-03
   maximum displ.:     0.3277200 α      in ANC's #2, #7, #1, ...

........................................................................
.............................. CYCLE   39 ..............................
........................................................................

 iter      E             dE          RMSdq      gap      omega  full diag
   1    -64.6959872 -0.646960E+02  0.112E-01    2.41       0.0  T
   2    -64.6959889 -0.169552E-05  0.664E-02    2.41       1.0  T
   3    -64.6959870  0.189306E-05  0.693E-03    2.41       2.0  T
   4    -64.6959897 -0.271670E-05  0.192E-03    2.41       7.4  T
   5    -64.6959897 -0.192905E-07  0.870E-04    2.41      16.2  T
   6    -64.6959897 -0.515611E-08  0.226E-04    2.41      62.5  T
     SCC iter.                  ...        0 min,  0.012 sec
     gradient                   ...        0 min,  0.008 sec
 * total energy  :   -63.6791255 Eh     change       -0.8969697E-04 Eh
   gradient norm :     0.0036324 Eh/α   predicted    -0.9604952E-04 (   7.08%)
   displ. norm   :     0.2172487 α      lambda       -0.8923351E-04
   maximum displ.:     0.1108252 α      in ANC's #2, #7, #4, ...

........................................................................
.............................. CYCLE   40 ..............................
........................................................................

 iter      E             dE          RMSdq      gap      omega  full diag
   1    -64.6977081 -0.646977E+02  0.597E-02    2.40       0.0  T
   2    -64.6977089 -0.886817E-06  0.352E-02    2.40       1.0  T
   3    -64.6977069  0.203747E-05  0.721E-03    2.40       2.0  T
   4    -64.6977093 -0.244969E-05  0.836E-04    2.40      16.9  T
   5    -64.6977094 -0.546142E-08  0.428E-04    2.40      33.0  T
   6    -64.6977094 -0.591882E-09  0.167E-04    2.40      84.5  T
     SCC iter.                  ...        0 min,  0.012 sec
     gradient                   ...        0 min,  0.008 sec
 * total energy  :   -63.6791820 Eh     change       -0.5645686E-04 Eh
   gradient norm :     0.0032946 Eh/α   predicted    -0.4672254E-04 ( -17.24%)
   displ. norm   :     0.4882680 α      lambda       -0.1144624E-03
   maximum displ.:     0.3687065 α      in ANC's #2, #7, #1, ...

........................................................................
.............................. CYCLE   41 ..............................
........................................................................

 iter      E             dE          RMSdq      gap      omega  full diag
   1    -64.6940920 -0.646941E+02  0.114E-01    2.41       0.0  T
   2    -64.6940942 -0.213595E-05  0.671E-02    2.41       1.0  T
   3    -64.6940893  0.488342E-05  0.105E-02    2.41       1.3  T
   4    -64.6940954 -0.607634E-05  0.172E-03    2.41       8.2  T
   5    -64.6940954 -0.696332E-08  0.855E-04    2.41      16.5  T
   6    -64.6940954 -0.312389E-08  0.255E-04    2.41      55.4  T
     SCC iter.                  ...        0 min,  0.011 sec
     gradient                   ...        0 min,  0.008 sec
 * total energy  :   -63.6792320 Eh     change       -0.5006259E-04 Eh
   gradient norm :     0.0048480 Eh/α   predicted    -0.7087564E-04 (  41.57%)
   displ. norm   :     0.1794117 α      lambda       -0.1310466E-03
   maximum displ.:     0.0761825 α      in ANC's #4, #6, #10, ...

........................................................................
.............................. CYCLE   42 ..............................
........................................................................

 iter      E             dE          RMSdq      gap      omega  full diag
   1    -64.6981268 -0.646981E+02  0.479E-02    2.40       0.0  T
   2    -64.6981273 -0.537919E-06  0.282E-02    2.40       1.0  T
   3    -64.6981266  0.731846E-06  0.417E-03    2.41       3.4  T
   4    -64.6981275 -0.917467E-06  0.718E-04    2.41      19.7  T
   5    -64.6981275 -0.747859E-08  0.397E-04    2.41      35.7  T
     SCC iter.                  ...        0 min,  0.010 sec
     gradient                   ...        0 min,  0.008 sec
 * total energy  :   -63.6792841 Eh     change       -0.5210003E-04 Eh
   gradient norm :     0.0062159 Eh/α   predicted    -0.6764078E-04 (  29.83%)
   displ. norm   :     0.1878975 α      lambda       -0.1046585E-03
   maximum displ.:     0.1369354 α      in ANC's #2, #1, #7, ...
 * RMSD in coord.:     0.9961972 α      energy gain  -0.2375642E-02 Eh

generating ANC from exact Hessian ...
Using Lindh-Hessian (1995)
 Shifting diagonal of input Hessian by    9.8842517084295530E-003
 Lowest  eigenvalues of input Hessian
    0.000000    0.000000    0.000000    0.000000    0.000000    0.000000
    0.010000    0.010065    0.010299    0.010576    0.010793    0.011245
    0.011341    0.012398    0.012900    0.013344    0.014622    0.016284
 Highest eigenvalues
    1.894290    1.918441    2.003538    2.022379    2.037685    2.114008


........................................................................
.............................. CYCLE   43 ..............................
........................................................................

 iter      E             dE          RMSdq      gap      omega  full diag
   1    -64.6983617 -0.646984E+02  0.448E-02    2.41       0.0  T
   2    -64.6983621 -0.327395E-06  0.264E-02    2.40       1.0  T
   3    -64.6983615  0.527677E-06  0.336E-03    2.40       4.2  T
   4    -64.6983622 -0.656445E-06  0.574E-04    2.40      24.6  T
   5    -64.6983622 -0.452543E-08  0.269E-04    2.40      52.6  T
     SCC iter.                  ...        0 min,  0.010 sec
     gradient                   ...        0 min,  0.008 sec
 * total energy  :   -63.6793504 Eh     change       -0.6623500E-04 Eh
   gradient norm :     0.0036949 Eh/α   predicted     0.0000000E+00 (-100.00%)
   displ. norm   :     0.0356309 α      lambda       -0.3265477E-04
   maximum displ.:     0.0211122 α      in ANC's #2, #4, #8, ...

........................................................................
.............................. CYCLE   44 ..............................
........................................................................

 iter      E             dE          RMSdq      gap      omega  full diag
   1    -64.6974582 -0.646975E+02  0.992E-03    2.40       0.0  T
   2    -64.6974583 -0.765379E-07  0.589E-03    2.40       2.4  T
   3    -64.6974582  0.768499E-07  0.150E-03    2.40       9.4  T
   4    -64.6974583 -0.965258E-07  0.263E-04    2.40      53.7  T
   5    -64.6974583 -0.182615E-08  0.123E-04    2.40     114.6  T
     SCC iter.                  ...        0 min,  0.010 sec
     gradient                   ...        0 min,  0.008 sec
 * total energy  :   -63.6793772 Eh     change       -0.2677096E-04 Eh
   gradient norm :     0.0017672 Eh/α   predicted    -0.1730930E-04 ( -35.34%)
   displ. norm   :     0.1250918 α      lambda       -0.4139095E-04
   maximum displ.:     0.0759764 α      in ANC's #2, #4, #8, ...

........................................................................
.............................. CYCLE   45 ..............................
........................................................................

 iter      E             dE          RMSdq      gap      omega  full diag
   1    -64.6960843 -0.646961E+02  0.270E-02    2.39       0.0  T
   2    -64.6960847 -0.375128E-06  0.160E-02    2.39       1.0  T
   3    -64.6960843  0.330624E-06  0.306E-03    2.39       4.6  T
   4    -64.6960847 -0.418631E-06  0.668E-04    2.39      21.2  T
   5    -64.6960848 -0.105261E-07  0.333E-04    2.39      42.4  T
     SCC iter.                  ...        0 min,  0.013 sec
     gradient                   ...        0 min,  0.026 sec
 * total energy  :   -63.6794109 Eh     change       -0.3374755E-04 Eh
   gradient norm :     0.0027853 Eh/α   predicted    -0.2083967E-04 ( -38.25%)
   displ. norm   :     0.0554726 α      lambda       -0.1941070E-04
   maximum displ.:     0.0347678 α      in ANC's #2, #4, #3, ...

........................................................................
.............................. CYCLE   46 ..............................
........................................................................

 iter      E             dE          RMSdq      gap      omega  full diag
   1    -64.6963818 -0.646964E+02  0.115E-02    2.39       0.0  T
   2    -64.6963818 -0.161769E-07  0.678E-03    2.39       2.1  T
   3    -64.6963818  0.167655E-07  0.674E-04    2.39      21.0  T
   4    -64.6963818 -0.245141E-07  0.199E-04    2.39      71.2  T
     SCC iter.                  ...        0 min,  0.010 sec
     gradient                   ...        0 min,  0.014 sec
 * total energy  :   -63.6794292 Eh     change       -0.1830390E-04 Eh
   gradient norm :     0.0026226 Eh/α   predicted    -0.9735389E-05 ( -46.81%)
   displ. norm   :     0.1835030 α      lambda       -0.6576243E-04
   maximum displ.:     0.1084801 α      in ANC's #2, #4, #3, ...

........................................................................
.............................. CYCLE   47 ..............................
........................................................................

 iter      E             dE          RMSdq      gap      omega  full diag
   1    -64.6972217 -0.646972E+02  0.386E-02    2.39       0.0  T
   2    -64.6972219 -0.207497E-06  0.228E-02    2.39       1.0  T
   3    -64.6972215  0.335174E-06  0.277E-03    2.39       5.1  T
   4    -64.6972220 -0.439934E-06  0.648E-04    2.39      21.8  T
   5    -64.6972220 -0.191497E-08  0.290E-04    2.39      48.8  T
     SCC iter.                  ...        0 min,  0.012 sec
     gradient                   ...        0 min,  0.013 sec
 * total energy  :   -63.6794834 Eh     change       -0.5421859E-04 Eh
   gradient norm :     0.0016233 Eh/α   predicted    -0.3399659E-04 ( -37.30%)
   displ. norm   :     0.4134235 α      lambda       -0.6786425E-04
   maximum displ.:     0.2448539 α      in ANC's #2, #4, #3, ...

........................................................................
.............................. CYCLE   48 ..............................
........................................................................

 iter      E             dE          RMSdq      gap      omega  full diag
   1    -64.6971433 -0.646971E+02  0.863E-02    2.38       0.0  T
   2    -64.6971441 -0.790311E-06  0.509E-02    2.38       1.0  T
   3    -64.6971432  0.902500E-06  0.476E-03    2.38       3.0  T
   4    -64.6971445 -0.130366E-05  0.139E-03    2.38      10.2  T
   5    -64.6971445 -0.965724E-08  0.553E-04    2.38      25.6  T
   6    -64.6971446 -0.132428E-08  0.167E-04    2.38      84.9  T
     SCC iter.                  ...        0 min,  0.015 sec
     gradient                   ...        0 min,  0.014 sec
 * total energy  :   -63.6795499 Eh     change       -0.6645623E-04 Eh
   gradient norm :     0.0021971 Eh/α   predicted    -0.3651147E-04 ( -45.06%)
   displ. norm   :     0.1328251 α      lambda       -0.2574104E-04
   maximum displ.:     0.0820256 α      in ANC's #2, #4, #3, ...

........................................................................
.............................. CYCLE   49 ..............................
........................................................................

 iter      E             dE          RMSdq      gap      omega  full diag
   1    -64.6972880 -0.646973E+02  0.268E-02    2.38       0.0  T
   2    -64.6972881 -0.639366E-07  0.158E-02    2.38       1.0  T
   3    -64.6972881  0.124847E-07  0.100E-03    2.38      14.1  T
   4    -64.6972881 -0.395646E-07  0.400E-04    2.38      35.4  T
   5    -64.6972881 -0.135451E-08  0.188E-04    2.38      75.4  T
     SCC iter.                  ...        0 min,  0.012 sec
     gradient                   ...        0 min,  0.008 sec
 * total energy  :   -63.6795728 Eh     change       -0.2296512E-04 Eh
   gradient norm :     0.0015862 Eh/α   predicted    -0.1309822E-04 ( -42.96%)
   displ. norm   :     0.2616779 α      lambda       -0.4074204E-04
   maximum displ.:     0.1621992 α      in ANC's #2, #4, #3, ...

........................................................................
.............................. CYCLE   50 ..............................
........................................................................

 iter      E             dE          RMSdq      gap      omega  full diag
   1    -64.6974488 -0.646974E+02  0.508E-02    2.37       0.0  T
   2    -64.6974491 -0.267312E-06  0.299E-02    2.37       1.0  T
   3    -64.6974491  0.397921E-07  0.193E-03    2.37       7.3  T
   4    -64.6974492 -0.134425E-06  0.706E-04    2.37      20.0  T
   5    -64.6974492 -0.521304E-08  0.386E-04    2.37      36.6  T
     SCC iter.                  ...        0 min,  0.010 sec
     gradient                   ...        0 min,  0.008 sec
 * total energy  :   -63.6796201 Eh     change       -0.4721318E-04 Eh
   gradient norm :     0.0010312 Eh/α   predicted    -0.2099211E-04 ( -55.54%)
   displ. norm   :     0.2656897 α      lambda       -0.3236890E-04
   maximum displ.:     0.1650428 α      in ANC's #2, #4, #3, ...

........................................................................
.............................. CYCLE   51 ..............................
........................................................................

 iter      E             dE          RMSdq      gap      omega  full diag
   1    -64.6966958 -0.646967E+02  0.496E-02    2.37       0.0  T
   2    -64.6966960 -0.213909E-06  0.292E-02    2.37       1.0  T
   3    -64.6966959  0.702563E-07  0.186E-03    2.37       7.6  T
   4    -64.6966961 -0.157265E-06  0.618E-04    2.37      22.9  T
   5    -64.6966961 -0.352972E-08  0.330E-04    2.37      42.9  T
     SCC iter.                  ...        0 min,  0.010 sec
     gradient                   ...        0 min,  0.008 sec
 * total energy  :   -63.6796600 Eh     change       -0.3990853E-04 Eh
   gradient norm :     0.0017698 Eh/α   predicted    -0.1669328E-04 ( -58.17%)
   displ. norm   :     0.2813233 α      lambda       -0.3437945E-04
   maximum displ.:     0.1745174 α      in ANC's #2, #4, #3, ...

........................................................................
.............................. CYCLE   52 ..............................
........................................................................

 iter      E             dE          RMSdq      gap      omega  full diag
   1    -64.6968227 -0.646968E+02  0.516E-02    2.37       0.0  T
   2    -64.6968229 -0.206462E-06  0.303E-02    2.37       1.0  T
   3    -64.6968228  0.690181E-07  0.176E-03    2.37       8.0  T
   4    -64.6968230 -0.159365E-06  0.604E-04    2.37      23.4  T
   5    -64.6968230 -0.329223E-08  0.294E-04    2.37      48.1  T
     SCC iter.                  ...        0 min,  0.010 sec
     gradient                   ...        0 min,  0.008 sec
 * total energy  :   -63.6797017 Eh     change       -0.4172768E-04 Eh
   gradient norm :     0.0019691 Eh/α   predicted    -0.1779582E-04 ( -57.35%)
   displ. norm   :     0.2906988 α      lambda       -0.3124906E-04
   maximum displ.:     0.1834662 α      in ANC's #2, #4, #3, ...

........................................................................
.............................. CYCLE   53 ..............................
........................................................................

 iter      E             dE          RMSdq      gap      omega  full diag
   1    -64.6966202 -0.646966E+02  0.552E-02    2.37       0.0  T
   2    -64.6966205 -0.225530E-06  0.325E-02    2.37       1.0  T
   3    -64.6966204  0.113417E-06  0.206E-03    2.37       6.9  T
   4    -64.6966206 -0.218881E-06  0.618E-04    2.37      22.9  T
   5    -64.6966206 -0.247300E-08  0.268E-04    2.37      52.7  T
     SCC iter.                  ...        0 min,  0.010 sec
     gradient                   ...        0 min,  0.008 sec
 * total energy  :   -63.6797376 Eh     change       -0.3586877E-04 Eh
   gradient norm :     0.0013767 Eh/α   predicted    -0.1621299E-04 ( -54.80%)
   displ. norm   :     0.2191172 α      lambda       -0.2034182E-04
   maximum displ.:     0.1436138 α      in ANC's #2, #4, #3, ...

........................................................................
.............................. CYCLE   54 ..............................
........................................................................

 iter      E             dE          RMSdq      gap      omega  full diag
   1    -64.6972649 -0.646973E+02  0.442E-02    2.37       0.0  T
   2    -64.6972651 -0.169042E-06  0.260E-02    2.37       1.0  T
   3    -64.6972650  0.938580E-07  0.189E-03    2.37       7.5  T
   4    -64.6972652 -0.167563E-06  0.514E-04    2.37      27.5  T
   5    -64.6972652 -0.191561E-08  0.254E-04    2.37      55.8  T
     SCC iter.                  ...        0 min,  0.016 sec
     gradient                   ...        0 min,  0.015 sec
 * total energy  :   -63.6797607 Eh     change       -0.2315138E-04 Eh
   gradient norm :     0.0006854 Eh/α   predicted    -0.1039039E-04 ( -55.12%)
   displ. norm   :     0.1613573 α      lambda       -0.1417151E-04
   maximum displ.:     0.1110521 α      in ANC's #2, #4, #3, ...

........................................................................
.............................. CYCLE   55 ..............................
........................................................................

 iter      E             dE          RMSdq      gap      omega  full diag
   1    -64.6976314 -0.646976E+02  0.347E-02    2.37       0.0  T
   2    -64.6976315 -0.985043E-07  0.204E-02    2.37       1.0  T
   3    -64.6976314  0.851311E-07  0.158E-03    2.37       9.0  T
   4    -64.6976315 -0.134714E-06  0.394E-04    2.37      35.9  T
   5    -64.6976315 -0.639929E-09  0.173E-04    2.37      81.5  T
     SCC iter.                  ...        0 min,  0.012 sec
     gradient                   ...        0 min,  0.008 sec
 * total energy  :   -63.6797781 Eh     change       -0.1736774E-04 Eh
   gradient norm :     0.0006794 Eh/α   predicted    -0.7169373E-05 ( -58.72%)
   displ. norm   :     0.1512311 α      lambda       -0.1542379E-04
   maximum displ.:     0.1050817 α      in ANC's #2, #4, #3, ...

........................................................................
.............................. CYCLE   56 ..............................
........................................................................

 iter      E             dE          RMSdq      gap      omega  full diag
   1    -64.6980249 -0.646980E+02  0.345E-02    2.37       0.0  T
   2    -64.6980250 -0.107203E-06  0.203E-02    2.37       1.0  T
   3    -64.6980249  0.101990E-06  0.165E-03    2.37       8.6  T
   4    -64.6980250 -0.156043E-06  0.422E-04    2.37      33.5  T
   5    -64.6980250 -0.833722E-09  0.201E-04    2.37      70.2  T
     SCC iter.                  ...        0 min,  0.012 sec
     gradient                   ...        0 min,  0.009 sec
 * total energy  :   -63.6797975 Eh     change       -0.1944927E-04 Eh
   gradient norm :     0.0010003 Eh/α   predicted    -0.7791073E-05 ( -59.94%)
   displ. norm   :     0.1824707 α      lambda       -0.1868404E-04
   maximum displ.:     0.1257725 α      in ANC's #2, #3, #4, ...

........................................................................
.............................. CYCLE   57 ..............................
........................................................................

 iter      E             dE          RMSdq      gap      omega  full diag
   1    -64.6980735 -0.646981E+02  0.420E-02    2.38       0.0  T
   2    -64.6980736 -0.154325E-06  0.248E-02    2.38       1.0  T
   3    -64.6980735  0.169835E-06  0.206E-03    2.38       6.9  T
   4    -64.6980737 -0.257661E-06  0.555E-04    2.38      25.5  T
   5    -64.6980737 -0.565649E-09  0.188E-04    2.38      75.3  T
     SCC iter.                  ...        0 min,  0.010 sec
     gradient                   ...        0 min,  0.009 sec
 * total energy  :   -63.6798205 Eh     change       -0.2298951E-04 Eh
   gradient norm :     0.0010375 Eh/α   predicted    -0.9480711E-05 ( -58.76%)
   displ. norm   :     0.1704079 α      lambda       -0.1571281E-04
   maximum displ.:     0.1189016 α      in ANC's #2, #3, #10, ...

........................................................................
.............................. CYCLE   58 ..............................
........................................................................

 iter      E             dE          RMSdq      gap      omega  full diag
   1    -64.6978369 -0.646978E+02  0.394E-02    2.38       0.0  T
   2    -64.6978370 -0.154876E-06  0.232E-02    2.38       1.0  T
   3    -64.6978369  0.177783E-06  0.218E-03    2.38       6.5  T
   4    -64.6978371 -0.261798E-06  0.555E-04    2.38      25.5  T
   5    -64.6978371 -0.606079E-09  0.236E-04    2.38      59.9  T
     SCC iter.                  ...        0 min,  0.010 sec
     gradient                   ...        0 min,  0.008 sec
 * total energy  :   -63.6798391 Eh     change       -0.1855959E-04 Eh
   gradient norm :     0.0007269 Eh/α   predicted    -0.7960328E-05 ( -57.11%)
   displ. norm   :     0.1227840 α      lambda       -0.1024178E-04
   maximum displ.:     0.0873850 α      in ANC's #2, #3, #7, ...

........................................................................
.............................. CYCLE   59 ..............................
........................................................................

 iter      E             dE          RMSdq      gap      omega  full diag
   1    -64.6979048 -0.646979E+02  0.292E-02    2.38       0.0  T
   2    -64.6979049 -0.899315E-07  0.172E-02    2.38       1.0  T
   3    -64.6979049  0.559451E-07  0.149E-03    2.38       9.5  T
   4    -64.6979050 -0.101980E-06  0.471E-04    2.38      30.0  T
   5    -64.6979050 -0.550642E-09  0.192E-04    2.38      73.5  T
     SCC iter.                  ...        0 min,  0.010 sec
     gradient                   ...        0 min,  0.008 sec
 * total energy  :   -63.6798511 Eh     change       -0.1201746E-04 Eh
   gradient norm :     0.0005528 Eh/α   predicted    -0.5159716E-05 ( -57.06%)
   displ. norm   :     0.0881380 α      lambda       -0.7607302E-05
   maximum displ.:     0.0643150 α      in ANC's #2, #3, #7, ...

........................................................................
.............................. CYCLE   60 ..............................
........................................................................

 iter      E             dE          RMSdq      gap      omega  full diag
   1    -64.6978034 -0.646978E+02  0.221E-02    2.38       0.0  T
   2    -64.6978035 -0.483287E-07  0.130E-02    2.38       1.1  T
   3    -64.6978035  0.178843E-07  0.989E-04    2.38      14.3  T
   4    -64.6978035 -0.406542E-07  0.351E-04    2.38      40.3  T
     SCC iter.                  ...        0 min,  0.008 sec
     gradient                   ...        0 min,  0.008 sec
 * total energy  :   -63.6798605 Eh     change       -0.9449797E-05 Eh
   gradient norm :     0.0005249 Eh/α   predicted    -0.3817687E-05 ( -59.60%)
   displ. norm   :     0.0809170 α      lambda       -0.7635920E-05
   maximum displ.:     0.0579061 α      in ANC's #2, #3, #7, ...

........................................................................
.............................. CYCLE   61 ..............................
........................................................................

 iter      E             dE          RMSdq      gap      omega  full diag
   1    -64.6975949 -0.646976E+02  0.212E-02    2.38       0.0  T
   2    -64.6975949 -0.383063E-07  0.125E-02    2.38       1.1  T
   3    -64.6975949  0.670653E-09  0.707E-04    2.38      20.0  T
   4    -64.6975950 -0.181757E-07  0.326E-04    2.38      43.3  T
     SCC iter.                  ...        0 min,  0.008 sec
     gradient                   ...        0 min,  0.008 sec
 * total energy  :   -63.6798704 Eh     change       -0.9820196E-05 Eh
   gradient norm :     0.0005883 Eh/α   predicted    -0.3831896E-05 ( -60.98%)
   displ. norm   :     0.0992566 α      lambda       -0.9039824E-05
   maximum displ.:     0.0687612 α      in ANC's #2, #3, #7, ...

........................................................................
.............................. CYCLE   62 ..............................
[...]
          :  restarted?                      false          :
          :  GBSA solvation                  false          :
          :  PC potential                    false          :
          :  electronic temp.          300.0000000     K    :
          :  accuracy                    1.0000000          :
          :  -> integral cutoff          0.2500000E+02      :
          :  -> integral neglect         0.1000000E-07      :
          :  -> SCF convergence          0.1000000E-05 Eh   :
          :  -> wf. convergence          0.1000000E-03 e    :
          :  Broyden damping             0.4000000          :
          :  net charge                          1          :
          :  unpaired electrons                  0          :
          ...................................................

 iter      E             dE          RMSdq      gap      omega  full diag
   1    -64.6977466 -0.646977E+02  0.340E-05    2.37       0.0  T
   2    -64.6977466 -0.389377E-11  0.201E-05    2.37     703.4  T
   3    -64.6977466  0.102318E-11  0.114E-05    2.37    1245.9  T

   *** convergence criteria satisfied after 3 iterations ***

         #    Occupation            Energy/Eh            Energy/eV
      -------------------------------------------------------------
         1        2.0000           -0.8579916             -23.3471
       ...           ...                  ...                  ...
        53        2.0000           -0.5301878             -14.4271
        54        2.0000           -0.5293586             -14.4046
        55        2.0000           -0.5139699             -13.9858
        56        2.0000           -0.4953771             -13.4799
        57        2.0000           -0.4833180             -13.1518
        58        2.0000           -0.4671394             -12.7115
        59        2.0000           -0.4459346             -12.1345 (HOMO)
        60                         -0.3588636              -9.7652 (LUMO)
        61                         -0.3477445              -9.4626
        62                         -0.2855041              -7.7690
        63                         -0.2765824              -7.5262
        64                         -0.2373092              -6.4575
       ...                                ...                  ...
       116                          0.6117401              16.6463
      -------------------------------------------------------------
                  HL-Gap            0.0870709 Eh            2.3693 eV
             Fermi-level           -0.4023991 Eh          -10.9498 eV

 SCC (total)                   0 d,  0 h,  0 min,  0.017 sec
 SCC setup                      ...        0 min,  0.000 sec (  0.562%)
 Dispersion                     ...        0 min,  0.000 sec (  1.912%)
 classical contributions        ...        0 min,  0.000 sec (  0.308%)
 integral evaluation            ...        0 min,  0.002 sec ( 11.330%)
 iterations                     ...        0 min,  0.006 sec ( 35.600%)
 molecular gradient             ...        0 min,  0.008 sec ( 49.364%)
 printout                       ...        0 min,  0.000 sec (  0.832%)

         :::::::::::::::::::::::::::::::::::::::::::::::::::::
         ::                     SUMMARY                     ::
         :::::::::::::::::::::::::::::::::::::::::::::::::::::
         :: total energy             -63.679926389989 Eh    ::
         :: gradient norm              0.000269391439 Eh/a0 ::
         :: HOMO-LUMO gap              2.369320228731 eV    ::
         ::.................................................::
         :: SCC energy               -64.697411873008 Eh    ::
         :: -> isotropic ES            0.092974262580 Eh    ::
         :: -> anisotropic ES         -0.005480912584 Eh    ::
         :: -> anisotropic XC          0.037368256901 Eh    ::
         :: -> dispersion             -0.045939187835 Eh    ::
         :: repulsion energy           1.017485483019 Eh    ::
         :: add. restraining           0.000000000000 Eh    ::
         :: total charge               1.000000000000 e     ::
         :::::::::::::::::::::::::::::::::::::::::::::::::::::

           -------------------------------------------------
          |                Property Printout                |
           -------------------------------------------------

    * Orbital Energies and Occupations

         #    Occupation            Energy/Eh            Energy/eV
      -------------------------------------------------------------
         1        2.0000           -0.8579916             -23.3471
       ...           ...                  ...                  ...
        47        2.0000           -0.5487987             -14.9336
        48        2.0000           -0.5440957             -14.8056
        49        2.0000           -0.5432334             -14.7821
        50        2.0000           -0.5431315             -14.7794
        51        2.0000           -0.5395044             -14.6807
        52        2.0000           -0.5327615             -14.4972
        53        2.0000           -0.5301878             -14.4271
        54        2.0000           -0.5293586             -14.4046
        55        2.0000           -0.5139699             -13.9858
        56        2.0000           -0.4953771             -13.4799
        57        2.0000           -0.4833180             -13.1518
        58        2.0000           -0.4671394             -12.7115
        59        2.0000           -0.4459346             -12.1345 (HOMO)
        60                         -0.3588636              -9.7652 (LUMO)
        61                         -0.3477445              -9.4626
        62                         -0.2855041              -7.7690
        63                         -0.2765824              -7.5262
        64                         -0.2373092              -6.4575
        65                         -0.2062738              -5.6130
        66                         -0.1529524              -4.1620
        67                         -0.1509467              -4.1075
        68                         -0.1461824              -3.9778
        69                         -0.1350610              -3.6752
        70                         -0.0666413              -1.8134
       ...                                ...                  ...
       116                          0.6117401              16.6463
      -------------------------------------------------------------
                  HL-Gap            0.0870709 Eh            2.3693 eV
             Fermi-level           -0.4023991 Eh          -10.9498 eV

     #   Z          covCN         q      C6AA      α(0)
     1   6 C        3.717    -0.091    22.365     6.756
     2   7 N        3.620     0.128    19.048     6.482
     3   6 C        3.769    -0.042    21.355     6.586
     4   6 C        2.967    -0.008    28.220     8.714
     5   6 C        2.923    -0.039    28.961     8.825
     6   6 C        2.918    -0.022    28.554     8.763
     7   6 C        2.920    -0.018    28.456     8.748
     8   6 C        2.918    -0.022    28.555     8.763
     9   6 C        2.923    -0.038    28.957     8.825
    10   6 C        3.757    -0.040    21.336     6.586
    11   6 C        3.799    -0.074    21.908     6.664
    12   6 C        3.801    -0.071    21.861     6.657
    13   6 C        3.800    -0.068    21.809     6.649
    14   6 C        3.692     0.084    19.361     6.296
    15   8 O        1.706    -0.285    18.740     5.845
    16   6 C        2.864     0.137    24.998     8.196
    17   6 C        2.917    -0.067    29.666     8.932
    18   6 C        2.922    -0.029    28.721     8.788
    19   6 C        2.919    -0.038    28.936     8.821
    20   6 C        2.921    -0.027    28.672     8.781
    21   6 C        2.921    -0.054    29.332     8.881
    22   6 C        3.720    -0.092    22.381     6.757
    23   1 H        0.925     0.099     1.790     2.092
    24   1 H        0.925     0.096     1.819     2.109
    25   1 H        0.925     0.094     1.844     2.124
    26   1 H        0.924     0.082     1.957     2.188
    27   1 H        0.924     0.084     1.939     2.177
    28   1 H        0.926     0.042     2.425     2.435
    29   1 H        0.926     0.059     2.206     2.323
    30   1 H        0.926     0.063     2.169     2.303
    31   1 H        0.926     0.059     2.212     2.326
    32   1 H        0.926     0.039     2.461     2.453
    33   1 H        0.924     0.087     1.910     2.161
    34   1 H        0.924     0.083     1.949     2.183
    35   1 H        0.925     0.073     2.049     2.238
    36   1 H        0.925     0.052     2.298     2.370
    37   1 H        0.925     0.079     1.989     2.205
    38   1 H        0.924     0.038     2.477     2.461
    39   1 H        0.925     0.065     2.144     2.290
    40   1 H        0.924     0.032     2.552     2.498
    41   1 H        0.923     0.037     2.483     2.464
    42   1 H        0.923     0.021     2.721     2.580
    43   1 H        0.926     0.027     2.625     2.534
    44   1 H        0.926     0.040     2.452     2.449
    45   1 H        0.926     0.042     2.416     2.431
    46   1 H        0.926     0.044     2.394     2.420
    47   1 H        0.926     0.045     2.382     2.414
    48   1 H        0.925     0.104     1.753     2.070
    49   1 H        0.925     0.093     1.849     2.127
    50   1 H        0.925     0.095     1.834     2.118

 Mol. C6AA /au·bohr⁶  :      22773.014737
 Mol. C8AA /au·bohr⁸  :     527724.156877
 Mol. α(0) /au        :        234.856369


Wiberg/Mayer (AO) data.
largest (>0.10) Wiberg bond orders for each atom

 ---------------------------------------------------------------------------
     #   Z sym  total        # sym  WBO       # sym  WBO       # sym  WBO
 ---------------------------------------------------------------------------
     1   6 C    3.930 --    25 H    0.975    23 H    0.971    24 H    0.969
                             2 N    0.962
     2   7 N    3.809 --     1 C    0.962    22 C    0.962    10 C    0.926
                             3 C    0.910
     3   6 C    3.929 --     4 C    1.005    26 H    0.966    27 H    0.965
                             2 N    0.910
     4   6 C    3.978 --     5 C    1.408     9 C    1.407     3 C    1.005
                             7 C    0.109
     5   6 C    3.991 --     6 C    1.444     4 C    1.408    28 H    0.968
                             8 C    0.109
     6   6 C    3.990 --     5 C    1.444     7 C    1.438    29 H    0.969
                             9 C    0.109
     7   6 C    3.988 --     6 C    1.438     8 C    1.437    30 H    0.969
                             4 C    0.109
     8   6 C    3.990 --     9 C    1.446     7 C    1.437    31 H    0.969
                             5 C    0.109
     9   6 C    3.991 --     8 C    1.446     4 C    1.407    32 H    0.968
                             6 C    0.109
    10   6 C    3.928 --    11 C    1.002    34 H    0.966    33 H    0.963
                             2 N    0.926
    11   6 C    3.985 --    12 C    1.006    10 C    1.002    35 H    0.967
                            36 H    0.963
    12   6 C    3.991 --    13 C    1.009    11 C    1.006    38 H    0.975
                            37 H    0.969
    13   6 C    3.994 --    12 C    1.009    14 C    1.001    39 H    0.974
                            40 H    0.974
    14   6 C    3.956 --    13 C    1.001    15 O    0.981    41 H    0.966
                            42 H    0.963
    15   8 O    2.208 --    16 C    1.035    14 C    0.981
    16   6 C    3.929 --    17 C    1.388    21 C    1.357    15 O    1.035
    17   6 C    3.988 --    18 C    1.431    16 C    1.388    43 H    0.967
                            20 C    0.106
    18   6 C    3.992 --    19 C    1.451    17 C    1.431    44 H    0.971
                            21 C    0.112
    19   6 C    3.992 --    18 C    1.451    20 C    1.421    45 H    0.971
    20   6 C    3.991 --    21 C    1.467    19 C    1.421    46 H    0.970
                            17 C    0.106
    21   6 C    3.988 --    20 C    1.467    16 C    1.357    47 H    0.969
                            18 C    0.112
    22   6 C    3.930 --    49 H    0.975    50 H    0.975    48 H    0.970
                             2 N    0.962
    23   1 H    0.990 --     1 C    0.971
    24   1 H    0.991 --     1 C    0.969
    25   1 H    0.991 --     1 C    0.975
    26   1 H    0.993 --     3 C    0.966
    27   1 H    0.992 --     3 C    0.965
    28   1 H    0.998 --     5 C    0.968
    29   1 H    0.996 --     6 C    0.969
    30   1 H    0.996 --     7 C    0.969
    31   1 H    0.996 --     8 C    0.969
    32   1 H    0.998 --     9 C    0.968
    33   1 H    0.992 --    10 C    0.963
    34   1 H    0.993 --    10 C    0.966
    35   1 H    0.994 --    11 C    0.967
    36   1 H    0.997 --    11 C    0.963
    37   1 H    0.993 --    12 C    0.969
    38   1 H    0.998 --    12 C    0.975
    39   1 H    0.996 --    13 C    0.974
    40   1 H    0.998 --    13 C    0.974
    41   1 H    0.999 --    14 C    0.966
    42   1 H    1.000 --    14 C    0.963
    43   1 H    0.999 --    17 C    0.967
    44   1 H    0.998 --    18 C    0.971
    45   1 H    0.998 --    19 C    0.971
    46   1 H    0.997 --    20 C    0.970
    47   1 H    0.998 --    21 C    0.969
    48   1 H    0.988 --    22 C    0.970
    49   1 H    0.991 --    22 C    0.975
    50   1 H    0.991 --    22 C    0.975
 ---------------------------------------------------------------------------

Topologies differ in total number of bonds
Writing topology from bond orders to xtbtopo.mol

molecular dipole:
                 x           y           z       tot (Debye)
 q only:        2.058      -0.340       2.994
   full:        2.007      -0.250       3.167       9.552
molecular quadrupole (traceless):
                xx          xy          yy          xz          yz          zz
 q only:        1.784      -3.594      -4.651      11.634       4.126       2.867
  q+dip:        6.860      -5.010      -6.408      10.476       2.529      -0.452
   full:        5.319      -3.482      -6.886      11.136       2.333       1.568

           -------------------------------------------------
          |                Geometry Summary                 |
           -------------------------------------------------

      molecular mass/u    :      298.4431671
   center of mass at/Å    :       -1.0207318      -1.1230131       0.1626310
  moments of inertia/u·Å² :        0.9894687E+03   0.5219397E+04   0.5703303E+04
rotational constants/cm⁻¹ :        0.1703706E-01   0.3229805E-02   0.2955766E-02

 * 50 selected distances

     #   Z          #   Z                                           value/Å
     1   6 C        2   7 N                                       1.4726130
     2   7 N        3   6 C                                       1.5068784
     4   6 C        5   6 C                                       1.3918499
     5   6 C        6   6 C                                       1.3839307
     6   6 C        7   6 C                                       1.3847825
     7   6 C        8   6 C                                       1.3850319
     4   6 C        9   6 C                                       1.3919411
     8   6 C        9   6 C                                       1.3836829
     2   7 N       10   6 C                                       1.4942143
    10   6 C       11   6 C                                       1.5345211 (max)
    11   6 C       12   6 C                                       1.5323637
    12   6 C       13   6 C                                       1.5306107
    13   6 C       14   6 C                                       1.5294947
    14   6 C       15   8 O                                       1.4071259
    15   8 O       16   6 C                                       1.3706777
    16   6 C       17   6 C                                       1.3881123
    17   6 C       18   6 C                                       1.3864703
    18   6 C       19   6 C                                       1.3815808
    19   6 C       20   6 C                                       1.3864229
    16   6 C       21   6 C                                       1.3940236
    20   6 C       21   6 C                                       1.3793360
     2   7 N       22   6 C                                       1.4730569
     1   6 C       23   1 H                                       1.0884141
     1   6 C       24   1 H                                       1.0870131
     1   6 C       25   1 H                                       1.0883585
     3   6 C       26   1 H                                       1.0921392
     3   6 C       27   1 H                                       1.0922111
     5   6 C       28   1 H                                       1.0803584
     6   6 C       29   1 H                                       1.0785320
     7   6 C       30   1 H                                       1.0783117 (min)
     8   6 C       31   1 H                                       1.0785705
     9   6 C       32   1 H                                       1.0803815
    10   6 C       33   1 H                                       1.0916930
    10   6 C       34   1 H                                       1.0911012
    11   6 C       35   1 H                                       1.0892913
    11   6 C       36   1 H                                       1.0892318
    12   6 C       37   1 H                                       1.0898448
    12   6 C       38   1 H                                       1.0912083
    13   6 C       39   1 H                                       1.0901741
    13   6 C       40   1 H                                       1.0916254
    14   6 C       41   1 H                                       1.0981412
    14   6 C       42   1 H                                       1.1004794
    17   6 C       43   1 H                                       1.0791447
    18   6 C       44   1 H                                       1.0796800
    19   6 C       45   1 H                                       1.0786353
    20   6 C       46   1 H                                       1.0792824
    21   6 C       47   1 H                                       1.0788095
    22   6 C       48   1 H                                       1.0871350
    22   6 C       49   1 H                                       1.0887654
    22   6 C       50   1 H                                       1.0884190

 * 4 distinct bonds (by element types)

   Z      Z             #   av. dist./Å        max./Å        min./Å
   1 H    6 C          28     1.0866769     1.1004794     1.0783117
   6 C    6 C          16     1.4227597     1.5345211     1.3793360
   6 C    7 N           4     1.4866906     1.5068784     1.4726130
   6 C    8 O           2     1.3889018     1.4071259     1.3706777


optimized geometry written to: xtbopt.xyz


           -------------------------------------------------
          | TOTAL ENERGY              -63.679926389989 Eh   |
          | GRADIENT NORM               0.000269391439 Eh/α |
          | HOMO-LUMO GAP               2.369320228731 eV   |
           -------------------------------------------------

------------------------------------------------------------------------
 * finished run on 2024/12/20 at 06:58:19.856     
------------------------------------------------------------------------
 total:
 * wall-time:     0 d,  0 h,  0 min,  1.860 sec
 *  cpu-time:     0 d,  0 h,  0 min, 14.525 sec
 * ratio c/w:     7.807 speedup
 SCF:
 * wall-time:     0 d,  0 h,  0 min,  0.036 sec
 *  cpu-time:     0 d,  0 h,  0 min,  0.290 sec
 * ratio c/w:     7.966 speedup
 ANC optimizer:
 * wall-time:     0 d,  0 h,  0 min,  1.806 sec
 *  cpu-time:     0 d,  0 h,  0 min, 14.106 sec
 * ratio c/w:     7.811 speedup

