      -----------------------------------------------------------      
     |                   =====================                   |     
     |                           x T B                           |     
     |                   =====================                   |     
     |                         S. Grimme                         |     
     |          Mulliken Center for Theoretical Chemistry        |     
     |                    University of Bonn                     |     
      -----------------------------------------------------------      

   * xtb version 6.7.1 (edcfbbe) compiled by 'conda@3ef47c1a292c' on 2024-11-25

   xtb is free software: you can redistribute it and/or modify it under
   the terms of the GNU Lesser General Public License as published by
   the Free Software Foundation, either version 3 of the License, or
   (at your option) any later version.
   
   xtb is distributed in the hope that it will be useful,
   but WITHOUT ANY WARRANTY; without even the implied warranty of
   MERCHANTABILITY or FITNESS FOR A PARTICULAR PURPOSE.  See the
   GNU Lesser General Public License for more details.
   
   Cite this work as:
   * C. Bannwarth, E. Caldeweyher, S. Ehlert, A. Hansen, P. Pracht,
     J. Seibert, S. Spicher, S. Grimme, WIREs Comput. Mol. Sci., 2020, 11,
     e01493. DOI: 10.1002/wcms.1493
   
   for GFN2-xTB:
   * C. Bannwarth, S. Ehlert and S. Grimme., J. Chem. Theory Comput., 2019,
     15, 1652-1671. DOI: 10.1021/acs.jctc.8b01176
   for GFN1-xTB:
   * S. Grimme, C. Bannwarth, P. Shushkov, J. Chem. Theory Comput., 2017,
     13, 1989-2009. DOI: 10.1021/acs.jctc.7b00118
   for GFN0-xTB:
   * P. Pracht, E. Caldeweyher, S. Ehlert, S. Grimme, ChemRxiv, 2019, preprint.
     DOI: 10.26434/chemrxiv.8326202.v1
   for GFN-FF:
   * S. Spicher and S. Grimme, Angew. Chem. Int. Ed., 2020, 59, 15665-15673.
     DOI: 10.1002/anie.202004239
   
   for ALPB and GBSA implicit solvation:
   * S. Ehlert, M. Stahn, S. Spicher, S. Grimme, J. Chem. Theory Comput.,
     2021, 17, 4250-4261. DOI: 10.1021/acs.jctc.1c00471
   
   for ddCOSMO and CPCM-X implicit solvation:
   * M. Stahn, S. Ehlert, S. Grimme, J. Phys. Chem. A,
     2023, XX, XXXX-XXXX. DOI: 10.1021/acs.jpca.3c04382
   
   for DFT-D4:
   * E. Caldeweyher, C. Bannwarth and S. Grimme, J. Chem. Phys., 2017,
     147, 034112. DOI: 10.1063/1.4993215
   * E. Caldeweyher, S. Ehlert, A. Hansen, H. Neugebauer, S. Spicher,
     C. Bannwarth and S. Grimme, J. Chem. Phys., 2019, 150, 154122.
     DOI: 10.1063/1.5090222
   * E. Caldeweyher, J.-M. Mewes, S. Ehlert and S. Grimme, Phys. Chem. Chem. Phys.
     2020, 22, 8499-8512. DOI: 10.1039/D0CP00502A
   
   for sTDA-xTB:
   * S. Grimme and C. Bannwarth, J. Chem. Phys., 2016, 145, 054103.
     DOI: 10.1063/1.4959605
   
   in the mass-spec context:
   * V. Asgeirsson, C. Bauer and S. Grimme, Chem. Sci., 2017, 8, 4879.
     DOI: 10.1039/c7sc00601b
   * J. Koopman and S. Grimme, ACS Omega 2019, 4, 12, 15120-15133.
     DOI: 10.1021/acsomega.9b02011
   
   for metadynamics refer to:
   * S. Grimme, J. Chem. Theory Comput., 2019, 155, 2847-2862
     DOI: 10.1021/acs.jctc.9b00143
   
   for SPH calculations refer to:
   * S. Spicher and S. Grimme, J. Chem. Theory Comput., 2021, 17, 1701-1714
     DOI: 10.1021/acs.jctc.0c01306
   
   for ONIOM refer to:
   * C. Plett, A. Katbashev, S. Ehlert, S. Grimme, M. Bursch,
     Phys. Chem. Chem. Phys., 2023, 25, 17860-17868. DOI: 10.1039/D3CP02178E
   
   for DIPRO refer to:
   * J. Kohn, N. Gildemeister, S. Grimme, D. Fazzi, A. Hansen,
     J. Chem. Phys., 2023, just accepted.
   
   for PTB refer to:
   * S. Grimme, M. Mueller, A. Hansen, J. Chem. Phys., 2023, 158, 124111.
     DOI: 10.1063/5.0137838
   
   with help from (in alphabetical order)
   P. Atkinson, C. Bannwarth, F. Bohle, G. Brandenburg, E. Caldeweyher
   M. Checinski, S. Dohm, S. Ehlert, S. Ehrlich, I. Gerasimov, C. Hölzer
   A. Katbashev, J. Kohn, J. Koopman, C. Lavigne, S. Lehtola, F. März, M. Müller,
   F. Musil, H. Neugebauer, J. Pisarek, C. Plett, P. Pracht, F. Pultar,
   J. Seibert, P. Shushkov, S. Spicher, M. Stahn, M. Steiner, T. Strunk,
   J. Stückrath, T. Rose, and J. Unsleber
   
 * started run on 2024/12/20 at 06:59:10.087     
   ID    Z sym.   atoms
    1    6 C      1-7, 9, 11, 13-25
    2    7 N      8, 10, 12
    3    1 H      26-45

           -------------------------------------------------
          |                Calculation Setup                |
           -------------------------------------------------

          program call               : xtb C0820.xyz --opt --namespace C0820 --charge +1
          calculation namespace      : C0820
          coordinate file            : C0820.xyz
          omp threads                :                     8


           -------------------------------------------------
          |                 G F N 2 - x T B                 |
           -------------------------------------------------

        Reference                      10.1021/acs.jctc.8b01176
      * Hamiltonian:
        H0-scaling (s, p, d)           1.850000    2.230000    2.230000
        zeta-weighting                 0.500000
      * Dispersion:
        s8                             2.700000
        a1                             0.520000
        a2                             5.000000
        s9                             5.000000
      * Repulsion:
        kExp                           1.500000    1.000000
        rExp                           1.000000
      * Coulomb:
        alpha                          2.000000
        third order                    shell-resolved
        anisotropic                    true
        a3                             3.000000
        a5                             4.000000
        cn-shift                       1.200000
        cn-exp                         4.000000
        max-rad                        5.000000


          ...................................................
          :                      SETUP                      :
          :.................................................:
          :  # basis functions                 120          :
          :  # atomic orbitals                 120          :
          :  # shells                           70          :
          :  # electrons                       122          :
          :  max. iterations                   250          :
          :  Hamiltonian                  GFN2-xTB          :
          :  restarted?                      false          :
          :  GBSA solvation                  false          :
          :  PC potential                    false          :
          :  electronic temp.          300.0000000     K    :
          :  accuracy                    1.0000000          :
          :  -> integral cutoff          0.2500000E+02      :
          :  -> integral neglect         0.1000000E-07      :
          :  -> SCF convergence          0.1000000E-05 Eh   :
          :  -> wf. convergence          0.1000000E-03 e    :
          :  Broyden damping             0.4000000          :
          :  net charge                          1          :
          :  unpaired electrons                  0          :
          ...................................................

 iter      E             dE          RMSdq      gap      omega  full diag
   1    -66.7174041 -0.667174E+02  0.429E+00    2.16       0.0  T
   2    -66.8110476 -0.936435E-01  0.268E+00    2.66       1.0  T
   3    -66.8069064  0.414113E-02  0.111E+00    2.92       1.0  T
   4    -66.8155141 -0.860762E-02  0.420E-01    2.84       1.0  T
   5    -66.8220496 -0.653559E-02  0.124E-01    2.90       1.0  T
   6    -66.8225174 -0.467780E-03  0.541E-02    2.85       1.0  T
   7    -66.8226274 -0.110020E-03  0.235E-02    2.87       1.0  T
   8    -66.8226328 -0.536032E-05  0.926E-03    2.86       1.6  T
   9    -66.8226340 -0.120288E-05  0.258E-03    2.86       5.8  T
  10    -66.8226342 -0.189384E-06  0.108E-03    2.86      13.8  T
  11    -66.8226342 -0.976026E-08  0.413E-04    2.86      36.1  T
  12    -66.8226342 -0.292437E-08  0.179E-04    2.86      83.4  T

   *** convergence criteria satisfied after 12 iterations ***

         #    Occupation            Energy/Eh            Energy/eV
      -------------------------------------------------------------
         1        2.0000           -0.8442011             -22.9719
       ...           ...                  ...                  ...
        55        2.0000           -0.5257285             -14.3058
        56        2.0000           -0.5234276             -14.2432
        57        2.0000           -0.5210547             -14.1786
        58        2.0000           -0.5209000             -14.1744
        59        2.0000           -0.5180544             -14.0970
        60        2.0000           -0.5070106             -13.7965
        61        2.0000           -0.4940915             -13.4449 (HOMO)
        62                         -0.3889152             -10.5829 (LUMO)
        63                         -0.3473654              -9.4523
        64                         -0.3459630              -9.4141
        65                         -0.3455514              -9.4029
        66                         -0.3442110              -9.3665
       ...                                ...                  ...
       120                          0.5265759              14.3289
      -------------------------------------------------------------
                  HL-Gap            0.1051762 Eh            2.8620 eV
             Fermi-level           -0.4415034 Eh          -12.0139 eV

 SCC (total)                   0 d,  0 h,  0 min,  0.039 sec
 SCC setup                      ...        0 min,  0.000 sec (  0.461%)
 Dispersion                     ...        0 min,  0.001 sec (  1.780%)
 classical contributions        ...        0 min,  0.000 sec (  0.174%)
 integral evaluation            ...        0 min,  0.003 sec (  7.256%)
 iterations                     ...        0 min,  0.027 sec ( 70.580%)
 molecular gradient             ...        0 min,  0.008 sec ( 19.285%)
 printout                       ...        0 min,  0.000 sec (  0.420%)

         :::::::::::::::::::::::::::::::::::::::::::::::::::::
         ::                     SUMMARY                     ::
         :::::::::::::::::::::::::::::::::::::::::::::::::::::
         :: total energy             -65.707307177868 Eh    ::
         :: gradient norm              0.066924533097 Eh/a0 ::
         :: HOMO-LUMO gap              2.861991138166 eV    ::
         ::.................................................::
         :: SCC energy               -66.821998117317 Eh    ::
         :: -> isotropic ES            0.066200715549 Eh    ::
         :: -> anisotropic ES         -0.007804735153 Eh    ::
         :: -> anisotropic XC          0.044211315561 Eh    ::
         :: -> dispersion             -0.053145859687 Eh    ::
         :: repulsion energy           1.114690939449 Eh    ::
         :: add. restraining           0.000000000000 Eh    ::
         :: total charge               1.000000000000 e     ::
         :::::::::::::::::::::::::::::::::::::::::::::::::::::

      ----------------------------------------------------------- 
     |                   =====================                   |
     |                        A N C O P T                        |
     |                   =====================                   |
     |               Approximate Normal Coordinate               |
     |                Rational Function Optimizer                |
      ----------------------------------------------------------- 
      ----------------------------------------------------------- 
     |                   =====================                   |
     |                        A N C O P T                        |
     |                   =====================                   |
     |               Approximate Normal Coordinate               |
     |                Rational Function Optimizer                |
      ----------------------------------------------------------- 

          ...................................................
          :                      SETUP                      :
          :.................................................:
          :   optimization level            normal          :
          :   max. optcycles                   200          :
          :   ANC micro-cycles                  20          :
          :   degrees of freedom               129          :
          :.................................................:
          :   RF solver                   davidson          :
          :   write xtbopt.log                true          :
          :   linear?                        false          :
          :   energy convergence         0.5000000E-05 Eh   :
          :   grad. convergence          0.1000000E-02 Eh/α :
          :   maxmium RF displ.          1.0000000          :
          :   Hlow (freq-cutoff)         0.1000000E-01      :
          :   Hmax (freq-cutoff)         5.0000000          :
          :   S6 in model hess.         20.0000000          :
          ...................................................

generating ANC from exact Hessian ...
Using Lindh-Hessian (1995)
 Shifting diagonal of input Hessian by    9.6950708214126428E-003
 Lowest  eigenvalues of input Hessian
    0.000000    0.000000    0.000000    0.000000    0.000000    0.000000
    0.010000    0.010212    0.010577    0.010863    0.010990    0.011024
    0.011978    0.012782    0.014303    0.015710    0.017903    0.018138
 Highest eigenvalues
    1.947918    1.975231    2.026691    2.078760    2.088994    2.219895


........................................................................
.............................. CYCLE    1 ..............................
........................................................................

 iter      E             dE          RMSdq      gap      omega  full diag
   1    -66.8226342 -0.668226E+02  0.794E-05    2.86       0.0  T
   2    -66.8226342 -0.250679E-10  0.487E-05    2.86     306.0  T
   3    -66.8226342  0.206057E-11  0.318E-05    2.86     468.9  T
     SCC iter.                  ...        0 min,  0.007 sec
     gradient                   ...        0 min,  0.007 sec
 * total energy  :   -65.7073072 Eh     change       -0.3754508E-09 Eh
   gradient norm :     0.0669252 Eh/α   predicted     0.0000000E+00 (-100.00%)
   displ. norm   :     0.3448185 α      lambda       -0.1292883E-01
   maximum displ.:     0.1965588 α      in ANC's #28, #67, #33, ...

........................................................................
.............................. CYCLE    2 ..............................
........................................................................

 iter      E             dE          RMSdq      gap      omega  full diag
   1    -66.8892324 -0.668892E+02  0.170E-01    2.88       0.0  T
   2    -66.8893184 -0.859518E-04  0.102E-01    2.87       1.0  T
   3    -66.8892623  0.560182E-04  0.580E-02    2.89       1.0  T
   4    -66.8893549 -0.926127E-04  0.129E-02    2.88       1.2  T
   5    -66.8893605 -0.554308E-05  0.425E-03    2.88       3.5  T
   6    -66.8893612 -0.702153E-06  0.195E-03    2.88       7.6  T
   7    -66.8893613 -0.665146E-07  0.673E-04    2.88      22.2  T
   8    -66.8893613 -0.801117E-08  0.249E-04    2.88      59.9  T
     SCC iter.                  ...        0 min,  0.016 sec
     gradient                   ...        0 min,  0.007 sec
 * total energy  :   -65.7165925 Eh     change       -0.9285328E-02 Eh
   gradient norm :     0.0352382 Eh/α   predicted    -0.7233999E-02 ( -22.09%)
   displ. norm   :     0.3167847 α      lambda       -0.5027315E-02
   maximum displ.:     0.1798487 α      in ANC's #28, #12, #24, ...

........................................................................
.............................. CYCLE    3 ..............................
........................................................................

 iter      E             dE          RMSdq      gap      omega  full diag
   1    -66.9245943 -0.669246E+02  0.133E-01    2.88       0.0  T
   2    -66.9246649 -0.705759E-04  0.806E-02    2.86       1.0  T
   3    -66.9246349  0.299509E-04  0.425E-02    2.88       1.0  T
   4    -66.9246850 -0.501153E-04  0.120E-02    2.87       1.2  T
   5    -66.9246895 -0.452185E-05  0.341E-03    2.87       4.4  T
   6    -66.9246900 -0.410075E-06  0.172E-03    2.87       8.7  T
   7    -66.9246900 -0.581467E-07  0.544E-04    2.87      27.4  T
   8    -66.9246900 -0.475185E-08  0.198E-04    2.87      75.2  T
     SCC iter.                  ...        0 min,  0.023 sec
     gradient                   ...        0 min,  0.007 sec
 * total energy  :   -65.7194645 Eh     change       -0.2871948E-02 Eh
   gradient norm :     0.0120814 Eh/α   predicted    -0.2765910E-02 (  -3.69%)
   displ. norm   :     0.1215936 α      lambda       -0.4898471E-03
   maximum displ.:     0.0485567 α      in ANC's #12, #28, #10, ...

........................................................................
.............................. CYCLE    4 ..............................
........................................................................

 iter      E             dE          RMSdq      gap      omega  full diag
   1    -66.9244837 -0.669245E+02  0.490E-02    2.88       0.0  T
   2    -66.9244899 -0.619015E-05  0.284E-02    2.87       1.0  T
   3    -66.9244866  0.336300E-05  0.126E-02    2.88       1.2  T
   4    -66.9244915 -0.498142E-05  0.264E-03    2.87       5.7  T
   5    -66.9244917 -0.184153E-06  0.105E-03    2.87      14.2  T
   6    -66.9244917 -0.965530E-08  0.571E-04    2.87      26.1  T
   7    -66.9244917 -0.731291E-08  0.109E-04    2.87     136.7  T
     SCC iter.                  ...        0 min,  0.014 sec
     gradient                   ...        0 min,  0.008 sec
 * total energy  :   -65.7198245 Eh     change       -0.3600231E-03 Eh
   gradient norm :     0.0080217 Eh/α   predicted    -0.2485476E-03 ( -30.96%)
   displ. norm   :     0.1560642 α      lambda       -0.3844122E-03
   maximum displ.:     0.0567361 α      in ANC's #5, #12, #10, ...

........................................................................
.............................. CYCLE    5 ..............................
........................................................................

 iter      E             dE          RMSdq      gap      omega  full diag
   1    -66.9205015 -0.669205E+02  0.662E-02    2.90       0.0  T
   2    -66.9205127 -0.112518E-04  0.380E-02    2.89       1.0  T
   3    -66.9205072  0.557543E-05  0.217E-02    2.89       1.0  T
   4    -66.9205185 -0.113902E-04  0.343E-03    2.88       4.3  T
   5    -66.9205188 -0.214092E-06  0.185E-03    2.88       8.0  T
   6    -66.9205188 -0.710347E-07  0.859E-04    2.88      17.4  T
   7    -66.9205188 -0.113779E-07  0.236E-04    2.88      63.2  T
     SCC iter.                  ...        0 min,  0.014 sec
     gradient                   ...        0 min,  0.007 sec
 * total energy  :   -65.7200723 Eh     change       -0.2478434E-03 Eh
   gradient norm :     0.0057202 Eh/α   predicted    -0.1968896E-03 ( -20.56%)
   displ. norm   :     0.1111222 α      lambda       -0.1442026E-03
   maximum displ.:     0.0487873 α      in ANC's #5, #10, #4, ...

........................................................................
.............................. CYCLE    6 ..............................
........................................................................

 iter      E             dE          RMSdq      gap      omega  full diag
   1    -66.9185973 -0.669186E+02  0.472E-02    2.91       0.0  T
   2    -66.9186031 -0.587671E-05  0.270E-02    2.90       1.0  T
   3    -66.9186010  0.210967E-05  0.161E-02    2.90       1.0  T
   4    -66.9186067 -0.564301E-05  0.244E-03    2.90       6.1  T
   5    -66.9186068 -0.980846E-07  0.139E-03    2.90      10.8  T
   6    -66.9186068 -0.377993E-07  0.501E-04    2.90      29.7  T
   7    -66.9186068 -0.461721E-08  0.157E-04    2.90      94.7  T
     SCC iter.                  ...        0 min,  0.014 sec
     gradient                   ...        0 min,  0.008 sec
 * total energy  :   -65.7201792 Eh     change       -0.1069201E-03 Eh
   gradient norm :     0.0048323 Eh/α   predicted    -0.7312933E-04 ( -31.60%)
   displ. norm   :     0.1405301 α      lambda       -0.1437602E-03
   maximum displ.:     0.0652242 α      in ANC's #4, #5, #10, ...

........................................................................
.............................. CYCLE    7 ..............................
........................................................................

 iter      E             dE          RMSdq      gap      omega  full diag
   1    -66.9178414 -0.669178E+02  0.592E-02    2.92       0.0  T
   2    -66.9178492 -0.772204E-05  0.339E-02    2.92       1.0  T
   3    -66.9178449  0.421801E-05  0.195E-02    2.92       1.0  T
   4    -66.9178539 -0.892446E-05  0.265E-03    2.92       5.6  T
   5    -66.9178540 -0.115550E-06  0.153E-03    2.92       9.7  T
   6    -66.9178540 -0.442952E-07  0.503E-04    2.92      29.7  T
   7    -66.9178540 -0.533090E-08  0.157E-04    2.92      94.7  T
     SCC iter.                  ...        0 min,  0.014 sec
     gradient                   ...        0 min,  0.007 sec
 * total energy  :   -65.7202707 Eh     change       -0.9145789E-04 Eh
   gradient norm :     0.0033035 Eh/α   predicted    -0.7330264E-04 ( -19.85%)
   displ. norm   :     0.0753660 α      lambda       -0.5864681E-04
   maximum displ.:     0.0421572 α      in ANC's #4, #5, #1, ...

........................................................................
.............................. CYCLE    8 ..............................
........................................................................

 iter      E             dE          RMSdq      gap      omega  full diag
   1    -66.9190777 -0.669191E+02  0.296E-02    2.92       0.0  T
   2    -66.9190783 -0.623515E-06  0.171E-02    2.92       1.0  T
   3    -66.9190771  0.122249E-05  0.654E-03    2.92       2.3  T
   4    -66.9190786 -0.155468E-05  0.720E-04    2.92      20.7  T
   5    -66.9190787 -0.126689E-07  0.419E-04    2.92      35.6  T
   6    -66.9190787 -0.295675E-08  0.166E-04    2.92      89.8  T
     SCC iter.                  ...        0 min,  0.012 sec
     gradient                   ...        0 min,  0.007 sec
 * total energy  :   -65.7203109 Eh     change       -0.4024696E-04 Eh
   gradient norm :     0.0021599 Eh/α   predicted    -0.2949050E-04 ( -26.73%)
   displ. norm   :     0.0730843 α      lambda       -0.3133723E-04
   maximum displ.:     0.0426293 α      in ANC's #4, #5, #1, ...

........................................................................
.............................. CYCLE    9 ..............................
........................................................................

 iter      E             dE          RMSdq      gap      omega  full diag
   1    -66.9201007 -0.669201E+02  0.261E-02    2.92       0.0  T
   2    -66.9201008 -0.133152E-06  0.153E-02    2.92       1.0  T
   3    -66.9201004  0.407434E-06  0.290E-03    2.93       5.1  T
   4    -66.9201009 -0.474645E-06  0.494E-04    2.92      30.2  T
   5    -66.9201009 -0.743346E-08  0.247E-04    2.92      60.3  T
     SCC iter.                  ...        0 min,  0.010 sec
     gradient                   ...        0 min,  0.008 sec
 * total energy  :   -65.7203337 Eh     change       -0.2271837E-04 Eh
   gradient norm :     0.0017578 Eh/α   predicted    -0.1575551E-04 ( -30.65%)
   displ. norm   :     0.1198537 α      lambda       -0.2388580E-04
   maximum displ.:     0.0688996 α      in ANC's #4, #5, #1, ...

........................................................................
.............................. CYCLE   10 ..............................
........................................................................

 iter      E             dE          RMSdq      gap      omega  full diag
   1    -66.9207152 -0.669207E+02  0.393E-02    2.92       0.0  T
   2    -66.9207154 -0.210195E-06  0.230E-02    2.92       1.0  T
   3    -66.9207147  0.698832E-06  0.414E-03    2.92       3.6  T
   4    -66.9207155 -0.815276E-06  0.571E-04    2.92      26.1  T
   5    -66.9207155 -0.814644E-08  0.298E-04    2.92      50.0  T
     SCC iter.                  ...        0 min,  0.010 sec
     gradient                   ...        0 min,  0.008 sec
 * total energy  :   -65.7203584 Eh     change       -0.2472605E-04 Eh
   gradient norm :     0.0018367 Eh/α   predicted    -0.1202027E-04 ( -51.39%)
   displ. norm   :     0.1278413 α      lambda       -0.2127470E-04
   maximum displ.:     0.0707487 α      in ANC's #4, #5, #1, ...

........................................................................
.............................. CYCLE   11 ..............................
........................................................................

 iter      E             dE          RMSdq      gap      omega  full diag
   1    -66.9200753 -0.669201E+02  0.390E-02    2.92       0.0  T
   2    -66.9200754 -0.963981E-07  0.229E-02    2.92       1.0  T
   3    -66.9200753  0.104734E-06  0.175E-03    2.92       8.5  T
   4    -66.9200754 -0.154646E-06  0.376E-04    2.92      39.6  T
   5    -66.9200754 -0.392347E-09  0.184E-04    2.92      80.9  T
     SCC iter.                  ...        0 min,  0.018 sec
     gradient                   ...        0 min,  0.007 sec
 * total energy  :   -65.7203843 Eh     change       -0.2592273E-04 Eh
   gradient norm :     0.0015398 Eh/α   predicted    -0.1071690E-04 ( -58.66%)
   displ. norm   :     0.2044386 α      lambda       -0.2873040E-04
   maximum displ.:     0.1109540 α      in ANC's #4, #1, #5, ...

........................................................................
.............................. CYCLE   12 ..............................
........................................................................

 iter      E             dE          RMSdq      gap      omega  full diag
   1    -66.9195058 -0.669195E+02  0.607E-02    2.91       0.0  T
   2    -66.9195062 -0.405174E-06  0.356E-02    2.91       1.0  T
   3    -66.9195052  0.100409E-05  0.496E-03    2.91       3.0  T
   4    -66.9195064 -0.123499E-05  0.758E-04    2.91      19.7  T
   5    -66.9195064 -0.107437E-08  0.429E-04    2.91      34.7  T
   6    -66.9195064 -0.454170E-08  0.116E-04    2.91     128.3  T
     SCC iter.                  ...        0 min,  0.033 sec
     gradient                   ...        0 min,  0.012 sec
 * total energy  :   -65.7204112 Eh     change       -0.2691332E-04 Eh
   gradient norm :     0.0018025 Eh/α   predicted    -0.1463331E-04 ( -45.63%)
   displ. norm   :     0.1338028 α      lambda       -0.1186454E-04
   maximum displ.:     0.0717217 α      in ANC's #4, #1, #5, ...

........................................................................
.............................. CYCLE   13 ..............................
........................................................................

 iter      E             dE          RMSdq      gap      omega  full diag
   1    -66.9191945 -0.669192E+02  0.393E-02    2.92       0.0  T
   2    -66.9191947 -0.200750E-06  0.230E-02    2.92       1.0  T
   3    -66.9191943  0.416486E-06  0.355E-03    2.92       4.2  T
   4    -66.9191949 -0.521388E-06  0.504E-04    2.92      29.6  T
   5    -66.9191949 -0.785093E-09  0.294E-04    2.92      50.8  T
     SCC iter.                  ...        0 min,  0.010 sec
     gradient                   ...        0 min,  0.007 sec
 * total energy  :   -65.7204195 Eh     change       -0.8250148E-05 Eh
   gradient norm :     0.0012937 Eh/α   predicted    -0.5980279E-05 ( -27.51%)
   displ. norm   :     0.0408969 α      lambda       -0.5187130E-05
   maximum displ.:     0.0259460 α      in ANC's #1, #4, #6, ...

........................................................................
.............................. CYCLE   14 ..............................
........................................................................

 iter      E             dE          RMSdq      gap      omega  full diag
   1    -66.9199065 -0.669199E+02  0.105E-02    2.91       0.0  T
   2    -66.9199066 -0.414053E-07  0.612E-03    2.91       2.4  T
   3    -66.9199065  0.921711E-07  0.168E-03    2.91       8.9  T
   4    -66.9199066 -0.113501E-06  0.242E-04    2.91      61.7  T
   5    -66.9199066 -0.310408E-09  0.148E-04    2.91     100.9  T
     SCC iter.                  ...        0 min,  0.010 sec
     gradient                   ...        0 min,  0.007 sec
 * total energy  :   -65.7204250 Eh     change       -0.5486531E-05 Eh
   gradient norm :     0.0007085 Eh/α   predicted    -0.2597936E-05 ( -52.65%)
   displ. norm   :     0.0424295 α      lambda       -0.3883602E-05
   maximum displ.:     0.0287644 α      in ANC's #1, #4, #6, ...

........................................................................
.............................. CYCLE   15 ..............................
........................................................................

 iter      E             dE          RMSdq      gap      omega  full diag
   1    -66.9202612 -0.669203E+02  0.100E-02    2.91       0.0  T
   2    -66.9202613 -0.278664E-07  0.585E-03    2.91       2.5  T
   3    -66.9202612  0.566902E-07  0.130E-03    2.91      11.5  T
   4    -66.9202613 -0.706388E-07  0.178E-04    2.91      83.7  T
   5    -66.9202613 -0.514291E-10  0.101E-04    2.91     147.8  T
     SCC iter.                  ...        0 min,  0.010 sec
     gradient                   ...        0 min,  0.008 sec
 * total energy  :   -65.7204295 Eh     change       -0.4505106E-05 Eh
   gradient norm :     0.0009271 Eh/α   predicted    -0.1946554E-05 ( -56.79%)
   displ. norm   :     0.0551315 α      lambda       -0.3966773E-05
   maximum displ.:     0.0376725 α      in ANC's #1, #4, #5, ...

   *** GEOMETRY OPTIMIZATION CONVERGED AFTER 15 ITERATIONS ***

------------------------------------------------------------------------
 total energy gain   :        -0.0131223 Eh       -8.2344 kcal/mol
 total RMSD          :         0.2151530 a0        0.1139 Å
 total power (kW/mol):        -2.2968378 (step)  -87.4733 (real)
------------------------------------------------------------------------

 ANCopt (total)                0 d,  0 h,  0 min,  0.394 sec
 optimizer setup                ...        0 min,  0.000 sec (  0.038%)
 model hessian                  ...        0 min,  0.016 sec (  3.971%)
 ANC generation                 ...        0 min,  0.001 sec (  0.312%)
 coordinate transformation      ...        0 min,  0.000 sec (  0.076%)
 single point calculation       ...        0 min,  0.372 sec ( 94.511%)
 optimization log               ...        0 min,  0.002 sec (  0.464%)
 hessian update                 ...        0 min,  0.000 sec (  0.086%)
 rational function              ...        0 min,  0.002 sec (  0.384%)

================
 final structure:
================
45
 xtb: 6.7.1 (edcfbbe)
C            2.48763929510021        0.14675078536389       -0.05184312950407
C            0.99523797680085        0.11600868744940       -0.04613365130154
C            0.31596665444485       -1.09914250473410        0.00942820296892
C           -1.06380123170919       -1.14712824855496        0.00682039490241
C           -1.78646743218001        0.03839650486613       -0.04703090543456
C           -1.12982137062785        1.26048568795826       -0.10975446868156
C            0.25290346694355        1.29005047158909       -0.10940162136319
N           -3.20826404150548        0.00446431296118       -0.03798651489813
C           -4.01786311830219        0.55864121611143       -1.00460919484617
N           -3.52965937142924        1.29337783702774       -2.03463326820814
C           -5.30840430457251        0.26162883845876       -0.65015709257687
N           -5.26019705858003       -0.45537224756500        0.51961248432996
C           -3.98452071537001       -0.61334460087627        0.88384132632800
C           -3.49765119408182       -1.34866264851020        2.04162756561943
C           -2.47563920421778       -0.82462191294508        2.83424807650793
C           -2.01588504335660       -1.53669673375025        3.92568579032177
C           -2.56327720032118       -2.77148082170541        4.23518580715415
C           -3.57829662094450       -3.29601743038232        3.45064001313212
C           -4.04786800254797       -2.59209721486076        2.35867156126642
C           -6.41088998955069       -0.87382335034617        1.23663735537345
C           -6.50961564713331       -0.62246926932597        2.59934768062870
C           -7.64518009983386       -1.02192865949981        3.28036014165157
C           -8.67504295011637       -1.66015419830467        2.60773337103591
C           -8.57349390986605       -1.89955999354752        1.24725325048818
C           -7.44179120594844       -1.50646384087230        0.55461428859651
H            2.88929675051933       -0.54153012661175        0.68835084319055
H            2.86119030004058       -0.16452419850518       -1.02718988487371
H            2.86099991597238        1.14604012921746        0.15285118779358
H            0.87765492215878       -2.01939258548438        0.05411784506790
H           -1.58025488187438       -2.09393963676789        0.04791706129169
H           -1.69730588677442        2.17853517047924       -0.13814519808514
H            0.75973831982707        2.24178037976507       -0.15220509603448
H           -2.56286285118237        1.16009486069656       -2.28443905517716
H           -4.15951389107835        1.48455956922712       -2.79521094914102
H           -6.23203842069548        0.53491259379800       -1.11303700935148
H           -2.05846397776398        0.14437186988048        2.60644345231776
H           -1.22922497758147       -1.12413754719138        4.53752522398097
H           -2.20005202961263       -3.32439094946297        5.08708198243677
H           -4.00425291084645       -4.25822077455829        3.68754606599525
H           -4.82750303724454       -3.01027549011611        1.74001862492264
H           -5.71082802104608       -0.11236012700216        3.11508658478607
H           -7.72670877927344       -0.82709980489668        4.33789973682084
H           -9.55896356711058       -1.96732122532186        3.14371232723404
H           -9.37491541629771       -2.39379268979905        0.72142781410393
H           -7.35090924122965       -1.70067008335281       -0.50330902077118

 Bond Distances (Angstroems)
 ---------------------------
C1-C2=1.4927         C1-H26=1.0876        C1-H27=1.0898        C1-H28=1.0862        C2-C1=1.4927         C2-C3=1.3932         
C2-C7=1.3905         C3-C2=1.3932         C3-C4=1.3806         C3-H29=1.0791        C4-C3=1.3806         C4-C5=1.3895         
C4-H30=1.0793        C5-C4=1.3895         C5-C6=1.3887         C5-N8=1.4222         C6-C5=1.3887         C6-C7=1.3830         
C6-H31=1.0797        C7-C2=1.3905         C7-C6=1.3830         C7-H32=1.0791        N8-C5=1.4222         N8-C9=1.3773         
N8-C13=1.3543        C9-N8=1.3773         C9-N10=1.3561        C9-C11=1.3709        N10-C9=1.3561        N10-H33=1.0074       
N10-H34=1.0059       C11-C9=1.3709        C11-N12=1.3729       C11-H35=1.0687       N12-C11=1.3729       N12-C13=1.3360       
N12-C20=1.4189       C13-N8=1.3543        C13-N12=1.3360       C13-C14=1.4554       C14-C13=1.4554       C14-C15=1.3955       
C14-C19=1.3962       C15-C14=1.3955       C15-C16=1.3819       C15-H36=1.0793       C16-C15=1.3819       C16-C17=1.3857       
C16-H37=1.0786       C17-C16=1.3857       C17-C18=1.3860       C17-H38=1.0786       C18-C17=1.3860       C18-C19=1.3814       
C18-H39=1.0786       C19-C14=1.3962       C19-C18=1.3814       C19-H40=1.0796       C20-N12=1.4189       C20-C21=1.3892       
C20-C25=1.3886       C21-C20=1.3892       C21-C22=1.3831       C21-H41=1.0790       C22-C21=1.3831       C22-C23=1.3858       
C22-H42=1.0784       C23-C22=1.3858       C23-C24=1.3851       C23-H43=1.0784       C24-C23=1.3851       C24-C25=1.3838       
C24-H44=1.0784       C25-C20=1.3886       C25-C24=1.3838       C25-H45=1.0794       H26-C1=1.0876        H27-C1=1.0898        
H28-C1=1.0862        H29-C3=1.0791        H30-C4=1.0793        H31-C6=1.0797        H32-C7=1.0791        H33-N10=1.0074       
H34-N10=1.0059       H35-C11=1.0687       H36-C15=1.0793       H37-C16=1.0786       H38-C17=1.0786       H39-C18=1.0786       
H40-C19=1.0796       H41-C21=1.0790       H42-C22=1.0784       H43-C23=1.0784       H44-C24=1.0784       H45-C25=1.0794       
 C  H  Rav=1.0799 sigma=0.0043  Rmin=1.0687  Rmax=1.0898    18
 C  C  Rav=1.3946 sigma=0.0270  Rmin=1.3709  Rmax=1.4927    21
 N  H  Rav=1.0066 sigma=0.0008  Rmin=1.0059  Rmax=1.0074     2
 N  C  Rav=1.3768 sigma=0.0304  Rmin=1.3360  Rmax=1.4222     7

 selected bond angles (degree)
 --------------------
H26-C1-C2=110.71               H27-C1-C2=109.89               H27-C1-H26=107.56              H28-C1-C2=111.22               
H28-C1-H26=109.09              H28-C1-H27=108.28              C3-C2-C1=120.37                C7-C2-C1=121.08                
C7-C2-C3=118.55                C4-C3-C2=121.16                H29-C3-C2=119.45               H29-C3-C4=119.38               
C5-C4-C3=119.35                H30-C4-C3=120.57               H30-C4-C5=120.07               C6-C5-C4=120.44                
N8-C5-C4=119.96                N8-C5-C6=119.60                C7-C6-C5=119.44                H31-C6-C5=120.06               
H31-C6-C7=120.49               C6-C7-C2=121.04                H32-C7-C2=119.72               H32-C7-C6=119.24               
C9-N8-C5=125.00                C13-N8-C5=126.03               C13-N8-C9=108.93               N10-C9-N8=122.65               
C11-C9-N8=106.54               C11-C9-N10=130.74              H33-N10-C9=117.53              H34-N10-C9=116.86              
H34-N10-H33=116.01             

 selected dihedral angles (degree)
 ---------------------------------
C3-C2-C1-H26=315.72           C3-C2-C1-H27= 74.39           C3-C2-C1-H28=194.27           C7-C2-C1-H26=136.37           
C7-C2-C1-H27=255.05           C7-C2-C1-H28= 14.93           C4-C3-C2-C1=180.42            C4-C3-C2-C7=359.78            
H29-C3-C2-C1=  0.35           H29-C3-C2-C7=179.71           C5-C4-C3-C2=359.75            C5-C4-C3-H29=179.82           
H30-C4-C3-C2=179.86           H30-C4-C3-H29=359.94          C6-C5-C4-C3=  0.57            C6-C5-C4-H30=180.46           
N8-C5-C4-C3=180.58            N8-C5-C4-H30=  0.47           C7-C6-C5-C4=359.58            C7-C6-C5-N8=179.57            
H31-C6-C5-C4=180.81           H31-C6-C5-N8=  0.81           C6-C7-C2-C1=179.72            C6-C7-C2-C3=  0.37            
H32-C7-C2-C1=359.30           H32-C7-C2-C3=179.95           C2-C7-C6-C5=359.95            C2-C7-C6-H31=178.70           
H32-C7-C6-C5=180.37           H32-C7-C6-H31=359.13          C9-N8-C5-C4=236.68            C9-N8-C5-C6= 56.69            
C13-N8-C5-C4= 54.06           C13-N8-C5-C6=234.07           N10-C9-N8-C5=354.94           N10-C9-N8-C13=177.18          
C11-C9-N8-C5=177.68           C11-C9-N8-C13=359.92          H33-N10-C9-N8= 21.94          H33-N10-C9-C11=198.47         
H34-N10-C9-N8=166.86          H34-N10-C9-C11=343.40         
           -------------------------------------------------
          |                Final Singlepoint                |
           -------------------------------------------------

          ...................................................
          :                      SETUP                      :
          :.................................................:
          :  # basis functions                 120          :
          :  # atomic orbitals                 120          :
          :  # shells                           70          :
          :  # electrons                       122          :
          :  max. iterations                   250          :
          :  Hamiltonian                  GFN2-xTB          :
          :  restarted?                      false          :
          :  GBSA solvation                  false          :
          :  PC potential                    false          :
          :  electronic temp.          300.0000000     K    :
          :  accuracy                    1.0000000          :
          :  -> integral cutoff          0.2500000E+02      :
          :  -> integral neglect         0.1000000E-07      :
          :  -> SCF convergence          0.1000000E-05 Eh   :
          :  -> wf. convergence          0.1000000E-03 e    :
          :  Broyden damping             0.4000000          :
          :  net charge                          1          :
          :  unpaired electrons                  0          :
          ...................................................

 iter      E             dE          RMSdq      gap      omega  full diag
   1    -66.9202613 -0.669203E+02  0.293E-05    2.91       0.0  T
   2    -66.9202613 -0.909495E-11  0.189E-05    2.91     787.9  T
   3    -66.9202613 -0.932232E-11  0.109E-05    2.91    1365.6  T

   *** convergence criteria satisfied after 3 iterations ***

         #    Occupation            Energy/Eh            Energy/eV
      -------------------------------------------------------------
         1        2.0000           -0.8537029             -23.2304
       ...           ...                  ...                  ...
        55        2.0000           -0.5286968             -14.3866
        56        2.0000           -0.5271326             -14.3440
        57        2.0000           -0.5240113             -14.2591
        58        2.0000           -0.5239117             -14.2564
        59        2.0000           -0.5211119             -14.1802
        60        2.0000           -0.5078684             -13.8198
        61        2.0000           -0.4972340             -13.5304 (HOMO)
        62                         -0.3901116             -10.6155 (LUMO)
        63                         -0.3484841              -9.4827
        64                         -0.3460214              -9.4157
        65                         -0.3449093              -9.3855
        66                         -0.3426003              -9.3226
       ...                                ...                  ...
       120                          0.5630704              15.3219
      -------------------------------------------------------------
                  HL-Gap            0.1071223 Eh            2.9149 eV
             Fermi-level           -0.4436728 Eh          -12.0730 eV

 SCC (total)                   0 d,  0 h,  0 min,  0.020 sec
 SCC setup                      ...        0 min,  0.000 sec (  0.483%)
 Dispersion                     ...        0 min,  0.000 sec (  1.338%)
 classical contributions        ...        0 min,  0.000 sec (  0.187%)
 integral evaluation            ...        0 min,  0.002 sec ( 10.569%)
 iterations                     ...        0 min,  0.006 sec ( 30.591%)
 molecular gradient             ...        0 min,  0.011 sec ( 55.786%)
 printout                       ...        0 min,  0.000 sec (  0.958%)

         :::::::::::::::::::::::::::::::::::::::::::::::::::::
         ::                     SUMMARY                     ::
         :::::::::::::::::::::::::::::::::::::::::::::::::::::
         :: total energy             -65.720429468082 Eh    ::
         :: gradient norm              0.000927093348 Eh/a0 ::
         :: HOMO-LUMO gap              2.914946735908 eV    ::
         ::.................................................::
         :: SCC energy               -66.919623004689 Eh    ::
         :: -> isotropic ES            0.066767189779 Eh    ::
         :: -> anisotropic ES         -0.007565922447 Eh    ::
         :: -> anisotropic XC          0.041807070806 Eh    ::
         :: -> dispersion             -0.054396389672 Eh    ::
         :: repulsion energy           1.199193536606 Eh    ::
         :: add. restraining           0.000000000000 Eh    ::
         :: total charge               1.000000000000 e     ::
         :::::::::::::::::::::::::::::::::::::::::::::::::::::

           -------------------------------------------------
          |                Property Printout                |
           -------------------------------------------------

    * Orbital Energies and Occupations

         #    Occupation            Energy/Eh            Energy/eV
      -------------------------------------------------------------
         1        2.0000           -0.8537029             -23.2304
       ...           ...                  ...                  ...
        49        2.0000           -0.5490259             -14.9398
        50        2.0000           -0.5473702             -14.8947
        51        2.0000           -0.5440867             -14.8054
        52        2.0000           -0.5404637             -14.7068
        53        2.0000           -0.5395124             -14.6809
        54        2.0000           -0.5357521             -14.5786
        55        2.0000           -0.5286968             -14.3866
        56        2.0000           -0.5271326             -14.3440
        57        2.0000           -0.5240113             -14.2591
        58        2.0000           -0.5239117             -14.2564
        59        2.0000           -0.5211119             -14.1802
        60        2.0000           -0.5078684             -13.8198
        61        2.0000           -0.4972340             -13.5304 (HOMO)
        62                         -0.3901116             -10.6155 (LUMO)
        63                         -0.3484841              -9.4827
        64                         -0.3460214              -9.4157
        65                         -0.3449093              -9.3855
        66                         -0.3426003              -9.3226
        67                         -0.3383897              -9.2081
        68                         -0.3140894              -8.5468
        69                         -0.3081284              -8.3846
        70                         -0.2153880              -5.8610
        71                         -0.2132131              -5.8018
        72                         -0.2083258              -5.6688
       ...                                ...                  ...
       120                          0.5630704              15.3219
      -------------------------------------------------------------
                  HL-Gap            0.1071223 Eh            2.9149 eV
             Fermi-level           -0.4436728 Eh          -12.0730 eV

     #   Z          covCN         q      C6AA      α(0)
     1   6 C        3.759    -0.121    22.871     6.818
     2   6 C        2.965     0.034    27.237     8.560
     3   6 C        2.927    -0.033    28.817     8.804
     4   6 C        2.918    -0.039    28.965     8.825
     5   6 C        2.917     0.043    27.039     8.527
     6   6 C        2.918    -0.044    29.092     8.845
     7   6 C        2.926    -0.034    28.851     8.809
     8   7 N        2.869    -0.010    21.447     6.878
     9   6 C        2.989     0.120    25.350     8.259
    10   7 N        2.635    -0.259    26.721     7.677
    11   6 C        3.033    -0.058    29.400     8.894
    12   7 N        2.861     0.028    20.747     6.765
    13   6 C        3.073     0.097    25.783     8.325
    14   6 C        2.973    -0.001    28.050     8.687
    15   6 C        2.923    -0.028    28.705     8.786
    16   6 C        2.919    -0.020    28.516     8.757
    17   6 C        2.920    -0.016    28.411     8.741
    18   6 C        2.919    -0.020    28.510     8.756
    19   6 C        2.923    -0.028    28.708     8.787
    20   6 C        2.919     0.052    26.834     8.495
    21   6 C        2.920    -0.035    28.866     8.811
    22   6 C        2.921    -0.019    28.481     8.752
    23   6 C        2.919    -0.019    28.475     8.751
    24   6 C        2.921    -0.019    28.490     8.753
    25   6 C        2.921    -0.036    28.899     8.816
    26   1 H        0.925     0.065     2.138     2.287
    27   1 H        0.925     0.070     2.082     2.256
    28   1 H        0.925     0.061     2.186     2.312
    29   1 H        0.926     0.061     2.193     2.316
    30   1 H        0.926     0.045     2.378     2.411
    31   1 H        0.926     0.055     2.255     2.348
    32   1 H        0.926     0.061     2.188     2.313
    33   1 H        0.860     0.198     1.114     1.653
    34   1 H        0.860     0.199     1.109     1.650
    35   1 H        0.927     0.083     1.953     2.185
    36   1 H        0.926     0.044     2.401     2.423
    37   1 H        0.926     0.060     2.203     2.321
    38   1 H        0.926     0.063     2.161     2.299
    39   1 H        0.926     0.060     2.197     2.318
    40   1 H        0.926     0.042     2.421     2.433
    41   1 H        0.926     0.048     2.339     2.392
    42   1 H        0.926     0.064     2.157     2.297
    43   1 H        0.926     0.066     2.126     2.280
    44   1 H        0.926     0.065     2.141     2.288
    45   1 H        0.926     0.054     2.271     2.357

 Mol. C6AA /au·bohr⁶  :      25381.652521
 Mol. C8AA /au·bohr⁸  :     627639.577238
 Mol. α(0) /au        :        256.016011


Wiberg/Mayer (AO) data.
largest (>0.10) Wiberg bond orders for each atom

 ---------------------------------------------------------------------------
     #   Z sym  total        # sym  WBO       # sym  WBO       # sym  WBO
 ---------------------------------------------------------------------------
     1   6 C    3.991 --     2 C    1.037    28 H    0.982    26 H    0.971
                            27 H    0.958
     2   6 C    3.984 --     7 C    1.406     3 C    1.394     1 C    1.037
     3   6 C    3.989 --     4 C    1.460     2 C    1.394    29 H    0.967
                             6 C    0.105
     4   6 C    3.989 --     3 C    1.460     5 C    1.383    30 H    0.967
                             7 C    0.104
     5   6 C    3.938 --     6 C    1.392     4 C    1.383     8 N    0.978
     6   6 C    3.987 --     7 C    1.446     5 C    1.392    31 H    0.966
                             3 C    0.105
     7   6 C    3.989 --     6 C    1.446     2 C    1.406    32 H    0.966
                             4 C    0.104
     8   7 N    3.638 --    13 C    1.245     9 C    1.148     5 C    0.978
     9   6 C    3.954 --    11 C    1.465    10 N    1.202     8 N    1.148
    10   7 N    3.282 --     9 C    1.202    34 H    0.941    33 H    0.934
                            11 C    0.104
    11   6 C    3.912 --     9 C    1.465    12 N    1.168    35 H    0.965
                            13 C    0.105    10 N    0.104
    12   7 N    3.686 --    13 C    1.318    11 C    1.168    20 C    0.987
    13   6 C    3.940 --    12 N    1.318     8 N    1.245    14 C    1.058
                            11 C    0.105
    14   6 C    3.979 --    15 C    1.374    19 C    1.371    13 C    1.058
                            17 C    0.102
    15   6 C    3.987 --    16 C    1.453    14 C    1.374    36 H    0.968
                            18 C    0.106
    16   6 C    3.989 --    15 C    1.453    17 C    1.433    37 H    0.968
                            19 C    0.106
    17   6 C    3.977 --    16 C    1.433    18 C    1.431    38 H    0.969
                            14 C    0.102
    18   6 C    3.989 --    19 C    1.455    17 C    1.431    39 H    0.968
                            15 C    0.106
    19   6 C    3.988 --    18 C    1.455    14 C    1.371    40 H    0.969
                            16 C    0.106
    20   6 C    3.941 --    25 C    1.394    21 C    1.389    12 N    0.987
                            23 C    0.104
    21   6 C    3.989 --    22 C    1.447    20 C    1.389    41 H    0.967
                            24 C    0.110
    22   6 C    3.989 --    21 C    1.447    23 C    1.435    42 H    0.968
                            25 C    0.109
    23   6 C    3.984 --    24 C    1.439    22 C    1.435    43 H    0.968
                            20 C    0.104
    24   6 C    3.988 --    25 C    1.442    23 C    1.439    44 H    0.968
                            21 C    0.110
    25   6 C    3.986 --    24 C    1.442    20 C    1.394    45 H    0.967
                            22 C    0.109
    26   1 H    0.995 --     1 C    0.971
    27   1 H    0.994 --     1 C    0.958
    28   1 H    0.996 --     1 C    0.982
    29   1 H    0.996 --     3 C    0.967
    30   1 H    0.998 --     4 C    0.967
    31   1 H    0.997 --     6 C    0.966
    32   1 H    0.995 --     7 C    0.966
    33   1 H    0.960 --    10 N    0.934
    34   1 H    0.960 --    10 N    0.941
    35   1 H    0.992 --    11 C    0.965
    36   1 H    0.998 --    15 C    0.968
    37   1 H    0.996 --    16 C    0.968
    38   1 H    0.996 --    17 C    0.969
    39   1 H    0.996 --    18 C    0.968
    40   1 H    0.998 --    19 C    0.969
    41   1 H    0.998 --    21 C    0.967
    42   1 H    0.995 --    22 C    0.968
    43   1 H    0.996 --    23 C    0.968
    44   1 H    0.995 --    24 C    0.968
    45   1 H    0.997 --    25 C    0.967
 ---------------------------------------------------------------------------

Topologies differ in total number of bonds
Writing topology from bond orders to xtbtopo.mol

molecular dipole:
                 x           y           z       tot (Debye)
 q only:       -6.745      -0.917       1.004
   full:       -6.781      -0.973       0.759      17.519
molecular quadrupole (traceless):
                xx          xy          yy          xz          yz          zz
 q only:       70.336      18.257     -43.424     -17.276     -16.700     -26.912
  q+dip:       70.591      21.451     -43.413     -12.013     -15.983     -27.178
   full:       69.169      18.708     -43.417     -13.532     -15.273     -25.751

           -------------------------------------------------
          |                Geometry Summary                 |
           -------------------------------------------------

      molecular mass/u    :      326.4151144
   center of mass at/Å    :       -3.5214793      -0.7134122       1.0774009
  moments of inertia/u·Å² :        0.1221340E+04   0.3232960E+04   0.4144096E+04
rotational constants/cm⁻¹ :        0.1380257E-01   0.5214303E-02   0.4067867E-02

 * 46 selected distances

     #   Z          #   Z                                           value/Å
     2   6 C        3   6 C                                       1.3932299
     3   6 C        4   6 C                                       1.3806047
     4   6 C        5   6 C                                       1.3894660
     5   6 C        6   6 C                                       1.3887479
     2   6 C        7   6 C                                       1.3904812
     6   6 C        7   6 C                                       1.3830410
     5   6 C        8   7 N                                       1.4222303 (max)
     8   7 N        9   6 C                                       1.3772881
     9   6 C       10   7 N                                       1.3561455
     9   6 C       11   6 C                                       1.3708937
    11   6 C       12   7 N                                       1.3728713
     8   7 N       13   6 C                                       1.3542633
    12   7 N       13   6 C                                       1.3360271
    14   6 C       15   6 C                                       1.3954837
    15   6 C       16   6 C                                       1.3819049
    16   6 C       17   6 C                                       1.3856841
    17   6 C       18   6 C                                       1.3859710
    14   6 C       19   6 C                                       1.3962039
    18   6 C       19   6 C                                       1.3814472
    12   7 N       20   6 C                                       1.4189153
    20   6 C       21   6 C                                       1.3892104
    21   6 C       22   6 C                                       1.3830592
    22   6 C       23   6 C                                       1.3857765
    23   6 C       24   6 C                                       1.3851115
    20   6 C       25   6 C                                       1.3885774
    24   6 C       25   6 C                                       1.3838442
     1   6 C       26   1 H                                       1.0876335
     1   6 C       27   1 H                                       1.0898321
     1   6 C       28   1 H                                       1.0862216
     3   6 C       29   1 H                                       1.0790511
     4   6 C       30   1 H                                       1.0792893
     6   6 C       31   1 H                                       1.0796573
     7   6 C       32   1 H                                       1.0791217
    10   7 N       33   1 H                                       1.0074041
    10   7 N       34   1 H                                       1.0058557 (min)
    11   6 C       35   1 H                                       1.0686637
    15   6 C       36   1 H                                       1.0792957
    16   6 C       37   1 H                                       1.0786041
    17   6 C       38   1 H                                       1.0785961
    18   6 C       39   1 H                                       1.0786096
    19   6 C       40   1 H                                       1.0795534
    21   6 C       41   1 H                                       1.0790087
    22   6 C       42   1 H                                       1.0784227
    23   6 C       43   1 H                                       1.0783974
    24   6 C       44   1 H                                       1.0784410
    25   6 C       45   1 H                                       1.0794339

 * 4 distinct bonds (by element types)

   Z      Z             #   av. dist./Å        max./Å        min./Å
   1 H    6 C          18     1.0798796     1.0898321     1.0686637
   6 C    6 C          19     1.3862494     1.3962039     1.3708937
   1 H    7 N           2     1.0066299     1.0074041     1.0058557
   6 C    7 N           7     1.3768201     1.4222303     1.3360271


optimized geometry written to: xtbopt.xyz


           -------------------------------------------------
          | TOTAL ENERGY              -65.720429468082 Eh   |
          | GRADIENT NORM               0.000927093348 Eh/α |
          | HOMO-LUMO GAP               2.914946735908 eV   |
           -------------------------------------------------

------------------------------------------------------------------------
 * finished run on 2024/12/20 at 06:59:10.560     
------------------------------------------------------------------------
 total:
 * wall-time:     0 d,  0 h,  0 min,  0.473 sec
 *  cpu-time:     0 d,  0 h,  0 min,  3.684 sec
 * ratio c/w:     7.788 speedup
 SCF:
 * wall-time:     0 d,  0 h,  0 min,  0.039 sec
 *  cpu-time:     0 d,  0 h,  0 min,  0.310 sec
 * ratio c/w:     7.954 speedup
 ANC optimizer:
 * wall-time:     0 d,  0 h,  0 min,  0.415 sec
 *  cpu-time:     0 d,  0 h,  0 min,  3.237 sec
 * ratio c/w:     7.798 speedup

