20
 energy: -30.728992776957 gnorm: 0.000340432507 xtb: 6.7.1 (edcfbbe)
O            1.27676365696027       -0.17497450158992        0.84708097344617
C            0.65305072453186       -1.43242823059698        0.79400308973397
C            1.11695924754173       -2.11955021418501       -0.50075146530597
N            2.56127466482822       -2.26680035990175       -0.48946933049137
C            3.31862662821473       -1.21005006042925       -0.78209147171784
C            4.69954005728394       -1.29233313383300       -0.70141698211856
C            5.29745138967965       -2.47655145654918       -0.32791280501881
C            4.48974419498850       -3.58743537014506       -0.02687678873779
C            3.10751654695430       -3.43019744898785       -0.11434735443510
O            5.07750428861105       -4.72036670271653        0.32461468201978
H            0.90750592615728        0.34897296730670        1.56573706716220
H            0.93036892260678       -2.04450052155697        1.66450625839276
H           -0.43883625616324       -1.34392884232900        0.75834706720905
H            0.63900277646320       -3.09429371214290       -0.59537629884807
H            0.83376317938735       -1.48971208862526       -1.34608265103028
H            2.81352604645623       -0.29773396333558       -1.05642026006746
H            5.29611334821938       -0.42578887093344       -0.93594815502731
H            6.36849810135646       -2.58243940016082       -0.25884447506453
H            2.43549204255544       -4.24648726864361        0.11294379138713
H            4.46503451336684       -5.44594082064453        0.51023510851206
