24
 energy: -28.937173164279 gnorm: 0.036590056656 xtb: 6.7.1 (edcfbbe)
C            1.69020000000000        0.03831000000000       -0.18383000000000
C            0.56008000000000        0.16887000000000       -1.19326000000000
C            0.47143000000000       -1.00966000000000       -2.15787000000000
N            0.20391000000000       -2.27638000000000       -1.43263000000000
C            1.17224000000000       -3.21779000000000       -1.34544000000000
C            0.93716000000000       -4.41728000000000       -0.68636000000000
C           -0.30502000000000       -4.64418000000000       -0.10791000000000
C           -1.29595000000000       -3.66802000000000       -0.19297000000000
C           -1.01849000000000       -2.49206000000000       -0.88894000000000
C           -2.65334000000000       -3.90313000000000        0.40156000000000
H            1.52190000000000       -0.80220000000000        0.49633000000000
H            1.75756000000000        0.94685000000000        0.42325000000000
H            2.65201000000000       -0.10762000000000       -0.68496000000000
H           -0.38571000000000        0.29550000000000       -0.65473000000000
H            0.71451000000000        1.08377000000000       -1.77726000000000
H           -0.34949000000000       -0.87407000000000       -2.87132000000000
H            1.39749000000000       -1.12113000000000       -2.73229000000000
H            2.13261000000000       -3.00340000000000       -1.80599000000000
H            1.71715000000000       -5.17295000000000       -0.62325000000000
H           -0.49498000000000       -5.58503000000000        0.40910000000000
H           -1.76127000000000       -1.70878000000000       -1.01230000000000
H           -3.29275000000000       -4.42424000000000       -0.31722000000000
H           -2.57881000000000       -4.50437000000000        1.31384000000000
H           -3.12852000000000       -2.95534000000000        0.67594000000000
24
 energy: -28.939345725749 gnorm: 0.015404833553 xtb: 6.7.1 (edcfbbe)
C            1.69119998093230        0.02549157772237       -0.18455697410080
C            0.55230508643588        0.16143190817536       -1.18599150704340
C            0.45797649573792       -1.02304232851722       -2.14524491594455
N            0.20115577418210       -2.28670828967292       -1.43894344094573
C            1.16641585685793       -3.21135564066030       -1.34359940416915
C            0.93868334705851       -4.40440919455109       -0.68485803125893
C           -0.30011708255125       -4.63707122800595       -0.10819320620806
C           -1.29709311186840       -3.66628977558318       -0.19851252853413
C           -1.00551726518289       -2.49789951091346       -0.88934084583960
C           -2.64676625657067       -3.88800094854181        0.39999338927189
H            1.53167440486856       -0.81082393504319        0.49596342116128
H            1.76038799829019        0.93063775503109        0.41467688608958
H            2.64618299964473       -0.11246485788153       -0.68891115909621
H           -0.39313835866083        0.28714713580691       -0.65295377569396
H            0.70644938257055        1.06130073127094       -1.78652212941115
H           -0.35646980255225       -0.86837332703438       -2.85907064087152
H            1.38941236737526       -1.12939473851552       -2.70494767257733
H            2.12054740414540       -2.99071855942011       -1.80016239926704
H            1.72043945997677       -5.14798002596964       -0.62699098825383
H           -0.49130813753980       -5.56881038868943        0.40739828988200
H           -1.74297872769538       -1.71688180380574       -1.01133757608154
H           -3.28253453143550       -4.41319665587997       -0.31181675740163
H           -2.57330794311447       -4.50012662351722        1.29744422275944
H           -3.12967934090465       -2.94679127580400        0.65796774353439
24
 energy: -28.939704945073 gnorm: 0.004955474937 xtb: 6.7.1 (edcfbbe)
C            1.69207603383032        0.01434303709650       -0.18521993849655
C            0.54550242802837        0.15215026354163       -1.17815655160943
C            0.44865996980681       -1.03273980858378       -2.14296172282451
N            0.19999758095429       -2.28936404972059       -1.44473719510858
C            1.16552100163859       -3.20422774698275       -1.34309027399831
C            0.94163578008006       -4.39520665426471       -0.68224414097114
C           -0.29533790531645       -4.63141694374652       -0.10590032114948
C           -1.29766459399603       -3.66308112644907       -0.19938546665733
C           -0.99836750808792       -2.49914459935683       -0.89096160963627
C           -2.64360804418202       -3.87897042264005        0.39649601497455
H            1.53903479610640       -0.82500998655825        0.49011026607234
H            1.76298750738825        0.91570702570576        0.41534829399774
H            2.64010775774740       -0.11756957364779       -0.70011154485000
H           -0.39564581967312        0.27640653168086       -0.64032645044320
H            0.69766022127401        1.04577689316811       -1.78423368696747
H           -0.36507371833098       -0.86650306099743       -2.85319113147966
H            1.38240301820993       -1.12991186171996       -2.69831683131225
H            2.11734811430052       -2.98057148774900       -1.79847589484786
H            1.72883969255753       -5.12831228165207       -0.62054603737487
H           -0.48701255528196       -5.55765166115247        0.41207989863730
H           -1.73588270810739       -1.72017679691892       -1.01271144530114
H           -3.27775723926986       -4.40822591602836       -0.31388118012903
H           -2.57332896493122       -4.49200578194213        1.29041276415243
H           -3.12817484474550       -2.93862399108220        0.64149418532270
24
 energy: -28.939768149475 gnorm: 0.002300806903 xtb: 6.7.1 (edcfbbe)
C            1.69386861041937        0.00626158611460       -0.18740401614928
C            0.54239935326076        0.14918450664245       -1.17425465814802
C            0.44415299542273       -1.03397218449089       -2.14432817352140
N            0.19897979295317       -2.28899895047644       -1.44933199868356
C            1.16698018183392       -3.20071954637914       -1.34297795095769
C            0.94528450067695       -4.38998478914428       -0.67671750616615
C           -0.29178383576258       -4.62799711151063       -0.10213162716207
C           -1.29759068365022       -3.66205599657838       -0.19984300332609
C           -0.99844740221890       -2.49999678293789       -0.89467127916847
C           -2.64344187376392       -3.87624912628341        0.39393656036340
H            1.54567884249200       -0.83798596090601        0.48306456838039
H            1.76565778179490        0.90380939258906        0.41884044949817
H            2.63939390676541       -0.12049752337555       -0.70844240617110
H           -0.39634591460688        0.26836546748351       -0.63148481222240
H            0.69088330850624        1.04476061671780       -1.77748741990855
H           -0.37099894943447       -0.86320579075095       -2.85147552780476
H            1.37731095859563       -1.12436248880143       -2.70189857617677
H            2.11900287342907       -2.97663792069772       -1.79826139886035
H            1.73574876928466       -5.11938783228471       -0.61173638577524
H           -0.48316495372866       -5.55291448391968        0.41844458900557
H           -1.73806181181636       -1.72247409247061       -1.01686270537353
H           -3.27607270408060       -4.40934332482437       -0.31616630812568
H           -2.57611301319588       -4.48516203923094        1.29082396444536
H           -3.12940073317629       -2.93476562448440        0.63185562200820
24
 energy: -28.939826818309 gnorm: 0.002408156476 xtb: 6.7.1 (edcfbbe)
C            1.69823878080813       -0.00275736063760       -0.19121103104113
C            0.53943536528416        0.14540727388326       -1.16858170428238
C            0.43840495974392       -1.03367095351251       -2.14687023773286
N            0.19759848605054       -2.28793559274052       -1.45470947512304
C            1.16913618099463       -3.19640352813411       -1.34200355510899
C            0.94969209071668       -4.38355979443508       -0.66910553943176
C           -0.28754278808738       -4.62374157567848       -0.09678865605286
C           -1.29737708647045       -3.66148382986970       -0.20090234456048
C           -1.00032316902006       -2.50163351258951       -0.90054026133281
C           -2.64423994384120       -3.87413767602624        0.38981937729709
H            1.55847363710658       -0.85528579549441        0.47127457352297
H            1.77031828849135        0.88861679062671        0.42490360523093
H            2.64076973711207       -0.11998810229341       -0.72066887345905
H           -0.39593241803969        0.25560527745038       -0.61791964831756
H            0.68043268416759        1.04614630023300       -1.76562328737163
H           -0.38002594895362       -0.85833436807259       -2.84902720412628
H            1.36943222795342       -1.11666919159656       -2.70957699732662
H            2.12162271519724       -2.97231709951724       -1.79736473089874
H            1.74447639941498       -5.10852138884049       -0.59835710673513
H           -0.47770750256891       -5.54707960984447        0.42833808763714
H           -1.74353053851541       -1.72707463605830       -1.02551939249532
H           -3.27441651897142       -4.41303659675252       -0.31928701805982
H           -2.58079569918234       -4.47558114520007        1.29248817552443
H           -3.13221993939074       -2.93089388489955        0.61872324424385
24
 energy: -28.939868677458 gnorm: 0.003358900158 xtb: 6.7.1 (edcfbbe)
C            1.70416153476958       -0.00973310253240       -0.19548687719133
C            0.53792578295656        0.14212720592273       -1.16306442593229
C            0.43331550729504       -1.03200166337668       -2.14855034652585
N            0.19554708174738       -2.28706662615705       -1.45883834890683
C            1.17007288735402       -3.19230847775135       -1.34044367153622
C            0.95289730285320       -4.37733324803375       -0.66217948060109
C           -0.28439351935623       -4.61952336429343       -0.09136779581839
C           -1.29765805086109       -3.66142042267860       -0.20244788906918
C           -1.00339167851492       -2.50368175459997       -0.90668335238369
C           -2.64574674090427       -3.87377940033609        0.38564245579071
H            1.57369915205409       -0.87018453484764        0.45917509993099
H            1.77572180268772        0.87549444021527        0.42998088905670
H            2.64387552739960       -0.11632518060959       -0.73263209015906
H           -0.39404845466084        0.24369763611870       -0.60463510216355
H            0.67080315296712        1.04822287752732       -1.75403921502697
H           -0.38862328398214       -0.85308855898804       -2.84576436878979
H            1.36164875793180       -1.11109614788350       -2.71643975864536
H            2.12297331636669       -2.96751808717828       -1.79505652211835
H            1.75094835166264       -5.09864759688102       -0.58627119629362
H           -0.47258646803857       -5.54122381118858        0.43809482229641
H           -1.74972276975923       -1.73251222235169       -1.03607861206253
H           -3.27282401153863       -4.41911115185675       -0.32157900721488
H           -2.58432383745343       -4.46774673547278        1.29371751038545
H           -3.13635134297601       -2.92957007276690        0.60643728297865
24
 energy: -28.939916753651 gnorm: 0.003191632089 xtb: 6.7.1 (edcfbbe)
C            1.71285003930254       -0.01603942294314       -0.20102733471706
C            0.53752885063738        0.13856433792198       -1.15667256034942
C            0.42767187363750       -1.02908018409642       -2.14953358146765
N            0.19213505669991       -2.28619950704388       -1.46255145124230
C            1.16995083267626       -3.18725441734496       -1.33783468863959
C            0.95556599875261       -4.37000396284062       -0.65466209314977
C           -0.28189623056536       -4.61461885832660       -0.08527897303241
C           -1.29890756740067       -3.66180334983343       -0.20477978891438
C           -1.00823349803473       -2.50636893694916       -0.91405951656682
C           -2.64827576570990       -3.87527808721197        0.38076474257987
H            1.59424968451034       -0.88527055898888        0.44462183584818
H            1.78332076785773        0.86210813301173        0.43467575534097
H            2.64899998764880       -0.10932535199728       -0.74704084429239
H           -0.39010214075531        0.23092378673323       -0.58904034025094
H            0.66065795154610        1.05049407781551       -1.74112753088725
H           -0.39825129093418       -0.84639979569436       -2.84110923195754
H            1.35263676173680       -1.10640927222699       -2.72312229874130
H            2.12327765549275       -2.96070701689350       -1.79079414163199
H            1.75663445172772       -5.08753829016926       -0.57312162608546
H           -0.46693330501686       -5.53408369197521        0.44945997665644
H           -1.75776281400137       -1.73940028194999       -1.04980645864603
H           -3.27098812573684       -4.42900318855342       -0.32354358938882
H           -2.58725713442908       -4.46071364320435        1.29457584919156
H           -3.14295203964202       -2.93092251723905        0.59249789034401
24
 energy: -28.939983006601 gnorm: 0.002307357038 xtb: 6.7.1 (edcfbbe)
C            1.72773896521233       -0.02426674766722       -0.21007519981628
C            0.53827686357905        0.13370409656818       -1.14730898469984
C            0.41908408449938       -1.02409804251485       -2.14984033194545
N            0.18553837369773       -2.28483850493498       -1.46711011700653
C            1.16841985268248       -3.17881786452745       -1.33309765440816
C            0.95869928096822       -4.35844298254308       -0.64361325209784
C           -0.27920401448354       -4.60694359284233       -0.07636952365584
C           -1.30209538846934       -3.66264388355797       -0.20859439871264
C           -1.01679294623729       -2.51038924503088       -0.92491273502360
C           -2.65284957602508       -3.87989730572753        0.37350730684429
H            1.62732654035123       -0.90572806476330        0.42236253339519
H            1.79702469990130        0.84352293114388        0.43987779904937
H            2.65777696004026       -0.09778413353919       -0.76964446812154
H           -0.38211707646738        0.21415136538582       -0.56565535008495
H            0.64759350398084        1.05315970859524       -1.72310094993445
H           -0.41223039262995       -0.83547795807216       -2.83331351816525
H            1.33914862338133       -1.10092378067679       -2.73120334312070
H            2.12232036488819       -2.94833884853496       -1.78272910066305
H            1.76380532615077       -5.07042483543962       -0.55380161706383
H           -0.45892607647037       -5.52287926332529        0.46604586716833
H           -1.77070359046634       -1.74976508301968       -1.07065170214909
H           -3.26790057838120       -4.44759810067200       -0.32595873475838
H           -2.59048328714494       -4.45290451247284        1.29516378681156
H           -3.15553051255751       -2.93670535183104        0.57151368815856
24
 energy: -28.940051100212 gnorm: 0.001756839898 xtb: 6.7.1 (edcfbbe)
C            1.74863063664643       -0.03455808977122       -0.22280369689168
C            0.54067600422960        0.12824525775445       -1.13566368181207
C            0.40725803701316       -1.01740971633738       -2.14924718981988
N            0.17548836527230       -2.28243129880965       -1.47189793490123
C            1.16536497711152       -3.16641532119489       -1.32595778457373
C            0.96229795273807       -4.34232449379868       -0.62886134903108
C           -0.27642463379687       -4.59647707819507       -0.06512920152198
C           -1.30752787603150       -3.66387177150408       -0.21344001000995
C           -1.02893381801773       -2.51518549284406       -0.93791307421075
C           -2.65945437226115       -3.88863340691664        0.36393905387000
H            1.67058581247421       -0.93030087383132        0.39286094110478
H            1.81855525193814        0.82010860017303        0.44422506979353
H            2.66950580337931       -0.08455667559909       -0.80007415674026
H           -0.36935697891608        0.19593445923153       -0.53572253696267
H            0.63409549751800        1.05585967137659       -1.70130061160606
H           -0.43047115660147       -0.82034366091547       -2.82234255980252
H            1.32107899678688       -1.09451201043836       -2.74026985138849
H            2.11978936667672       -2.92976018494310       -1.77102404591712
H            1.77268133013049       -5.04671355356997       -0.52813933320798
H           -0.44911477166160       -5.50787185673702        0.48673906418441
H           -1.78840370936818       -1.76279340579564       -1.09611320195013
H           -3.26300547807002       -4.47605995908688       -0.32915553214909
H           -2.59431222614507       -4.44561980958524        1.29525245692536
H           -3.17508301104489       -2.94863932866193        0.54352916661845
24
 energy: -28.940117480496 gnorm: 0.002095812466 xtb: 6.7.1 (edcfbbe)
C            1.78089039806968       -0.04988954244336       -0.24316997442571
C            0.54680158723830        0.12211405436353       -1.11975486728420
C            0.38849934965752       -1.00733338728815       -2.14703578754836
N            0.15905064963563       -2.27725243910223       -1.47671950215512
C            1.15971617121570       -3.14572197982097       -1.31373607586683
C            0.96717489939371       -4.31660496935350       -0.60593961842884
C           -0.27297299206719       -4.58040334520398       -0.04896895459708
C           -1.31685389864269       -3.66598086341350       -0.21984283917996
C           -1.04775282990028       -2.52136655749395       -0.95426989788510
C           -2.66989286597135       -3.90578487844524        0.34919274689230
H            1.73119308716967       -0.96311583663877        0.34884221524695
H            1.85712210892448        0.78631238715528        0.44592570013781
H            2.68632587056492       -0.07111545379330       -0.84560728578972
H           -0.34667396652339        0.17559581735254       -0.49363150588430
H            0.62107002902087        1.05933878830070       -1.67177206848979
H           -0.45854970482301       -0.79686305040640       -2.80407662321239
H            1.29249719485454       -1.08541392380861       -2.75297487706217
H            2.11436173712207       -2.89901531323220       -1.75257681723040
H            1.78570842943088       -5.00885684396862       -0.48899800895106
H           -0.43586245964999       -5.48569120391078        0.51521510305461
H           -1.81536634957592       -1.78104408818244       -1.12885301830105
H           -3.25355732819624       -4.52412873396956       -0.33467532816423
H           -2.60074550026381       -4.43883180831428        1.29427014351926
H           -3.20826361668374       -2.97327682838232        0.50064714160519
24
 energy: -28.940142776267 gnorm: 0.001502825556 xtb: 6.7.1 (edcfbbe)
C            1.78992785437129       -0.05360903305504       -0.24972503523230
C            0.55043575334533        0.12239032769663       -1.11679352851084
C            0.38273107072771       -1.00457929518609       -2.14514647682888
N            0.15422576207098       -2.27452542581360       -1.47545634451045
C            1.15762416115197       -3.13888435017108       -1.30898104303839
C            0.96798717048365       -4.30891378613664       -0.59913813729238
C           -0.27261959675424       -4.57641584253609       -0.04525153798146
C           -1.31979104994532       -3.66705271107326       -0.22062793529049
C           -1.05270716944081       -2.52224649252959       -0.95539328474269
C           -2.67301348654169       -3.91339423954034        0.34452537204998
H            1.74349096064162       -0.96847777811149        0.33773492433392
H            1.87217953813057        0.77911604536306        0.44197017207649
H            2.69018194034535       -0.07246551448818       -0.85799866228320
H           -0.33807430554576        0.17571966615636       -0.48489725186044
H            0.62307699886667        1.06033214744954       -1.66665216008288
H           -0.46720021344324       -0.79045158282754       -2.79679353716466
H            1.28310910996758       -1.08331356758643       -2.75627396141579
H            2.11185326660192       -2.88933085559002       -1.74691806068218
H            1.78883149215280       -4.99734834809016       -0.47833449320880
H           -0.43376567619893       -5.48087741032787        0.52039777373797
H           -1.82229771707270       -1.78485356263158       -1.13223439237074
H           -3.24916019344825       -4.53971148699814       -0.33757809549290
H           -2.60408577963171       -4.44050123246986        1.29245811507204
H           -3.21901989083436       -2.98493567150274        0.48859758071885
24
 energy: -28.940180154912 gnorm: 0.001394947819 xtb: 6.7.1 (edcfbbe)
C            1.80722040000395       -0.06021558471394       -0.26250363815628
C            0.55708658303024        0.12476312652780       -1.11158246338190
C            0.37149831367709       -0.99949015551695       -2.14062235055896
N            0.14577710377944       -2.26866114428033       -1.47102709727426
C            1.15401960274454       -3.12616320282606       -1.29872481360961
C            0.96941604505721       -4.29529009103752       -0.58599593211566
C           -0.27209358558783       -4.57021839944493       -0.03856425032630
C           -1.32514183165155       -3.66937256459510       -0.22125502251750
C           -1.06124318551478       -2.52305241959914       -0.95488795115081
C           -2.67921630800975       -3.92829740503855        0.33491816417265
H            1.76751892937477       -0.97915847207425        0.31836907330124
H            1.90135549884678        0.76742682276708        0.43344565550461
H            2.69798448665878       -0.07508502762990       -0.88468755400934
H           -0.32247892888743        0.17925071181300       -0.46847393170085
H            0.62729114256626        1.06330770728952       -1.65991945368906
H           -0.48476576248212       -0.77906640225647       -2.78108919016436
H            1.26427576906285       -1.07965233010810       -2.76273986684323
H            2.10753852319884       -2.87176715349588       -1.73517470713531
H            1.79463282584405       -4.97674147183475       -0.45896183987296
H           -0.43132005035034       -5.47459588221945        0.52742707886423
H           -1.83419591397225       -1.78996749871212       -1.13358943125954
H           -3.23852559944809       -4.57215207503532       -0.34460580676459
H           -2.61145109069812       -4.44286811021281        1.28959210986920
H           -3.24126296724205       -3.00726297776602        0.46214321881837
24
 energy: -28.940207414047 gnorm: 0.001343655249 xtb: 6.7.1 (edcfbbe)
C            1.81878287637148       -0.06141386128477       -0.27067890191849
C            0.56228517721529        0.12801186936657       -1.10942506085875
C            0.36373336495950       -0.99619995092704       -2.13701275714138
N            0.14080269926866       -2.26464110185760       -1.46592327603787
C            1.15171637764716       -3.11909866169565       -1.29167701890284
C            0.96990180447822       -4.28878432810650       -0.57886883107430
C           -0.27225996076470       -4.56912825603749       -0.03597024136198
C           -1.32820755748087       -3.67179815088021       -0.22090810422248
C           -1.06623617002365       -2.52289168433902       -0.95143492199097
C           -2.68351896916081       -3.93876632311020        0.32822621379940
H            1.77932737587723       -0.97958379088852        0.31111265634776
H            1.92263768583075        0.76595214202793        0.42440093111815
H            2.70455114974819       -0.08117197040147       -0.89925186515948
H           -0.31229173131309        0.18686844920201       -0.45943627264136
H            0.63236113538338        1.06581063074287       -1.65962419059394
H           -0.49770890942166       -0.77296107143288       -2.76958002982006
H            1.25074070807226       -1.07834464732792       -2.76717922087526
H            2.10515391182546       -2.86192169205408       -1.72692833898983
H            1.79798604418867       -4.96646916282620       -0.44912026017034
H           -0.43040684446644       -5.47487577219504        0.52879113572066
H           -1.84125757298391       -1.79143043182096       -1.12978624419151
H           -3.23084050535128       -4.59494026291223       -0.34965192265430
H           -2.61750047351930       -4.44416859066234        1.28827446345504
H           -3.25583161637998       -3.02238338057947        0.44314205816386
24
 energy: -28.940235778277 gnorm: 0.000779337740 xtb: 6.7.1 (edcfbbe)
C            1.82869403218494       -0.05956555346948       -0.27754925184875
C            0.56841048770520        0.13335501239961       -1.10911747144274
C            0.35741886086793       -0.99330762254408       -2.13170853764060
N            0.13721955988619       -2.26072467067644       -1.45785234136739
C            1.14970094491295       -3.11361339138776       -1.28396345060789
C            0.96957193831725       -4.28514950025533       -0.57365924310607
C           -0.27321818396608       -4.57112161100221       -0.03546787229788
C           -1.33080367972194       -3.67527145822072       -0.21988062270949
C           -1.06985686981083       -2.52245309109314       -0.94466623745272
C           -2.68764807677015       -3.94940848149303        0.32194401414001
H            1.78654987375838       -0.97366826195716        0.31188499417105
H            1.94298318895744        0.77239235141482        0.41045211606415
H            2.71048602688601       -0.09006075373646       -0.91277770878771
H           -0.30214926664614        0.19976202847181       -0.45414816073976
H            0.63989799159276        1.06878578129147       -1.66394755808706
H           -0.50945397485166       -0.76894765255236       -2.75634426118268
H            1.23804574740168       -1.07832799648727       -2.77033031252536
H            2.10298971281883       -2.85442397037203       -1.71842599889365
H            1.79929679060140       -4.96089685332439       -0.44448889524153
H           -0.43124896475507       -5.48016761670865        0.52419919063232
H           -1.84591083258987       -1.79121292426923       -1.12032330119485
H           -3.22320951305963       -4.61719523007197       -0.35364704563319
H           -2.62477593414605       -4.44546530126404        1.28716924773070
H           -3.26906985957299       -3.03764323269220        0.42413870802081
24
 energy: -28.940260179185 gnorm: 0.001228553718 xtb: 6.7.1 (edcfbbe)
C            1.84247191384170       -0.05577963998634       -0.28627228220688
C            0.57625734351431        0.13982994971497       -1.10836143155923
C            0.34897540091026       -0.98944073707235       -2.12457211127150
N            0.13220444049124       -2.25591536372444       -1.44745484536033
C            1.14681957332239       -3.10638555978971       -1.27409427793096
C            0.96855319114596       -4.28119732231711       -0.56869199752643
C           -0.27508928853704       -4.57435890054555       -0.03645142624902
C           -1.33456522143071       -3.68024879320515       -0.21924624315855
C           -1.07496852892851       -2.52258282928488       -0.93669361703303
C           -2.69301591689737       -3.96311134998133        0.31429295105828
H            1.79473679154551       -0.96055728418965        0.31704520656968
H            1.97262954722451        0.78455219910173        0.38927845574248
H            2.71883274996141       -0.10601169912326       -0.92771743644223
H           -0.28871867918282        0.21614646774345       -0.44659263180849
H            0.64914473668552        1.07158310948910       -1.66942684574642
H           -0.52482172503816       -0.76327618338798       -2.73897674187161
H            1.22129544713773       -1.07918184347599       -2.77398924659315
H            2.10020058980250       -2.84362107365593       -1.70626318992147
H            1.80051476058269       -4.95464785791811       -0.43977368581235
H           -0.43224251644655       -5.48749128200125        0.51687567381867
H           -1.85235499161589       -1.79217110805806       -1.10979921198195
H           -3.21284841126203       -4.64954496719494       -0.35620042939844
H           -2.63249192385198       -4.44401082105866        1.28786813829567
H           -3.28759928297406       -3.05690711007884        0.39670722638699
24
 energy: -28.940271614409 gnorm: 0.000998748859 xtb: 6.7.1 (edcfbbe)
C            1.85450263417672       -0.05316254947888       -0.29365211462717
C            0.58223587826377        0.14415297306284       -1.10667734926806
C            0.34207801386725       -0.98606113330171       -2.11879555352807
N            0.12769045082966       -2.25229349772493       -1.44003236802207
C            1.14468811712101       -3.09989692249996       -1.26543891090133
C            0.96811465621596       -4.27732849934573       -0.56379749061123
C           -0.27684352101858       -4.57675460690259       -0.03786232703296
C           -1.33848358206984       -3.68479027189207       -0.22061192980158
C           -1.07991211104788       -2.52343230330839       -0.93251725970566