27
 energy: -28.848025114551 gnorm: 0.049797060234 xtb: 6.7.1 (edcfbbe)
C            1.07661000000000       -0.23537000000000       -0.08434000000000
C            0.41958000000000       -0.94220000000000        1.09088000000000
N            0.92278000000000       -0.46384000000000        2.48103000000000
C            2.42356000000000       -0.73929000000000        2.59838000000000
C            0.61448000000000        1.02935000000000        2.66313000000000
C            0.85719000000000        1.49679000000000        4.09316000000000
C            0.07745000000000        0.67083000000000        5.10348000000000
C            0.38035000000000       -0.81113000000000        4.95112000000000
C            0.14602000000000       -1.29519000000000        3.52601000000000
H            0.88587000000000        0.84095000000000       -0.07871000000000
H            0.66325000000000       -0.62887000000000       -1.01948000000000
H            2.15629000000000       -0.40219000000000       -0.11774000000000
H           -0.66382000000000       -0.77673000000000        1.06708000000000
H            0.60846000000000       -2.02076000000000        1.03740000000000
H            2.60207000000000       -1.78841000000000        2.34562000000000
H            2.95833000000000       -0.07796000000000        1.91233000000000
H            2.75518000000000       -0.53959000000000        3.61854000000000
H           -0.43552000000000        1.17768000000000        2.38483000000000
H            1.25024000000000        1.59260000000000        1.97283000000000
H            0.55960000000000        2.54834000000000        4.18084000000000
H            1.92667000000000        1.46086000000000        4.33005000000000
H            0.32259000000000        0.99786000000000        6.12017000000000
H           -0.99726000000000        0.84143000000000        4.96446000000000
H            1.40971000000000       -1.01566000000000        5.26493000000000
H           -0.26245000000000       -1.38163000000000        5.63196000000000
H            0.45275000000000       -2.34095000000000        3.41005000000000
H           -0.91842000000000       -1.21062000000000        3.27542000000000
27
 energy: -28.853396356928 gnorm: 0.025698586969 xtb: 6.7.1 (edcfbbe)
C            1.08234013378015       -0.23071955642222       -0.07462649509773
C            0.43446920127080       -0.92397693211094        1.10855344468196
N            0.91716540275543       -0.46746917467537        2.47995243851066
C            2.38601566612817       -0.73128696727729        2.59792490696258
C            0.62053331722602        1.00049340559396        2.67060676907288
C            0.86777356943968        1.48529359965691        4.09197994947145
C            0.07020833361447        0.67029836236565        5.10052575307638
C            0.39400689143073       -0.80954521612138        4.94691260473283
C            0.15964961917690       -1.27369444999446        3.51752117339550
H            0.88807451592369        0.83940661645450       -0.08193783365805
H            0.65349462334469       -0.64086487864980       -0.98869241779179
H            2.15517965122340       -0.40302720815954       -0.11969429625609
H           -0.64482406734348       -0.76028066596444        1.08404807049599
H            0.62028727142901       -1.99885604740407        1.05602057955640
H            2.58203506509163       -1.77124032182329        2.34656086018520
H            2.92982656908754       -0.07903213745064        1.91962861393132
H            2.71871753320775       -0.53791149843865        3.61317863698003
H           -0.42741088222091        1.14987006354777        2.40069121895828
H            1.24735180552072        1.56077150776286        1.97592207871107
H            0.56660128201020        2.53418126745938        4.15028570937092
H            1.93363671549172        1.44965546503070        4.32923365077511
H            0.31192069255347        0.99725076398370        6.11280339539864
H           -1.00037696388675        0.83603762592348        4.95080447573792
H            1.42105095735626       -1.01129476191380        5.25957682753060
H           -0.25416593308342       -1.39536924148395        5.60342088275812
H            0.45937717453534       -2.31669344649315        3.39943959614869
H           -0.90137814506320       -1.18569617339594        3.27278940636113
27
 energy: -28.854652903644 gnorm: 0.004263612849 xtb: 6.7.1 (edcfbbe)
C            1.08537848582281       -0.22833078028948       -0.05766364029067
C            0.44142815942958       -0.91229361105098        1.13474771712208
N            0.91970335234225       -0.46542362450708        2.48258523229615
C            2.36171293826078       -0.72392427431302        2.60121657905717
C            0.62372537099269        0.98217572441874        2.66869630651758
C            0.87526752548347        1.47839234980823        4.08667554575782
C            0.07106964571352        0.66882252230218        5.09675436284995
C            0.40280825717149       -0.81024291201047        4.93457264194022
C            0.16953498571273       -1.26208001281368        3.49924588245886
H            0.89277191537610        0.83945318183439       -0.07892180473500
H            0.64330980553605       -0.65199748129448       -0.95624088717075
H            2.15449714735502       -0.40434538348490       -0.11427910029001
H           -0.63682053254929       -0.74847948860304        1.09867983042645
H            0.62234226999372       -1.98675366243494        1.07289337542710
H            2.57350952833642       -1.76052430917054        2.35133514133348
H            2.91553932738602       -0.07746437452566        1.92740800591464
H            2.69941393864179       -0.53463830453400        3.61415349026648
H           -0.42698531054493        1.13564120108433        2.41540705511368
H            1.23808816343097        1.54860532797556        1.96945202461177
H            0.57516980350740        2.52601429590521        4.12583522348648
H            1.93694503653239        1.43913348787398        4.32988552472814
H            0.30498751043008        0.99567208997025        6.10808644468274
H           -0.99564759760662        0.82884454817964        4.93456462237858
H            1.42797032633668       -1.00430330938832        5.24961035071974
H           -0.24557304463687       -1.40982263149412        5.57456284745828
H            0.45455926239978       -2.30900719602130        3.38470530095881
H           -0.89314627085403       -1.16682337341651        3.26946192698024
27
 energy: -28.854697058992 gnorm: 0.001534940662 xtb: 6.7.1 (edcfbbe)
C            1.08636793070765       -0.22999257927482       -0.06180219345711
C            0.44169308933013       -0.91260847566084        1.13285937906187
N            0.91840048575297       -0.46603053124428        2.48170354579563
C            2.36304774290502       -0.72249493086551        2.60250775974956
C            0.62161716262222        0.98210332572839        2.66947997861608
C            0.87655847038860        1.47876893225827        4.08770974457419
C            0.07149316093032        0.66793762210240        5.09634716868806
C            0.40344003766301       -0.81138108286275        4.93695812432615
C            0.16780868575979       -1.26095148379673        3.50016361611139
H            0.89561957893491        0.83861936476536       -0.08278787902615
H            0.64353987901121       -0.65370143643079       -0.96012313256975
H            2.15589884080803       -0.40698009633145       -0.11687848842792
H           -0.63683018448987       -0.74656590898795        1.09511943842611
H            0.62002530085138       -1.98817395890685        1.06907566611382
H            2.57644719168470       -1.76010111020681        2.35310973564303
H            2.91820441056032       -0.07469590731394        1.92917303448969
H            2.70095338521873       -0.53288151410952        3.61648707866327
H           -0.43087959148890        1.13554921714090        2.42094433051685
H            1.23233609240251        1.55079942124568        1.96809247669525
H            0.57914732739463        2.52694469869899        4.12803247034360
H            1.93855778361101        1.43699385881001        4.33060047078821
H            0.30374543364444        0.99499289889689        6.10813233319434
H           -0.99542677152372        0.82774917459392        4.93248535358431
H            1.42980755575216       -1.00407981997668        5.24992745418323
H           -0.24262596134778       -1.41161155048709        5.57828677839316
H            0.44863644053128       -2.30944519560581        3.38421671669390
H           -0.89602347761473       -1.16246293217902        3.27360903882923
27
 energy: -28.854710377717 gnorm: 0.001344951779 xtb: 6.7.1 (edcfbbe)
C            1.08975675667855       -0.23295045834844       -0.06396602604421
C            0.44136604023980       -0.91225128523710        1.13294847516725
N            0.91688497503511       -0.46524196830747        2.48126882052119
C            2.36341893429471       -0.72039773299137        2.60310031209508
C            0.61797424255259        0.98276593535678        2.67001217964953
C            0.87857415980768        1.47771980147528        4.08900721883966
C            0.07240659445479        0.66718791763211        5.09711253425493
C            0.40591491078326       -0.81168283113081        4.93696097542058
C            0.16576429029022       -1.26008081473632        3.49912233374474
H            0.90255737803042        0.83667561574144       -0.08653546229565
H            0.64585581501734       -0.65731481033541       -0.96124342571113
H            2.15932596399655       -0.41278825978330       -0.11707347364388
H           -0.63722300251210       -0.74286810229096        1.09216533990068
H            0.61623865049632       -1.98898252971301        1.06848564758189
H            2.57830888199808       -1.75857161280469        2.35379698532325
H            2.91843532222480       -0.07037739779741        1.93049508767459
H            2.70094075350013       -0.53056865455092        3.61799750901213
H           -0.43733441434951        1.13415311783655        2.42988174150617
H            1.22157333787961        1.55468437221745        1.96445026551251
H            0.58543271414277        2.52667566484075        4.13143063991814
H            1.94099838455748        1.43167132344832        4.33033534890724
H            0.30133827385144        0.99468082273762        6.10974504353476
H           -0.99450114593824        0.82595399333588        4.93009632835235
H            1.43389176528060       -1.00255695007967        5.24652185260226
H           -0.23645224583641       -1.41354346359307        5.57981556343930
H            0.43914836487585       -2.31083138848927        3.38051958982268
H           -0.89903570135182       -1.15486030443297        3.27697859491393
27
 energy: -28.854715083047 gnorm: 0.000597747507 xtb: 6.7.1 (edcfbbe)
C            1.09146330995065       -0.23401604725152       -0.06335729762706
C            0.44102154946206       -0.91167398639683        1.13290702273570
N            0.91633728910206       -0.46477033569276        2.48113862708946
C            2.36238642765907       -0.71967304057784        2.60218536273869
C            0.61682904284439        0.98277358655241        2.67072965511883
C            0.87861237923424        1.47768480119792        4.08921114387242
C            0.07290538993828        0.66690951597489        5.09737008547596
C            0.40634761912161       -0.81183926158904        4.93681309516404
C            0.16536797300315       -1.25926778256226        3.49915540238492
H            0.90595538265651        0.83569231941449       -0.08660449709904
H            0.64779552089678       -0.65801986285506       -0.96079126116059
H            2.16052967615422       -0.41588908339425       -0.11559516206550
H           -0.63711318198472       -0.74122758131443        1.09132789446883
H            0.61498376253944       -1.98833737384418        1.06978394801295
H            2.57678528539400       -1.75718254935458        2.35194078120475
H            2.91636477907783       -0.06927850417611        1.92982456167113
H            2.69996761566288       -0.53062825540261        3.61675962865854
H           -0.43853284653308        1.13305556273482        2.43145458264011
H            1.21924946118932        1.55461599714862        1.96467281742564
H            0.58634608260078        2.52699554776671        4.13218567538255
H            1.94109068946837        1.43057336769003        4.32942278997187
H            0.30188944418879        0.99426478140977        6.10990019398326
H           -0.99392322069714        0.82554538567298        4.93070202882997
H            1.43461979808508       -1.00247848069719        5.24507370874772
H           -0.23523477779319       -1.41429350218823        5.58010856015230
H            0.43861998884981       -2.30956196612549        3.38008689120450
H           -0.89910444007115       -1.15367325214028        3.27702376101804
