36
 energy: -56.290752227611 gnorm: 0.078391137650 xtb: 6.7.1 (edcfbbe)
C            0.28993000000000        0.04480000000000        0.64485000000000
O           -0.25930000000000       -1.11377000000000        1.25551000000000
C            0.38855000000000       -2.30244000000000        1.07393000000000
C           -0.28464000000000       -3.41409000000000        1.58741000000000
C            0.23901000000000       -4.70299000000000        1.46312000000000
O           -0.53912000000000       -5.68931000000000        1.99857000000000
C           -0.09676000000000       -7.03221000000000        1.83857000000000
C            1.46670000000000       -4.87831000000000        0.83161000000000
C            2.16404000000000       -3.76548000000000        0.33812000000000
C            1.61962000000000       -2.47803000000000        0.44420000000000
C            3.47182000000000       -4.00525000000000       -0.32408000000000
O            3.64556000000000       -5.05131000000000       -0.95064000000000
C            4.56473000000000       -2.95079000000000       -0.22209000000000
N            4.79020000000000       -2.26019000000000       -1.50530000000000
C            4.96225000000000       -2.87323000000000       -2.74253000000000
C            5.15595000000000       -1.87440000000000       -3.65345000000000
N            5.12343000000000       -0.68109000000000       -2.95006000000000
C            4.93333000000000       -0.93456000000000       -1.64757000000000
C            5.31029000000000        0.64701000000000       -3.52186000000000
H           -0.38402000000000        0.88305000000000        0.84537000000000
H            0.36039000000000       -0.07624000000000       -0.44125000000000
H            1.26601000000000        0.28918000000000        1.07647000000000
H           -1.24554000000000       -3.27657000000000        2.08187000000000
H           -0.01525000000000       -7.29756000000000        0.77933000000000
H            0.85069000000000       -7.19783000000000        2.36168000000000
H           -0.84716000000000       -7.68780000000000        2.29061000000000
H            1.90114000000000       -5.86767000000000        0.71553000000000
H            2.13722000000000       -1.62833000000000        0.01917000000000
H            4.34096000000000       -2.21306000000000        0.55383000000000
H            5.49825000000000       -3.44685000000000        0.06660000000000
H            4.92110000000000       -3.94766000000000       -2.82166000000000
H            5.32238000000000       -1.85811000000000       -4.71720000000000
H            4.89567000000000       -0.19627000000000       -0.85457000000000
H            4.85815000000000        1.39518000000000       -2.86519000000000
H            6.38147000000000        0.84116000000000       -3.61933000000000
H            4.83130000000000        0.69488000000000       -4.50350000000000
36
 energy: -56.297153041870 gnorm: 0.036719063145 xtb: 6.7.1 (edcfbbe)
C            0.29645370182223        0.03985938584621        0.64280753075745
O           -0.25043863833171       -1.11786277210372        1.23952757532608
C            0.39049691373883       -2.30346334065728        1.07294227894677
C           -0.28045628673209       -3.41358113538635        1.58361229717286
C            0.24438725389323       -4.69982529603689        1.45904986461280
O           -0.51878507444652       -5.68747206828089        1.98428440959189
C           -0.08682446050786       -7.02838989222654        1.83461376719267
C            1.47089618019091       -4.87266649510159        0.82344672590143
C            2.16581587128285       -3.75998890496232        0.34228252689212
C            1.62882898646988       -2.47383715372450        0.46010661140900
C            3.44969508129614       -4.00351963195140       -0.34432189275381
O            3.65935526785220       -5.02761224053956       -0.96223726072501
C            4.55540241183983       -2.94681610312015       -0.22719127345902
N            4.79246956979866       -2.26255703587216       -1.49333367442964
C            4.94986468196478       -2.86422798528862       -2.71839660878500
C            5.15300448935027       -1.87073393169932       -3.62593415568426
N            5.12230826621301       -0.68224244400609       -2.94202634865836
C            4.91303650533859       -0.94343114624974       -1.65209740539133
C            5.31449257568425        0.63335366253109       -3.51720992844761
H           -0.39678534323720        0.85448027211549        0.85746666904815
H            0.37614045952823       -0.07777462060083       -0.44225540356732
H            1.27144632619088        0.28686197233885        1.07425870310014
H           -1.23286735798939       -3.27665741664176        2.07486620482902
H            0.00217638064582       -7.29681680132748        0.77872121846226
H            0.86064421774855       -7.19779894618211        2.35289180392527
H           -0.85518453987377       -7.65293546388223        2.29364416329399
H            1.91192555555593       -5.85127049794786        0.70501069601420
H            2.14391710975868       -1.62833281176280        0.02931701127694
H            4.32112415259139       -2.20587227654075        0.53909284741626
H            5.47980631877060       -3.46318180001914        0.06017275649734
H            4.89593440179416       -3.93282260188259       -2.81081500082606
H            5.31699531788400       -1.87722886013116       -4.68596405647036
H            4.86485084125959       -0.20911824687915       -0.86899832076279
H            4.86588208601522        1.38533749641414       -2.87005118086754
H            6.37995856710721        0.84172792427559       -3.62362692261236
H            4.84238220953265        0.68027720748355       -4.49758622822619
36
 energy: -56.298984149011 gnorm: 0.010425404799 xtb: 6.7.1 (edcfbbe)
C            0.30345241256801        0.03769800909012        0.64182456502599
O           -0.23992954797426       -1.12082750925632        1.22700568445849
C            0.39569192954760       -2.30298634294303        1.07333542594455
C           -0.27460932263811       -3.41232620080389        1.58169910925641
C            0.24821700692958       -4.69778410449087        1.45504075291505
O           -0.50082808863657       -5.68559321284471        1.97193068515360
C           -0.07456618202523       -7.02501405359242        1.83120880151201
C            1.47075636354608       -4.87013256640716        0.80842780084157
C            2.16427077371758       -3.75732046987413        0.33520232142895
C            1.63686125135718       -2.46978761482392        0.46514796037658
C            3.43467368156554       -4.01094207590493       -0.35144619961358
O            3.66928656667214       -5.00489266992532       -0.99228825218024
C            4.54320776931087       -2.93411506079071       -0.22515639200362
N            4.78576232280837       -2.25976364551967       -1.47845450950912
C            4.94324131099143       -2.85826226791717       -2.69109633438558
C            5.14805239067658       -1.86935204223618       -3.60251176630979
N            5.11635529444014       -0.68290424092455       -2.93492563922883
C            4.89343830029401       -0.94540645776927       -1.65124942003005
C            5.31398707342779        0.61941250094278       -3.51472289441561
H           -0.40425788639734        0.83417623624961        0.86479563326095
H            0.39449606180914       -0.07192623951769       -0.44362235941634
H            1.27633324170300        0.29071839470854        1.07486608622832
H           -1.22453252302033       -3.27519565313413        2.06731081364672
H            0.02095257375380       -7.30188136561380        0.77842111073303
H            0.87268337663535       -7.19928893933846        2.34755847084013
H           -0.85460836026356       -7.62642318126212        2.29526114860133
H            1.91585840746839       -5.84206474132169        0.68291336323390
H            2.15584030343279       -1.62530739039417        0.04038775634326
H            4.30546954096596       -2.19710003430860        0.54091515073425
H            5.45567166255177       -3.47199265600531        0.06036384269415
H            4.88328224362965       -3.92359104392301       -2.79801963847773
H            5.31164563985277       -1.90772619592064       -4.66079031716272
H            4.83412232859247       -0.21026674400318       -0.87444629417243
H            4.87269710626767        1.37986325701463       -2.87473611535921
H            6.37833099116384        0.82977617006997       -3.62764017004196
H            4.84704398527591        0.66239015269132       -4.49644018092253
36
 energy: -56.299240517816 gnorm: 0.004619412681 xtb: 6.7.1 (edcfbbe)
C            0.30715331890261        0.03945115883949        0.64467989746870
O           -0.23744029338506       -1.12115934975399        1.22359781017460
C            0.39756651306204       -2.30245060641406        1.07228451105104
C           -0.27252173845474       -3.41258283127182        1.57976496060679
C            0.24863103103124       -4.69866729625363        1.45150468244659
O           -0.49661897021478       -5.68699399396930        1.96735314671661
C           -0.06808310828070       -7.02582561722035        1.83044760981591
C            1.46957160140333       -4.87022643816975        0.80013799689847
C            2.16262512338836       -3.75609714188956        0.32861194700865
C            1.63880186743118       -2.46787013529139        0.46369312884699
C            3.42639117722653       -4.00621341272119       -0.36428131370421
O            3.67182412386053       -4.99429718400509       -1.01041908839999
C            4.53882162629641       -2.92610853936439       -0.21840599613446
N            4.78280920399892       -2.25602989217416       -1.46937307295210
C            4.94547915350555       -2.85964239370101       -2.67836510821360
C            5.14955598265125       -1.87343738833369       -3.59469095649211
N            5.11121393975722       -0.68437427518548       -2.93294089669700
C            4.88386633481787       -0.94142062073622       -1.64784947306302
C            5.31170602376698        0.61341883713967       -3.51767444436481
H           -0.40321762614654        0.83319951493465        0.86578147487572
H            0.40577906389079       -0.06521268707441       -0.44118270840971
H            1.27765557369053        0.29451597733319        1.08280416305841
H           -1.22257702411118       -3.27467766430539        2.06633362085803
H            0.02978305529861       -7.30704585680027        0.77859290626657
H            0.87939167801933       -7.19841750501748        2.34781270194635
H           -0.84775622386577       -7.62531660860351        2.29528544803460
H            1.91275326726900       -5.84215748319504        0.66492070375588
H            2.15965201855893       -1.62229150643448        0.04371184223118
H            4.29610113830694       -2.19356744641625        0.54984964284015
H            5.44453356727338       -3.47138397110497        0.07289134182741
H            4.88695285038992       -3.92475978379071       -2.78911971607440
H            5.31575748262175       -1.92841813844343       -4.65195527580893
H            4.81468870665869       -0.20232728184111       -0.87383057028840
H            4.87404283782910        1.37997559278973       -2.88160318141746
H            6.37748631977764        0.81930117703459       -3.63160493902279
H            4.84597040377419        0.65297079141062       -4.50069279568579
36
 energy: -56.299380476352 gnorm: 0.003716816930 xtb: 6.7.1 (edcfbbe)
C            0.31155394111165        0.04244618588672        0.65093616151011
O           -0.23703409711051       -1.12066489576445        1.22178477857701
C            0.39761767490813       -2.30178131585663        1.07012509462643
C           -0.27225018755528       -3.41313493757219        1.57655192515004
C            0.24601896730387       -4.70039139776262        1.44458668891914
O           -0.49545935111751       -5.68972209012176        1.96246462565319
C           -0.06059678056260       -7.02744118251634        1.83036449186910
C            1.46351710291742       -4.87136735355890        0.78608521859318
C            2.15821640627045       -3.75586791818704        0.31921973850064
C            1.63836129969692       -2.46654087145792        0.46021270920548
C            3.42143263908921       -4.00242644792140       -0.36949987698688
O            3.67109329045203       -4.97943063448490       -1.03149982795323
C            4.53491670502982       -2.91805926184738       -0.20919209425681
N            4.78099271297539       -2.25066996722657       -1.45901980479370
C            4.95492097454725       -2.86209261416137       -2.66365785673388
C            5.15450046686764       -1.87965835097585       -3.58668973156395
N            5.10429176298321       -0.68636546087566       -2.93238654873909
C            4.87388761055643       -0.93540434190569       -1.64473160655168
C            5.30750781367601        0.60738154161566       -3.52469533920924
H           -0.40037132222298        0.83586268347903        0.86737267066980
H            0.42001995136682       -0.05726031906996       -0.43496515190070
H            1.27839251791157        0.29763037699493        1.09801710934490
H           -1.22198589526515       -3.27422021451910        2.06583577802010
H            0.03903999319963       -7.31336356279648        0.77954984271583
H            0.88801627009679       -7.19366679551847        2.34871436573463
H           -0.83650910916583       -7.62970796401949        2.29684735928789
H            1.90435000984268       -5.84379010645840        0.64137686291309
H            2.16126808797535       -1.61946011690510        0.04587350294719
H            4.28574141541320       -2.19027151286850        0.56110552226706
H            5.43538630744029       -3.46632674904316        0.08895490455119
H            4.90357176721667       -3.92759512291719       -2.77473235217593
H            5.32556237722805       -1.95192783553857       -4.64199808310105
H            4.79205674526962       -0.19118936819274       -0.87525654805607
H            4.87376452650310        1.38047406211517       -2.89314838611994
H            6.37494545431191        0.80727719166626       -3.64008345182007
H            4.84161195083884        0.64258666828580       -4.50835269109390
36
 energy: -56.299447586360 gnorm: 0.003956684417 xtb: 6.7.1 (edcfbbe)
C            0.31380330513647        0.04434690345283        0.65796392271383
O           -0.23994868419263       -1.12013343512024        1.22212568212015
C            0.39450587554926       -2.30148238373346        1.06830540821438
C           -0.27471518239194       -3.41397929121128        1.57374626651626
C            0.24262846383682       -4.70149994434495        1.43873726184667
O           -0.49706887383846       -5.69214744245373        1.95813503084274
C           -0.05531388724539       -7.02847756868708        1.82993937478394
C            1.45854089590739       -4.87129077635383        0.77724643133591
C            2.15433881843730       -3.75469478851152        0.31430463352036
C            1.63527501029811       -2.46541701276227        0.45840510108629
C            3.41791336445724       -3.99736094502193       -0.37413457989222
O            3.66769924780726       -4.96959625352790       -1.04255251164973
C            4.53256432744961       -2.91399900505029       -0.20366778937173
N            4.78328760163564       -2.24750087254843       -1.45305578868194
C            4.96735387695473       -2.86411966584261       -2.65427932357572
C            5.16261541659838       -1.88460967894841       -3.58172802822830
N            5.10100914946533       -0.68840152558674       -2.93331096540516
C            4.86891837458860       -0.93205442851273       -1.64434257476822
C            5.30366880939151        0.60334622294873       -3.53164684879902
H           -0.39848165480880        0.83887868665121        0.87016571735606
H            0.43020925752316       -0.05250017744195       -0.42742610233896
H            1.27739439168685        0.29746779431367        1.11344350422774
H           -1.22351027108085       -3.27507736028898        2.06572560888901
H            0.04488677137421       -7.31755976333083        0.78001843927743
H            0.89458601833640       -7.18725324726540        2.34864371631601
H           -0.82697950094771       -7.63486889537286        2.29873710784336
H            1.89754307092397       -5.84391918432799        0.62648936150126
H            2.15866573407737       -1.61732480080912        0.04683706933904
H            4.27818887962904       -2.18737572449966        0.56606888926481
H            5.43064741152094       -3.46207513002095        0.10047435298600
H            4.92379886265431       -3.93033613126693       -2.76216369067486
H            5.33788243398882       -1.96536172655734       -4.63528267992043
H            4.77717921227972       -0.18451038906358       -0.87906285364427
H            4.87193848055371        1.37956669018460       -2.90266772815590
H            6.37149880268007        0.80045273462436       -3.64949547442851
H            4.83582618976376        0.63472851628721       -4.51462594044645
36
 energy: -56.299534034528 gnorm: 0.003415824708 xtb: 6.7.1 (edcfbbe)
C            0.31520667483725        0.04637789071513        0.66922328222539
O           -0.24629100221682       -1.11952162035845        1.22392655948251
C            0.38817054764952       -2.30110367538488        1.06688295652653
C           -0.28019107111043       -3.41533045773531        1.56998039197037
C            0.23733468438337       -4.70243235982026        1.43064679986252
O           -0.50054828374508       -5.69535046664797        1.95079678630301
C           -0.04831503542166       -7.02923564231161        1.82848387374539
C            1.45193000790767       -4.87008114829301        0.76681803726499
C            2.14870253311079       -3.75200386221726        0.30949704735431
C            1.62938814934028       -2.46337329504849        0.45772722310177
C            3.41410848280249       -3.99026403340863       -0.37841775050822
O            3.66163576058820       -4.95699946642215       -1.05502415828168
C            4.52911188804291       -2.90964292489619       -0.19785788543585
N            4.78909672545867       -2.24430676864462       -1.44678631013462
C            4.98737809550669       -2.86688548535089       -2.64313176673785
C            5.17758215718400       -1.89145823434503       -3.57573276496626
N            5.09936934133910       -0.69187100410226       -2.93552305475622
C            4.86347123521786       -0.92917579507958       -1.64588942312737
C            5.29839153315129        0.59763902007847       -3.54190618384529
H           -0.39766655764843        0.84238610986511        0.87573026127939
H            0.44288565452570       -0.04720696355549       -0.41499573873433
H            1.27402114780352        0.29556754734662        1.13683543342149
H           -1.22790300268298       -3.27760138158605        2.06446013391520
H            0.05192043147709       -7.32278912259803        0.77999354230028
H            0.90375483388936       -7.17640271696973        2.34679910595893
H           -0.81360669186904       -7.64120531563202        2.30183026316400
H            1.88952005589202       -5.84239768343970        0.61036114833975
H            2.15302893410249       -1.61397413825074        0.04931284609516
H            4.26866085161877       -2.18238154526286        0.56936252018020
H            5.42490096154421       -3.45677301165065        0.11397474295873
H            4.95535997684929       -3.93429693983109       -2.74414469967856
H            5.35916254713161       -1.97956164346692       -4.62702370557612
H            4.75828798840135       -0.17767422410611       -0.88672399075587
H            4.86936158354260        1.37662075938705       -2.91504521403545
H            6.36570411601583        0.79315169420908       -3.66582355080753
H            4.82542474538074        0.62341790481395       -4.52254675806884
36
 energy: -56.299642037750 gnorm: 0.003340611773 xtb: 6.7.1 (edcfbbe)
C            0.31491616590668        0.04892573820555        0.68638139638038
O           -0.25618666513464       -1.11919010952712        1.22744941188891
C            0.37847605936718       -2.30062599758689        1.06636380972640
C           -0.28899467391680       -3.41742363086591        1.56492541673359
C            0.23046417595298       -4.70316347431643        1.42039851112534
O           -0.50528528504018       -5.69950709741031        1.93917427318935
C           -0.03933794581617       -7.02979938470454        1.82559435333211
C            1.44451217440960       -4.86731661217965        0.75526542485871
C            2.14126484633090       -3.74699080320072        0.30472431463241
C            1.62074966591963       -2.45969850815690        0.45877802977180
C            3.40854671500534       -3.97995573747214       -0.38404630056053
O            3.65308568215666       -4.94063577718639       -1.06985139086605
C            4.52336542782020       -2.90368224352713       -0.19206734806037
N            4.79827002363249       -2.24138223967971       -1.44042252339829
C            5.01753137300396       -2.87114709151337       -2.62959987301485
C            5.20302754983646       -1.90125204175128       -3.56832533822705
N            5.10083774582088       -0.69756968458366       -2.93936532924278
C            4.85592361156498       -0.92714063195497       -1.65014770922853
C            5.29106070524787        0.58903674226540       -3.55615576964140
H           -0.39920952468003        0.84574886964843        0.88678644060222
H            0.45755176844136       -0.03952119033444       -0.39615066940753
H            1.26732158644230        0.29266457876465        1.16970251465103
H           -1.23616771774913       -3.28257909193833        2.06067060784915
H            0.06043201905007       -7.33013800806619        0.77923644397998
H            0.91584103470065       -7.16151910285162        2.34239322243605
H           -0.79630841904759       -7.64736581642646        2.30629918256924
H            1.88153140559936       -5.83867330447611        0.59309884299969
H            2.14461893460360       -1.60842696643787        0.05469238078339
H            4.25573269296680       -2.17365280850877        0.57015271086076
H            5.41579597883995       -3.45037357473191        0.13052180738243
H            5.00122236168817       -3.94009799380861       -2.71995940582929
H            5.39506716837863       -1.99593879052080       -4.61685860198511
H            4.73167962711919       -0.17059185188351       -0.89929846798716
H            4.86540124489821        1.37048814829269       -2.93074823627710
H            6.35661907007535        0.78557418198644       -3.69099097974428
H            4.80899341660542        0.60678130643771       -4.53255115228275
36
 energy: -56.299777248405 gnorm: 0.003997907425 xtb: 6.7.1 (edcfbbe)
C            0.31165740829501        0.05249496103287        0.71040198426003
O           -0.26918047091956       -1.11942722569950        1.23314168755001
C            0.36602182501585       -2.30000437530347        1.06724144074957
C           -0.30076190429302       -3.42037154456651        1.55851339808544
C            0.22239693465035       -4.70389412566877        1.40840387299295
O           -0.51058335045781       -5.70473483178490        1.92332299806385
C           -0.02903421685942       -7.03049826865729        1.82130846919154
C            1.43689697609436       -4.86304894134242        0.74308129950430
C            2.13234749619014       -3.73949894545657        0.30008254295045
C            1.60994876621582       -2.45413145321099        0.46185500995811
C            3.40077107581020       -3.96643309615024       -0.39089197926139
O            3.64247864370084       -4.92008486820971       -1.08731214331713
C            4.51511315869885       -2.89512129441397       -0.18685116581657
N            4.80995679242048       -2.23894390043546       -1.43457095823343
C            5.05925168659625       -2.87722710315437       -2.61368810451176
C            5.24136872325927       -1.91433862815365       -3.55955850437737
N            5.10647301628587       -0.70588417521312       -2.94529644782512
C            4.84527409103034       -0.92628471499547       -1.65790782223979
C            5.28136384194789        0.57694904638567       -3.57480379818185
H           -0.40452646605072        0.84865125779582        0.90609088209153
H            0.47149170248057       -0.02748864996346       -0.37017354777921
H            1.25649666895901        0.28979117034977        1.21140788103880
H           -1.24855245047442       -3.29027398051614        2.05355401276680
H            0.06971539179291       -7.34027221314383        0.77776039184314
H            0.93000941460912       -7.14429702117929        2.33516868678041
H           -0.77631191002598       -7.65240933972705        2.31204768634452
H            1.87456252108882       -5.83279438479177        0.57527088727470
H            2.13396613887364       -1.60024732604395        0.06364323530629
H            4.23953419579905       -2.16016950771819        0.56778387437230
H            5.40223718631249       -3.44254592533256        0.15011774582528
H            5.06299587795099       -3.94769636673944       -2.69020814052079
H            5.45028510699988       -2.01499264277806       -4.60447937593825
H            4.69548098716850       -0.16373972325896       -0.91771315884635
H            4.85968704419736        1.36049804071216       -2.94983956893631
H            6.34374526717069        0.77804376227086       -3.72603380965622
H            4.78577282946685        0.58428633506071       -4.54479946150856
36
 energy: -56.299952384529 gnorm: 0.004811329740 xtb: 6.7.1 (edcfbbe)
C            0.30362877993519        0.05762734447396        0.74345812077995
O           -0.28573895516619       -1.12057661377476        1.24206986093039
C            0.35064768739499       -2.29924686892378        1.06978328724263
C           -0.31555083866586       -3.42445645346973        1.55051310839240
C            0.21309836760876       -4.70494958451009        1.39463730011712
O           -0.51616282605008       -5.71136517029326        1.90335089086250
C           -0.01793513893835       -7.03174204289898        1.81566337326563
C            1.42913098446938       -4.85719780173856        0.73019225792604
C            2.12183761642695       -3.72920401368977        0.29538966767437
C            1.59678531055349       -2.44638261495849        0.46702542035435
C            3.39009920590356       -3.94895657645447       -0.39952748770617
O            3.62964938673330       -4.89428070047746       -1.10801950130663
C            4.50440200166249       -2.88283544234150       -0.18267832108313
N            4.82436303090826       -2.23696471937438       -1.42961858657683
C            5.11611442656073       -2.88519988461900       -2.59449873831831
C            5.29667281816034       -1.93112909467213       -3.54892681408241
N            5.11770071578937       -0.71744265523374       -2.95422258421285
C            4.83087183613523       -0.92699178288514       -1.67060944901796
C            5.26873347089705        0.56040707299601       -3.59943180239562
H           -0.41534758868078        0.85116514292683        0.93793994542570
H            0.48125160252133       -0.00857891529070       -0.33509194341313
H            1.24022054747178        0.28726179032980        1.26285414216614
H           -1.26541336429378       -3.30111731613513        2.04269054617833
H            0.07907975008258       -7.35389233098599        0.77566146877483
H            0.94558187343965       -7.12589748462029        2.32490325354688
H           -0.75432077746307       -7.65620427399553        2.31910975798361
H            1.86881541050936       -5.82469030733796        0.55647273599922
H            2.12048614413755       -1.58882179593517        0.07654651302304
H            4.21998822299677       -2.14055423222305        0.56134002968253
H            5.38327241539717       -3.43244587491855        0.17337464847029
H            5.14558421010751       -3.95670349858752       -2.65393047220434
H            5.53189824066260       -2.03738848382697       -4.58845462241449
H            4.64703131032790       -0.15776044873104       -0.94433175699414
H            4.85177521063844        1.34564337108736       -2.97362448832616
H            6.32602059032362        0.77028095136626       -3.77385895460641
H            4.75407832150345        0.55445130972114       -4.56008080613737
36
 energy: -56.300148315372 gnorm: 0.005517203506 xtb: 6.7.1 (edcfbbe)
C            0.28941956357460        0.06389637300937        0.78371104378435
O           -0.30483461754666       -1.12305098578189        1.25441780578214
C            0.33388342482866       -2.29853532582973        1.07397206501234
C           -0.33151901040576       -3.42951785711247        1.54191487663779
C            0.20378769046397       -4.70651023375892        1.38081616492704
O           -0.52101875957536       -5.71888092568105        1.88207644413113
C           -0.00802045910358       -7.03379473378498        1.80908469705625
C            1.42220984105807       -4.85026892048576        0.71807587340218
C            2.11090632051097       -3.71694534061542        0.29103924157133
C            1.58237942154739       -2.43712157124938        0.47358456612037
C            3.37754758624011       -3.92889378318875       -0.40911153619040
O            3.61638777165158       -4.86523925970758       -1.12978993674728
C            4.49296979580763       -2.86705946957131       -0.18047183745811
N            4.84042548653313       -2.23539424806318       -1.42636987330878