28
 energy: -36.697224037462 gnorm: 0.049306484516 xtb: 6.7.1 (edcfbbe)
C            1.16358000000000        0.19987000000000        0.17601000000000
C            0.34014000000000        1.03368000000000       -0.78862000000000
N            0.89535000000000        1.00059000000000       -2.14446000000000
C            1.02108000000000       -0.11799000000000       -2.87356000000000
N            1.57523000000000        0.18987000000000       -4.05427000000000
C            1.78102000000000        1.56464000000000       -4.12065000000000
C            1.34169000000000        2.08752000000000       -2.89488000000000
C            1.39472000000000        3.45128000000000       -2.61345000000000
C            1.90901000000000        4.27253000000000       -3.62660000000000
C            2.35192000000000        3.74612000000000       -4.85475000000000
C            2.30069000000000        2.37298000000000       -5.12905000000000
C            1.89610000000000       -0.79809000000000       -5.08494000000000
C            3.23852000000000       -1.45025000000000       -4.81547000000000
H            1.15013000000000       -0.85721000000000       -0.10801000000000
H            0.76371000000000        0.28262000000000        1.19103000000000
H            2.20712000000000        0.52977000000000        0.18419000000000
H           -0.68684000000000        0.65604000000000       -0.84011000000000
H            0.29528000000000        2.06675000000000       -0.43230000000000
H            0.73423000000000       -1.11348000000000       -2.55589000000000
H            1.05600000000000        3.86006000000000       -1.67003000000000
H            1.96826000000000        5.34920000000000       -3.46109000000000
H            2.74393000000000        4.42696000000000       -5.61155000000000
H            2.64177000000000        1.96741000000000       -6.07310000000000
H            1.10222000000000       -1.55331000000000       -5.09003000000000
H            1.89304000000000       -0.31574000000000       -6.06730000000000
H            3.23603000000000       -1.95805000000000       -3.84546000000000
H            3.46968000000000       -2.18786000000000       -5.58953000000000
H            4.03861000000000       -0.70351000000000       -4.79727000000000
28
 energy: -36.700657995739 gnorm: 0.019330756476 xtb: 6.7.1 (edcfbbe)
C            1.16911148654779        0.19939286271033        0.16650586391195
C            0.33443742296708        1.03232382535901       -0.79503431899789
N            0.88824829909332        1.00423782314700       -2.14231034903754
C            1.03204371349471       -0.09919147398025       -2.87660193695855
N            1.56808893981459        0.18897190061250       -4.06173487776857
C            1.78120697230141        1.55478598405139       -4.11876795163466
C            1.34184783751158        2.07948655712475       -2.88861488761565
C            1.40036088421046        3.44128237104530       -2.61865153449354
C            1.90878775851202        4.24931171954308       -3.62231671116026
C            2.34803965639281        3.72670432279477       -4.84232856167144
C            2.29853096719506        2.37030076150453       -5.11747014053970
C            1.89027043589490       -0.79604059040811       -5.08291300774367
C            3.24078767497025       -1.44097218197599       -4.81009667385133
H            1.15565788007740       -0.85641824990373       -0.10099969127812
H            0.76661477132706        0.29356984751077        1.17212343688940
H            2.20394768537400        0.53898786543598        0.18128291257045
H           -0.69176023515324        0.65380934841867       -0.83780507076953
H            0.30119347684424        2.07041235238335       -0.46094982987989
H            0.74851970750958       -1.08643244638805       -2.56110602783096
H            1.06364276919151        3.85753428463936       -1.68307720702958
H            1.96661317742444        5.31689960530471       -3.45988887893511
H            2.73566712212675        4.40294758247490       -5.59191202620758
H            2.63983740761971        1.97522961808871       -6.06061049264026
H            1.09987121775183       -1.55208868620359       -5.08582507985888
H            1.88955099315894       -0.29892675378165       -6.05509884034818
H            3.24096204639872       -1.95641860748875       -3.85008346176566
H            3.46330349921029       -2.16977147418331       -5.58563524443565
H            4.03683643223278       -0.69752816783567       -4.80121941091961
28
 energy: -36.701098919329 gnorm: 0.004036888305 xtb: 6.7.1 (edcfbbe)
C            1.17303551056426        0.20485010421233        0.16595464489042
C            0.33221386420775        1.03104635530764       -0.79877872360300
N            0.87950051755822        1.00144188181922       -2.14245564498682
C            1.02973863168694       -0.09354020306908       -2.88000473092058
N            1.55900206755348        0.18428960606646       -4.06567502411119
C            1.77733599511234        1.54503654568965       -4.11777308596084
C            1.33711625597908        2.07074643516913       -2.88546753382756
C            1.40137754686202        3.43373636087644       -2.62125393861898
C            1.91078862825853        4.23865779332732       -3.61805402718862
C            2.34947252028212        3.71666029231091       -4.83693869175081
C            2.29591688364524        2.36661375609825       -5.11131558375481
C            1.88750271314946       -0.79517672442230       -5.08208633588610
C            3.24438279950012       -1.43361694941884       -4.81069367104133
H            1.16043469781275       -0.84936489644183       -0.09694808520598
H            0.76921528797255        0.30540394295973        1.16865594223566
H            2.20298887220258        0.55246515598583        0.17676773921696
H           -0.69271542947587        0.65016438324265       -0.83130309356499
H            0.30418402117487        2.07181002506280       -0.47623789340788
H            0.74687570483657       -1.07889791695826       -2.56492468550962
H            1.06814704687265        3.85236968524079       -1.68673936386343
H            1.97147946091336        5.30232032977741       -3.45473813077307
H            2.73862472131855        4.39042539849694       -5.58279852018040
H            2.63935367366348        1.97465942838516       -6.05366415932529
H            1.10417730649190       -1.55660897006673       -5.08738255097220
H            1.88919110967435       -0.29026060178172       -6.04894691021789
H            3.24543348538649       -1.95109075529332       -3.85448645874429
H            3.46513495152224       -2.15681648130132       -5.58949794560004
H            4.03231115527399       -0.68492398127521       -4.80435353732731
28
 energy: -36.701160469139 gnorm: 0.001555533751 xtb: 6.7.1 (edcfbbe)
C            1.17566604130027        0.21114234287021        0.16699246315070
C            0.32950572077108        1.03109741364136       -0.79977890183921
N            0.87334373930537        0.99761036721402       -2.14323995871755
C            1.02358290271751       -0.09651834299740       -2.88129028819128
N            1.55290648152210        0.18016780031397       -4.06671135788515
C            1.77414665135014        1.54005454715491       -4.11738164054211
C            1.33388967857434        2.06588842625161       -2.88473417032771
C            1.40206063767187        3.42945681068457       -2.62063362577257
C            1.91415285939793        4.23513612860245       -3.61507651097733
C            2.35279927171864        3.71274172578842       -4.83511693055778
C            2.29529200435124        2.36310461911816       -5.10934892583502
C            1.88553068303260       -0.79546953547779       -5.08341955470151
C            3.24688531208244       -1.42748324535484       -4.81310172883310
H            1.16672552733614       -0.84372578867938       -0.09286488240241
H            0.77228613480554        0.31401726726095        1.16963923579973
H            2.20398407655028        0.56348133020575        0.17472127779665
H           -0.69437247227550        0.64723410430879       -0.82639614085406
H            0.30021516516759        2.07301638345951       -0.48128253725923
H            0.73905010738713       -1.08238635968041       -2.56648192912536
H            1.06892785643741        3.84776664560363       -1.68555635045256
H            1.97737420221981        5.29846517147281       -3.45036396258640
H            2.74459765412460        4.38597853814180       -5.58009718469638
H            2.63891149078671        1.97050354725458       -6.05172009933907
H            1.10727014987989       -1.56184562656987       -5.09089222925838
H            1.88636323966692       -0.28880288476841       -6.04926452038492
H            3.25081283570253       -1.94612659196534       -3.85773066246843
H            3.47012517882488       -2.14803565729783       -5.59365381436694
H            4.03018686959057       -0.67406913655613       -4.80635506937259
28
 energy: -36.701249385965 gnorm: 0.003771587792 xtb: 6.7.1 (edcfbbe)
C            1.18104938796093        0.22829539117906        0.17195457267496
C            0.32304501114223        1.03129135704434       -0.80108390513607
N            0.86031344817112        0.98849320883722       -2.14508865193031
C            1.00730420821546       -0.10557922889397       -2.88424286698652
N            1.54042033245061        0.17090280494326       -4.06818813253253
C            1.76894817490812        1.52982163184878       -4.11579875808600
C            1.32851640753234        2.05557757382164       -2.88325435297673
C            1.40442885149771        3.41961297706475       -2.61780098588928
C            1.92195723241151        4.22682886838025       -3.60830216798748
C            2.36082185805614        3.70366640036806       -4.83053596007723
C            2.29616288137775        2.35430037993699       -5.10487025362483
C            1.88194260858091       -0.79615804980693       -5.08755361032763
C            3.25288876603227       -1.41368825709431       -4.82183806261085
H            1.18295066132614       -0.82865583342859       -0.08065406461221
H            0.77823988405123        0.33520233004742        1.17467371350986
H            2.20573949161187        0.59193450031939        0.17352996192852
H           -0.69761434645173        0.63846262266208       -0.81548336477953
H            0.28669421579093        2.07580607589773       -0.49169245274644
H            0.71645782530087       -1.09200439283340       -2.57123320173052
H            1.07042602374963        3.83655888511810       -1.68147908330284
H            1.98962550390002        5.29003181329085       -3.44098686322833
H            2.75676550564207        4.37637993415930       -5.57455718746653
H            2.63862369618957        1.95972554261646       -6.04776353295030
H            1.11506706095385       -1.57387177165677       -5.09945441592117
H            1.87780716019861       -0.28654691163714       -6.05192092913106
H            3.26405485376552       -1.93642323711044       -3.86861298833612
H            3.48324639975473       -2.12774326306510       -5.60675363071612
H            4.02633689587964       -0.64982135200890       -4.81214882502670
28
 energy: -36.701293805644 gnorm: 0.003612068945 xtb: 6.7.1 (edcfbbe)
C            1.18363071038551        0.23727454167120        0.17424619015605
C            0.31906998542644        1.03021359617103       -0.80148489826743
N            0.85516665438052        0.98498939055379       -2.14581372032573
C            1.00021708566921       -0.10926415793296       -2.88554693708413
N            1.53592222190290        0.16736574590942       -4.06855126594822
C            1.76759607814163        1.52594885191487       -4.11479322899998
C            1.32712597680231        2.05161936192140       -2.88255981687592
C            1.40549203458579        3.41522217986486       -2.61595356695189
C            1.92565722508893        4.22189936440884       -3.60529966346440
C            2.36432759355614        3.69871687661790       -4.82763408659722
C            2.29712022691590        2.34984812914744       -5.10301777089730
C            1.88012566992098       -0.79722711426179       -5.08921174714814
C            3.25537087080206       -1.40688822546364       -4.82688995926167
H            1.19290093784044       -0.82064486694089       -0.07458670911843
H            0.78074346384046        0.34521116030593        1.17677424857710
H            2.20584716544816        0.60806987255107        0.17376727064597
H           -0.69903571874489        0.63074687270185       -0.81238166600113
H            0.27628979040424        2.07586990911145       -0.49674126667834
H            0.70589666569377       -1.09501024200224       -2.57394521506004
H            1.07160484486627        3.83182594219628       -1.67940273596732
H            1.99575804118196        5.28479468771479       -3.43705907612231
H            2.76254004832138        4.37116714117075       -5.57068717724040
H            2.63955459938439        1.95479793184695       -6.04576292003367
H            1.11790525276417       -1.57947732415977       -5.10044660469259
H            1.87093957581198       -0.28699607826415       -6.05329024016254
H            3.27103236248381       -1.93175062958290       -3.87484483128325
H            3.48924167211043       -2.11763047041841       -5.61372942479739
H            4.02417896501515       -0.63829244675288       -4.81629318039967
28
 energy: -36.701370018541 gnorm: 0.002229112939 xtb: 6.7.1 (edcfbbe)
C            1.18721165385642        0.25151896527816        0.17785134200296
C            0.31218970532702        1.02721448072226       -0.80208625013196
N            0.84880605879405        0.98058942751246       -2.14666422232772
C            0.99093686299307       -0.11401617841592       -2.88720690514097
N            1.53100945859939        0.16295801858089       -4.06855918619511
C            1.76751688440970        1.52108471686197       -4.11270283369138
C            1.32666954311766        2.04666112433425       -2.88116018517970
C            1.40781630418668        3.40929382376427       -2.61236196591780
C            1.93134985940484        4.21468840930548       -3.60097583233241
C            2.36999792795688        3.69162555397984       -4.82277380787770
C            2.30041978686324        2.34327148610673       -5.10004988237813
C            1.87720140841719       -0.79960154517961       -5.09110242650908
C            3.25840992949536       -1.39743432294944       -4.83571136917672
H            1.21033040743475       -0.80770502372179       -0.06538336157682
H            0.78322054451198        0.35965216439787        1.17983500950406
H            2.20477445353175        0.63526257484770        0.17539887462913
H           -0.70063181334280        0.61455015452516       -0.81057221872505
H            0.25562626567117        2.07432106617501       -0.50427971077979
H            0.69138481199674       -1.09835995293770       -2.57785377524005
H            1.07381007312193        3.82578454452768       -1.67599861260392
H            2.00355505932152        5.27729606348257       -3.43225370307150
H            2.76993778141924        4.36398537967235       -5.56490012718842
H            2.64253288150313        1.94801568413829       -6.04264320226881
H            1.12109616647803       -1.58768517020869       -5.09804214049451
H            1.85778727912809       -0.28951166915415       -6.05531495090750
H            3.28186924285170       -1.92585821965754       -3.88566738758146
H            3.49687488331230       -2.10303796296979       -5.62571566929767
H            4.02051657963906       -0.62216359301805       -4.82424549954194
28
 energy: -36.701501492699 gnorm: 0.002251934814 xtb: 6.7.1 (edcfbbe)
C            1.19374674669420        0.27818934796159        0.18417081577261
C            0.29846927991014        1.02006789372141       -0.80374227055150
N            0.83797091015407        0.97329018281272       -2.14800311130948
C            0.97589961796906       -0.12142995557970       -2.88991971678245
N            1.52333222426566        0.15551887619569       -4.06824136908039
C            1.76826362455644        1.51263479372273       -4.10863185269943
C            1.32629343719337        2.03820281978253       -2.87821455397232
C            1.41216599426727        3.39923862702803       -2.60578215163996
C            1.94159125311680        4.20243960786945       -3.59322848062311
C            2.38046192844171        3.67959112946909       -4.81387984032062
C            2.30715535863061        2.33197241198691       -5.09434350027010
C            1.87108061717095       -0.80489684615988       -5.09342970185233
C            3.26337068469375       -1.38104255882186       -4.85265285817873
H            1.24526461611075       -0.78292275834759       -0.04926504483019
H            0.78663467723876        0.38508918436949        1.18490570665056
H            2.20142740470005        0.68856775241099        0.17885373837888
H           -0.70304025716293        0.57964022343651       -0.80993772545160
H            0.21272520262948        2.06922458121498       -0.51815356709484
H            0.66770983095806       -1.10343367569413       -2.58418113023595
H            1.07839804183610        3.81594552654665       -1.66985836603708
H            2.01791078286287        5.26448320766182       -3.42350469288887
H            2.78434524745135        4.35165969764509       -5.55399524191626
H            2.64978761329368        1.93672815283936       -6.03633890762322
H            1.12569703999829       -1.60320157125417       -5.08915659050647
H            1.83123510613692       -0.29647713863857       -6.05843167974440
H            3.30254594976947       -1.91563716798150       -3.90629590015562
H            3.50864218318175       -2.07743620622566       -5.64868777376707
H            4.01313488393150       -0.59360613797162       -4.84119423327007
28
 energy: -36.701664979719 gnorm: 0.004988210403 xtb: 6.7.1 (edcfbbe)
C            1.20277298052909        0.31695872949136        0.19255886506691
C            0.27843956898736        1.00860964565035       -0.80669399060749
N            0.82272293517135        0.96324719609016       -2.14979988026928
C            0.95597658015296       -0.13111398087296       -2.89356353020737
N            1.51300925171118        0.14510738896964       -4.06769676186565
C            1.76914181059561        1.50062800833503       -4.10293715440473
C            1.32509767782787        2.02634448452221       -2.87387992004910
C            1.41825864772805        3.38540137881069       -2.59676278390122
C            1.95671967754385        4.18599988775875       -3.58180502585848
C            2.39651035915147        3.66331438592717       -4.80097826101028
C            2.31708365172469        2.31669229864690       -5.08567656860644
C            1.86164004566914       -0.81325115350781       -5.09563524859388
C            3.26994991547828       -1.35821560470508       -4.87728709767164
H            1.29693653431287       -0.74547119087464       -0.02782205506846
H            0.79064638078045        0.42060548455005        1.19145056619399
H            2.19462450881516        0.76718962075105        0.18292366278198
H           -0.70507587550903        0.52639986948412       -0.81004595021075
H            0.14840160821437        2.05910386443117       -0.53738287659991
H            0.63699684668268       -1.11035440386213       -2.59214758951035
H            1.08478586533551        3.80255488829690       -1.66140117866211
H            2.03873211235388        5.24723290833147       -3.41040279438540
H            2.80616161375164        4.33478309056257       -5.53832030934189
H            2.66092914571808        1.92159368652336       -6.02683416527172
H            1.13199072047410       -1.62619121747966       -5.07302773390146
H            1.79195417573391       -0.30922283840735       -6.06223186537976
H            3.33334346653870       -1.89999840696881       -3.93581445025444
H            3.52282252253740       -2.04215000055643       -5.68174874635160
H            4.00164727198956       -0.55339801989754       -4.86817715605953
28
 energy: -36.701818793126 gnorm: 0.007152172499 xtb: 6.7.1 (edcfbbe)
C            1.21135350491617        0.35867160945903        0.20013890581014
C            0.25792819606477        0.99585182651193       -0.80999560564898
N            0.80643577542844        0.95269221716680       -2.15165078137438
C            0.93562666011152       -0.14091487204608       -2.89730195665720
N            1.50214821917362        0.13390086597030       -4.06712194957497
C            1.76893847469769        1.48761213444277       -4.09729202016754
C            1.32250334977540        2.01362954433915       -2.86942460441054
C            1.42414372482588        3.37076772054831       -2.58769453784584
C            1.97296472266763        4.16906830699244       -3.56927838742083
C            2.41410705882035        3.64640006223514       -4.78717839473926
C            2.32709335345659        2.30090024921794       -5.07614161968110
C            1.85132754385738       -0.82300186168515       -5.09682421491981
C            3.27669156883733       -1.33343685557545       -4.90364966892186
H            1.35024233661522       -0.70263193470124       -0.00731700324414
H            0.79475166999238        0.45819118131415        1.19743130778947
H            2.18451223060570        0.85023075832709        0.18427105838237
H           -0.70457247809474        0.47019494659850       -0.80911389908637
H            0.08100677371023        2.04495999919523       -0.55649558428140
H            0.60697113685655       -1.11776261527316       -2.59958496431614
H            1.09060624882114        3.78829788824662       -1.65284271138581
H            2.06218220230885        5.22925083709025       -3.39524010984915
H            2.83162290394171        4.31681030121923       -5.52103474204985
H            2.67251439132861        1.90588233611145       -6.01644604768711
H            1.13983965004737       -1.65185959067070       -5.05313171287117
H            1.74956830637353       -0.32618773691443       -6.06534142856882
H            3.36802985024333       -1.87987042163431       -3.96667258821842
H            3.53557398489549       -2.00529521458845       -5.71626444028574
H            3.98810863972207       -0.50995168189668       -4.89994229877565
28
 energy: -36.701997468498 gnorm: 0.007703341784 xtb: 6.7.1 (edcfbbe)
C            1.21957148892065        0.40494011237538        0.20564473727428
C            0.23663579235259        0.98160646258118       -0.81350716876562
N            0.78732374279558        0.94088956286794       -2.15391392824162
C            0.91294765378147       -0.15158384685369       -2.90150314415289
N            1.48920648808933        0.12101703955889       -4.06672388287982
C            1.76629200051124        1.47258828669796       -4.09183190783638
C            1.31705204454881        1.99911089263200       -2.86505351069735
C            1.42944509225230        3.35420930680048       -2.57833604994476
C            1.99180542734325        4.15025643120142       -3.55454011777728
C            2.43489180779219        3.62739999257818       -4.77133701103582
C            2.33698969425580        2.28343463807887       -5.06531602139435
C            1.83982151079775       -0.83500248761859       -5.09673225296248
C            3.28394844037313       -1.30397298030329       -4.93232439196128
H            1.40532044225758       -0.65186730330925        0.01224273540396
H            0.80075279846079        0.50029439305610        1.20219490972617
H            2.16987335721924        0.93927227065877        0.17947482275138
H           -0.70059965845325        0.41155416402776       -0.80506214264739
H            0.01083979657243        2.02544689849515       -0.57605301504617
H            0.57599380933787       -1.12646115552683       -2.60675144464442
H            1.09515063149472        3.77193398480518       -1.64399060410845
H            2.09064339258181        5.20895042573628       -3.37647407779318
H            2.86318898599805        4.29606440036625       -5.50063258492230
H            2.68395790936035        1.88838206647733       -6.00489119999351
H            1.15122204672525       -1.68226357154040       -5.02834606009466
H            1.70230754975102       -0.34960231077585       -6.06741994750908
H            3.40917237459410       -1.85063179284348       -3.99911813439932
H            3.54773682443921       -1.96445177615444       -5.75228101264076
H            3.97072855584698       -0.45911410406842       -4.93855759370699
28
 energy: -36.702203419680 gnorm: 0.004122648433 xtb: 6.7.1 (edcfbbe)
C            1.22510131281294        0.44383787333091        0.20532349306759
C            0.22057174178062        0.96946026209815       -0.81637099321631
N            0.76947936337292        0.93052658794511       -2.15634512237588
C            0.89426593669316       -0.16061606500168       -2.90517300356330
N            1.47721234033324        0.10961292365011       -4.06689818814487
C            1.76053461404888        1.45929022354561       -4.08846433157985
C            1.30837391217850        1.98627431409757       -2.86232828020787
C            1.43190511890020        3.33975721320031       -2.57138601978418
C            2.00865429800487        4.13446830235394       -3.54052880078052
C            2.45397553979224        3.61133588139004       -4.75703394301087
C            2.34349306246939        2.26922266241268       -5.05574161964362
C            1.83070753236109       -0.84631222120322       -5.09490823611049
C            3.28887581960218       -1.27699573235057       -4.95492740860153
H            1.44789830458756       -0.60500683132805        0.02400805357138
H            0.80821839372998        0.53649126534586        1.20282405913979
H            2.15278440439415        1.01107466646723        0.16583008259971
H           -0.69245006577706        0.36714696451481       -0.79717554465330
H           -0.04201724014552        2.00397224201978       -0.59083506278575
H            0.55398793039643       -1.13508185340372       -2.61141682743827
H            1.09553141133404        3.75717107724688       -1.63742980942889
H            2.11818399392895        5.19132209215956       -3.35713973217017
H            2.89460554174828        4.27769410693922       -5.48124956561794
H            2.69100144571418        1.87408874832537       -5.99529140917836
H            1.16531371693127       -1.70922604638111       -5.00522856193871
H            1.66420620043124       -0.37529063430026       -6.06705146630755
H            3.44557318009996       -1.81565480913604       -4.02288018333012
H            3.55397312851616       -1.93181375645599       -5.77806983006003
H            3.95225906176042       -0.41434945748148       -4.97525174845019
28
 energy: -36.702300385181 gnorm: 0.007479630813 xtb: 6.7.1 (edcfbbe)
C            1.23600593643197        0.50357140599060        0.20658532061329
C            0.19402112020406        0.95142967575165       -0.82183124334903
N            0.74329807852564        0.91342658428063       -2.16037850379748
C            0.86917836830954       -0.17635253862653       -2.91043332724738
N            1.46123515249833        0.09282941652267       -4.06734227937492
C            1.75439150887814        1.44039300694732       -4.08275303987840
C            1.29674431083089        1.96697391003286       -2.85794327905118
C            1.43610053263717        3.31813281365626       -2.55998498747085
C            2.03284914375216        4.11175008265885       -3.51825136170001
C            2.48150756615152        3.58909802990080       -4.73502256073596
C            2.35448733942835        2.24995659528643       -5.04077200860967
C            1.81884415752768       -0.86008176400241       -5.09501763224899
C            3.29416146795702       -1.24220692290061       -4.98833296901399
H            1.52398715863977       -0.53802537385800        0.04594790199100
H            0.81696389481241        0.59129665013268        1.20400761878313
H            2.13009359626832        1.12902979629725        0.15267488751865
H           -0.68349073544941        0.29440334134660       -0.78781418027887
H           -0.12887649236998        1.97741217806163       -0.61868188204028
H            0.52209908875385       -1.15058540191723       -2.61985154320081
H            1.09558341115656        3.73402497994903       -1.62633405104716
H            2.15580242373976        5.16601374375435       -3.32716366812515
H            2.93761844313516        4.25298091391840       -5.45224973362149
H            2.70163361268098        1.85491957196695       -5.98100604586693
H            1.18519930558066       -1.74345426387146       -4.97978685224973
H            1.61329999829696       -0.40522563589396       -6.06781424435780
H            3.49215668950346       -1.77068119640335       -4.05790844671407
H            3.56006928982036       -1.89098673832802       -5.81589282775358
H            3.92725563229906       -0.35764286065211       -5.02778906117245
28
 energy: -36.702404655156 gnorm: 0.003244782931 xtb: 6.7.1 (edcfbbe)
C            1.23652524188722        0.51320497088691        0.20187432338013
C            0.19319189632515        0.94984711085654       -0.82269757724033
N            0.73891089664664        0.90951357992430       -2.16189412587951
C            0.86858013157558       -0.18006530337740       -2.91124270201160
N            1.45908689439651        0.08998527190045       -4.06844696077371
C            1.75008593254363        1.43785129088915       -4.08371093719590
C            1.29105033526810        1.96358702343560       -2.85875084976942