23
 energy: -23.522134827779 gnorm: 0.052742379414 xtb: 6.7.1 (edcfbbe)
C            0.94442000000000        0.05798000000000       -0.03491000000000
C            0.56125000000000       -1.35438000000000       -0.44541000000000
N            1.01351000000000       -2.43615000000000        0.55359000000000
C            0.49511000000000       -2.21585000000000        1.98730000000000
C           -1.01823000000000       -2.11215000000000        2.08293000000000
C            0.53552000000000       -3.79517000000000        0.02422000000000
C            2.54625000000000       -2.49201000000000        0.61062000000000
H            0.48478000000000        0.35256000000000        0.91215000000000
H            0.59479000000000        0.76440000000000       -0.79561000000000
H            2.02716000000000        0.18433000000000        0.04706000000000
H           -0.52480000000000       -1.44041000000000       -0.55652000000000
H            1.01773000000000       -1.60151000000000       -1.41128000000000
H            0.85231000000000       -3.06023000000000        2.58876000000000
H            0.96724000000000       -1.30628000000000        2.37334000000000
H           -1.51661000000000       -3.02239000000000        1.73926000000000
H           -1.30632000000000       -1.96312000000000        3.12922000000000
H           -1.41121000000000       -1.26300000000000        1.51770000000000
H            1.03428000000000       -3.98662000000000       -0.93098000000000
H            0.80049000000000       -4.56573000000000        0.75399000000000
H           -0.54642000000000       -3.75764000000000       -0.12453000000000
H            2.92915000000000       -2.59052000000000       -0.40930000000000
H            2.91774000000000       -1.57652000000000        1.07753000000000
H            2.83638000000000       -3.35881000000000        1.21252000000000
23
 energy: -23.527455292645 gnorm: 0.026679241044 xtb: 6.7.1 (edcfbbe)
C            0.94787288015761        0.04944131224003       -0.02375252246258
C            0.57310362443925       -1.36620440868454       -0.41869325441563
N            1.01745186983154       -2.44144092280817        0.55182715322269
C            0.49375414685005       -2.21810471394923        1.95588087155004
C           -1.01507752886820       -2.11247627156615        2.06881346650268
C            0.54129951086582       -3.76759406550719        0.03242687332835
C            2.51720738328010       -2.48838119899600        0.61282470307819
H            0.48566716622191        0.35309224768490        0.91285104585152
H            0.58917233089414        0.72995954015719       -0.79552456881507
H            2.02467231795316        0.18559881257403        0.04744280396959
H           -0.50950319576851       -1.45214188673621       -0.52571671606543
H            1.02651045417738       -1.61342375130988       -1.38142276452956
H            0.85112745791730       -3.05850349202614        2.55550400743186
H            0.96343318270529       -1.30996068770321        2.33739501552538
H           -1.51703226684417       -3.01975317136948        1.74017962829741
H           -1.27367319156656       -1.96493618286008        3.11703162337317
H           -1.41218930361440       -1.26340883374931        1.51704268180476
H            1.02939024557891       -3.97529830957371       -0.91730157421944
H            0.79487724240491       -4.54717794270887        0.74694609660719
H           -0.53443811251198       -3.74492239789187       -0.11847046720748
H            2.91653035491846       -2.58461699653590       -0.39408880846853
H            2.90056366636930       -1.58226751009630        1.07379329928351
H            2.82379976460870       -3.34669916858392        1.20666140635737
23
 energy: -23.528628226604 gnorm: 0.003359528344 xtb: 6.7.1 (edcfbbe)
C            0.95090957572115        0.03945152078973       -0.01640432410573
C            0.57987129456063       -1.38061443152780       -0.40430230303208
N            1.01951537658486       -2.44420745596686        0.55090413602998
C            0.50008823327780       -2.22127072334497        1.93561849170024
C           -1.00934932956682       -2.11424535804395        2.05753756186035
C            0.54830398210178       -3.74258547825393        0.03701028443566
C            2.49113717887234       -2.48781650469699        0.61677887782911
H            0.48809507105993        0.35124716312350        0.91435524096749
H            0.58452951538702        0.70229125764922       -0.79634884163183
H            2.02436040725309        0.18508878184583        0.04949486602062
H           -0.50250661499437       -1.45818423740128       -0.50770423702384
H            1.02648546060278       -1.61773028037598       -1.37168172605147
H            0.85208423605679       -3.05544117848584        2.54534941219356
H            0.96112520216082       -1.31021141453917        2.31728065325782
H           -1.51708505184046       -3.01875228250286        1.73828946535324
H           -1.24713355485727       -1.96663748200673        3.10804974815195
H           -1.41179629617439       -1.26534660296313        1.51427534671028
H            1.02615275036182       -3.96381221119484       -0.91422629612407
H            0.79388519592115       -4.53379455056602        0.74115530459933
H           -0.52685731673725       -3.72901936151388       -0.11371505560809
H            2.90661783401766       -2.58337912824233       -0.38341306113219
H            2.88239391112181       -1.58396892599978        1.07378130136861
H            2.81369293910910       -3.34028111578195        1.20956515423108
23
 energy: -23.528655955189 gnorm: 0.001365946155 xtb: 6.7.1 (edcfbbe)
C            0.95118524998565        0.04124360811473       -0.01746895645604
C            0.57985688262938       -1.38055925221718       -0.40350146492974
N            1.02081186961983       -2.44594737505404        0.55032382490658
C            0.49980465357133       -2.22092550910432        1.93495178409552
C           -1.01072612590089       -2.11456031581527        2.05909580028485
C            0.54688619368707       -3.74529190764750        0.03571267787509
C            2.49441721579063       -2.48760815109839        0.61724153952067
H            0.48875142645128        0.35341062914287        0.91394486381712
H            0.58425988743333        0.70343507519377       -0.79807959691801
H            2.02510795559240        0.18673125703373        0.04866629045871
H           -0.50319374104531       -1.45670400426210       -0.50635498148464
H            1.02497854415338       -1.61683726324054       -1.37224045926411
H            0.85195408373206       -3.05413746443211        2.54664196638390
H            0.95962729329213       -1.30876016548927        2.31691091050987
H           -1.51855591002137       -3.01942531115299        1.73944231875871
H           -1.24755019017744       -1.96686116853327        3.11008786671768
H           -1.41382742827489       -1.26566566418574        1.51530166563246
H            1.02350166906681       -3.96480465376839       -0.91760231307142
H            0.79324178788515       -4.53898328846975        0.73848950841825
H           -0.52957078909443       -3.73060728626536       -0.11405509986392
H            2.91226866476239       -2.58490701052715       -0.38299106908597
H            2.88481983727319       -1.58199533120866        1.07425002019361
H            2.81647096958832       -3.33945944701308        1.21288290350083
23
 energy: -23.528659820674 gnorm: 0.000633639981 xtb: 6.7.1 (edcfbbe)
C            0.95235047124324        0.04207208736680       -0.01859976921392
C            0.57990546784861       -1.38082946040277       -0.40368093310296
N            1.02063265512770       -2.44570683921938        0.55040416945719
C            0.50008410716534       -2.22109516283432        1.93498402570241
C           -1.01151765277065       -2.11588999462499        2.06005924773663
C            0.54716199139776       -3.74509823703878        0.03464855856793
C            2.49446996090315       -2.48824287306996        0.61815900727108
H            0.49013737433670        0.35541981434485        0.91284361914058
H            0.58517814658971        0.70274007831612       -0.80023424062315
H            2.02648478645742        0.18727729472033        0.04757634332293
H           -0.50370349123886       -1.45520433132659       -0.50485394621782
H            1.02310246663826       -1.61645134423781       -1.37382051352495
H            0.85270626017166       -3.05301487522524        2.54872581642580
H            0.95800799831176       -1.30740371484854        2.31636258554391
H           -1.51917764804746       -3.02098452059773        1.74019396466851
H           -1.24659129884399       -1.96868440143672        3.11140169190924
H           -1.41575739047115       -1.26694516255639        1.51664637512887
H            1.02140569237421       -3.96284571529371       -0.92095060043280
H            0.79535998663528       -4.54050664978118        0.73556397016002
H           -0.53027118884868       -3.73026498035042       -0.11267533951458
H            2.91379783933444       -2.58827735613439       -0.38169929600818
H            2.88433533386613       -1.58074845383126        1.07340122963797
H            2.81641813181942       -3.33853520193791        1.21719403396528
