23
 energy: -31.566249519157 gnorm: 0.270165553345 xtb: 6.7.1 (edcfbbe)
N            1.02300000000000        0.09709000000000        0.00668000000000
C            2.28397000000000        0.09709000000000        0.00668000000000
C            3.80397000000000        0.09709000000000        0.00668000000000
C            4.38502000000000       -0.79839000000000        1.09719000000000
C            3.95291000000000       -2.26143000000000        1.01852000000000
N            4.16216000000000       -2.85656000000000       -0.30551000000000
C            3.19679000000000       -3.53414000000000       -1.04154000000000
C            3.79167000000000       -3.93244000000000       -2.20331000000000
N            5.10527000000000       -3.49677000000000       -2.14893000000000
C            5.33132000000000       -2.90302000000000       -0.96765000000000
C            6.09676000000000       -3.66088000000000       -3.20521000000000
H            4.15597000000000       -0.21523000000000       -0.98247000000000
H            4.14980000000000        1.12589000000000        0.15947000000000
H            5.47878000000000       -0.74420000000000        1.03592000000000
H            4.10816000000000       -0.40685000000000        2.08391000000000
H            4.52616000000000       -2.85698000000000        1.73851000000000
H            2.89528000000000       -2.36165000000000        1.28800000000000
H            2.20187000000000       -3.64172000000000       -0.64024000000000
H            3.44962000000000       -4.47142000000000       -3.07134000000000
H            6.27766000000000       -2.50048000000000       -0.62640000000000
H            5.80042000000000       -3.05130000000000       -4.06349000000000
H            7.07720000000000       -3.33371000000000       -2.84953000000000
H            6.14701000000000       -4.71368000000000       -3.49469000000000
23
 energy: -31.599036296656 gnorm: 0.043184065945 xtb: 6.7.1 (edcfbbe)
N            1.15223456228115        0.10002762612077       -0.00309130694445
C            2.28878098484565        0.10065053971538       -0.00349319921208
C            3.76793856830078        0.08580667616151        0.01418739216579
C            4.38197350312485       -0.80380608578698        1.09640106020147
C            3.95430377155267       -2.27105387211726        1.02005529529304
N            4.16350718444969       -2.86445839949674       -0.29681545822027
C            3.21023258408761       -3.52182298531255       -1.03781700756780
C            3.80441616174480       -3.92063846986454       -2.19579518869681
N            5.11023859857169       -3.50117912076761       -2.14317805313184
C            5.31534098629008       -2.89082383240322       -0.97558117471902
C            6.09004975983712       -3.66358049619660       -3.19867101967175
H            4.11912358718329       -0.21779613008115       -0.97866392267900
H            4.11153553756928        1.11528993846097        0.16486272596427
H            5.47281893341216       -0.73445296185038        1.02903893619572
H            4.10164167967047       -0.41948566481630        2.08056805096779
H            4.52948129202304       -2.85427365412883        1.74649215391349
H            2.89539054554135       -2.36584448983039        1.27425691681373
H            2.21420776305901       -3.63787419845360       -0.65273844723572
H            3.44756037240550       -4.46028360708281       -3.05359493012481
H            6.25623823737501       -2.49220270725791       -0.63721315134599
H            5.79890814865693       -3.06052816497017       -4.06108810949366
H            7.06804337296798       -3.33492557415720       -2.85015969082439
H            6.14680386504988       -4.71043436588440       -3.49671187164772
23
 energy: -31.601218836841 gnorm: 0.015311775707 xtb: 6.7.1 (edcfbbe)
N            1.18737688790053        0.04235183678911        0.01869155077786
C            2.32641790125396        0.07123201787594        0.01189948078259
C            3.77728333913062        0.08763968115125        0.00512174936037
C            4.38614784508054       -0.80528271653396        1.08989323246106
C            3.95146399516933       -2.27223425052064        1.01819666716254
N            4.16326845506956       -2.86256572456757       -0.29257094010321
C            3.21467958608793       -3.50356511246702       -1.03837231306519
C            3.80966643275186       -3.90439474878578       -2.19330481397127
N            5.11298619281724       -3.49924178761823       -2.13828293810457
C            5.30656136858659       -2.87720253820628       -0.97853200519226
C            6.08737960526574       -3.67118585844007       -3.18858201351756
H            4.11076432469771       -0.21245874868569       -0.99408281224150
H            4.09523642262369        1.12204101234061        0.16580198398225
H            5.47430023695066       -0.72982265039901        1.02475991712625
H            4.09414550648250       -0.43173780439097        2.07336115498249
H            4.51700009047255       -2.85175384422014        1.75505095493762
H            2.88801757219055       -2.36158902862878        1.25153791187421
H            2.21253796767676       -3.61670557498449       -0.67506549659825
H            3.43613877144014       -4.43789469454146       -3.04480288553272
H            6.24143682063951       -2.47046522488818       -0.64459735915205
H            5.80156336532853       -3.07591696951111       -4.05732770743350
H            7.06529834438863       -3.34532843769102       -2.84199959065760
H            6.14109896799487       -4.71760883307646       -3.48554372787753
23
 energy: -31.601837740322 gnorm: 0.009246107423 xtb: 6.7.1 (edcfbbe)
N            1.20137812929075       -0.03695725640507        0.03360126034778
C            2.34204412201976        0.03453301215979        0.02323903264543
C            3.78187729379792        0.08853393317575        0.00305177920901
C            4.39901720944636       -0.80127155013761        1.08886177310912
C            3.94893990624622       -2.26409261399043        1.01241620231971
N            4.16251469526649       -2.85475105133012       -0.29292197597030
C            3.21560610522903       -3.48543775279382       -1.04029247470813
C            3.81101909686502       -3.88757916534136       -2.19531776413684
N            5.11377631092632       -3.49345668541261       -2.13781824951525
C            5.30282291783573       -2.87051657289700       -0.97963379874221
C            6.08616950073463       -3.67818171351494       -3.18143536368075
H            4.11773676327046       -0.20586607138168       -0.99638370906287
H            4.08513353276865        1.12542936542755        0.16940802184289
H            5.48593644720269       -0.72998265724222        1.02680415748092
H            4.09857175150585       -0.43063493889262        2.06996534968241
H            4.49957801008170       -2.84552130350389        1.75870340111608
H            2.88152805559160       -2.34042640702976        1.23152503973954
H            2.20601200906394       -3.59578144543756       -0.69852594161626
H            3.41835280715411       -4.41510884405588       -3.04097847078594
H            6.23572298623737       -2.46037953193596       -0.64695982745250
H            5.80870494518473       -3.08984146030440       -4.05777157592262
H            7.06654676940803       -3.35955069343194       -2.83583559192383
H            6.13178063487264       -4.72684859572419       -3.47245127397532
23
 energy: -31.602140181970 gnorm: 0.010157937535 xtb: 6.7.1 (edcfbbe)
N            1.20972482322958       -0.11834138125167        0.04323208498027
C            2.34719465510133       -0.00202000132545        0.03057818272891
C            3.78516400036350        0.09196871294406        0.00465035682182
C            4.41102255910541       -0.79675750548148        1.08925124847139
C            3.94750787271451       -2.25586868438088        1.00924159632532
N            4.16120607436899       -2.84491490256553       -0.29450960814729
C            3.21281480886354       -3.46623922856775       -1.04444516543587
C            3.80869288521608       -3.87073579706106       -2.20009310899269
N            5.11277894039742       -3.48623843009766       -2.13971397522432
C            5.30184304027760       -2.86619287606389       -0.98008769440966
C            6.08669946430019       -3.68626170484389       -3.17647348218403
H            4.12889936603759       -0.19305725376231       -0.99480468356393
H            4.07168606822410        1.13277999400989        0.17543368600903
H            5.49719036855935       -0.73107187084022        1.02485245150341
H            4.11203678185316       -0.42557588361368        2.07001867022043
H            4.48330804620803       -2.84409508464102        1.76097661732556
H            2.87711307017526       -2.31660535748938        1.21930128500317
H            2.19757553086733       -3.57474853496025       -0.71921016089976
H            3.40046565139996       -4.39454583666142       -3.04056470288254
H            6.23563157249216       -2.45827959807771       -0.64618906047695
H            5.81900210968742       -3.10360015169421       -4.05999492564007
H            7.06971503679862       -3.37517283362666       -2.83071407928660
H            6.12349727375886       -4.73811578994779       -3.45948553224549
23
 energy: -31.602337584037 gnorm: 0.007394165281 xtb: 6.7.1 (edcfbbe)
N            1.21449628662069       -0.18667668765423        0.04359726945874
C            2.34698278096665       -0.03159174793798        0.03153312805094
C            3.78534656880747        0.09595811833877        0.01017860190659
C            4.42077387548581       -0.79283259261351        1.09054438488342
C            3.94742833598661       -2.24870423574557        1.00801475943089
N            4.15963677066081       -2.83546435468041       -0.29704106863073
C            3.20833310635869       -3.44955356916953       -1.04951604465604
C            3.80407059295942       -3.85613260540314       -2.20594347985263
N            5.11050949509125       -3.48010736835119       -2.14263829668910
C            5.30245944165716       -2.86459291891907       -0.98029180960775
C            6.08805173280587       -3.69477585724674       -3.17344038192502
H            4.13897894083994       -0.17515065889231       -0.99000760230979
H            4.05234582898625        1.14086798218602        0.18786007021700
H            5.50668316952225       -0.73208874491318        1.01765763683754
H            4.13153380667771       -0.42005165162064        2.07355086670848
H            4.47310755350979       -2.84467248480895        1.76040968292603
H            2.87586050440790       -2.29726590166553        1.21474214208249
H            2.19003735198801       -3.55553139513471       -0.73394833221648
H            3.38604199706069       -4.37685887680089       -3.04335318879787
H            6.23855541613991       -2.46250434870568       -0.64397935789664
H            5.82917154161028       -3.11724246470745       -4.06306412563540
H            7.07249456298759       -3.38898484074354       -2.82619192664482
H            6.11787033886923       -4.74973279481047       -3.44742292763970
23
 energy: -31.602501467093 gnorm: 0.004196525805 xtb: 6.7.1 (edcfbbe)
N            1.21812541217578       -0.24693146545181        0.03419226327464
C            2.34432599886047       -0.05632310508615        0.02680781302729
C            3.78207237073967        0.10106730047206        0.01865609428642
C            4.42811152372737       -0.78967643824064        1.09118916110839
C            3.94967154142446       -2.24328924154162        1.00829110131837
N            4.15853683992279       -2.82713301392786       -0.29980938115631
C            3.20319265152678       -3.43311388662011       -1.05518086940878
C            3.79804854725086       -3.84220771210622       -2.21195805582065
N            5.10759066892601       -3.47604201071541       -2.14544386037847
C            5.30379525331595       -2.86549113694705       -0.98037557368005
C            6.08927185435295       -3.70444885726140       -3.17099824217719
H            4.14801813683386       -0.15098693201995       -0.98261580209201
H            4.02650627619358        1.14955952984025        0.20849126904763
H            5.51376083024469       -0.73172845672871        1.00494404586994
H            4.15381261987688       -0.41658994647964        2.07870777813565
H            4.47118246356822       -2.84561871816478        1.75782343413410
H            2.87837638002048       -2.28497112115920        1.21581736863176
H            2.18318178517128       -3.53307529335133       -0.74419277504799
H            3.37457048579489       -4.35848644374313       -3.04915291371511
H            6.24292692543836       -2.47207423248393       -0.64116412977291
H            5.83785838472508       -3.13234238372947       -4.06601465211848
H            7.07389671881148       -3.40167426746211       -2.82136708399228
H            6.11393633109809       -4.76211216709172       -3.43539698947375
23
 energy: -31.602669025531 gnorm: 0.005022367598 xtb: 6.7.1 (edcfbbe)
N            1.22207073754698       -0.31351647860645        0.01401379373455
C            2.34098698924791       -0.08194130245849        0.01724970672106
C            3.77594152902887        0.10917553655180        0.03023839755857
C            4.43425125423668       -0.78612994058713        1.09102656400116
C            3.95474183314869       -2.23857870983740        1.00905208068029
N            4.15808845249255       -2.81914745178974       -0.30294442895088
C            3.19720978804948       -3.41331976993631       -1.06215413573418
C            3.79033397498698       -3.82616954733958       -2.21858948606485
N            5.10414325513350       -3.47439373641841       -2.14777176281296
C            5.30553882760233       -2.86944185874345       -0.98021332095640
C            6.08968727719007       -3.71691047754865       -3.16815093417163
H            4.15799126606657       -0.11605906808716       -0.97225871031485
H            3.99251232871163        1.16041880702160        0.24015751941759
H            5.51917151214079       -0.72859367905104        0.98770993545620
H            4.17798306154257       -0.41576784192354        2.08496282055515
H            4.47819398043477       -2.84506499543543        1.75317642183817
H            2.88469998196929       -2.27901437982430        1.22088674078440
H            2.17573870463030       -3.50150944140845       -0.75257916911941
H            3.36409260370000       -4.33530405554576       -3.05861935307641
H            6.24852406163229       -2.48829490490770       -0.63742599900675
H            5.84484818265897       -3.15155346947659       -4.06877701366335
H            7.07370159103494       -3.41542917980955       -2.81590285084873
H            6.11031880681381       -4.77714405483822       -3.42183681602651
23
 energy: -31.602870284625 gnorm: 0.008391671585 xtb: 6.7.1 (edcfbbe)
N            1.22857093096251       -0.38854057345069       -0.01966560236229
C            2.33545554357983       -0.11398989773818        0.00255807855533
C            3.76374844690738        0.11859475600726        0.04511693990878
C            4.43952822364014       -0.78163115418620        1.09030733200206
C            3.96495415288657       -2.23472052180536        1.01068469306107
N            4.15951202277758       -2.81086277407143       -0.30616957166414
C            3.19033170834971       -3.38546516713483       -1.07139884421339
C            3.78029455635672       -3.80378235977320       -2.22694757520525
N            5.10050406991574       -3.47514291484045       -2.14955185536727
C            5.30889493648144       -2.87838459191633       -0.97901176931531
C            6.08907542625523       -3.73404742106586       -3.16437250675837
H            4.16694547060176       -0.06830831142326       -0.95823370459335
H            3.94397220524692        1.17122025686391        0.28438669072951
H            5.52270743212372       -0.72044761457411        0.96534086455783
H            4.20409798200345       -0.41726243688917        2.09212029863371
H            4.49872924185960       -2.84189548117571        1.74642011694162
H            2.89741605727010       -2.28098302398755        1.23202184151104
H            2.16711328502842       -3.45306190719137       -0.76092664026556
H            3.35289603221374       -4.30105799508824       -3.07367188375472
H            6.25748867684075       -2.51627064863877       -0.63092793627223
H            5.85051804090867       -3.17758289133661       -4.07158476062246
H            7.07230773861527       -3.43297803305326       -2.81000495345538
H            6.10570781917470       -4.79708929353053       -3.40523925205095
23
 energy: -31.602953689486 gnorm: 0.022981065861 xtb: 6.7.1 (edcfbbe)
N            1.24039646317526       -0.51724678764532       -0.07599342789740
C            2.33246851370647       -0.16506776416570       -0.01845061073798
C            3.74802864557223        0.13686371327268        0.06746316964171
C            4.44708418436867       -0.77266584516139        1.09034056183897
C            3.98141615153233       -2.22843564700036        1.01194998060645
N            4.16255185159721       -2.79857400738833       -0.31031172792093
C            3.18079924093493       -3.34026883468936       -1.08537369708272
C            3.76570557525762       -3.76758762831416       -2.23936577095309
N            5.09557892135109       -3.47723024212915       -2.15146771271653
C            5.31383565257429       -2.89354876353132       -0.97647231995036
C            6.08596389972894       -3.76040311085568       -3.15880076432001
H            4.18029504569329        0.00506123168755       -0.93491722761615
H            3.87449282278834        1.18937674907789        0.34901511570758
H            5.52701873156952       -0.70505953505270        0.94065307405556
H            4.23405768414318       -0.41979937916566        2.10140534908276
H            4.53234014213670       -2.83435485470625        1.73647160846628
H            2.91737328686591       -2.28624449892143        1.24798371547244
H            2.15455758167642       -3.37538916416876       -0.77556826257070
H            3.33519850299950       -4.24634200206656       -3.09579806216929
H            6.27069151544067       -2.56133808392564       -0.61995736139288
H            5.85542907544137       -3.21730721821310       -4.07581546347309
H            7.06927375101226       -3.46059327250038       -2.80395661590428
H            6.09621276043367       -4.82753505443688       -3.38178355016599
23
 energy: -31.603258063927 gnorm: 0.005670889745 xtb: 6.7.1 (edcfbbe)
N            1.24370200094430       -0.51596928652017       -0.09124904626538
C            2.32999137779458       -0.17212308421039       -0.02368895707944
C            3.73782913503585        0.13471679981758        0.06877006872648
C            4.44379384569378       -0.77085411528018        1.09027391329872
C            3.99072875518217       -2.23125558292685        1.01410671715395
N            4.16735428179901       -2.79940109130402       -0.30870684207761
C            3.18152207555900       -3.32686565301350       -1.08820323554547
C            3.76386276206861       -3.75555536955713       -2.24207209498179
N            5.09676449152922       -3.48035578581152       -2.15007923910696
C            5.31780854154813       -2.90303568754186       -0.97318468108811
C            6.08402999128940       -3.76628084269283       -3.15795714806271
H            4.17007446654218        0.01178359414425       -0.93041865944164
H            3.85700952927145        1.18253964887413        0.35439534241017
H            5.52190178350342       -0.69513117607797        0.93958273623866
H            4.22826142852963       -0.42117585514279        2.10040160766309
H            4.55612278809234       -2.82976055900778        1.73455154488451
H            2.92902278951197       -2.30221377951752        1.25939665697212
H            2.15525591908986       -3.34885088913098       -0.77646690106122
H            3.33482567811605       -4.22597448625920       -3.10418366519200
H            6.27713877560454       -2.58278275264650       -0.61311320819445
H            5.85247816170018       -3.22451319592136       -4.07520500228162
H            7.06849133769027       -3.46729729871302       -2.80554730632880
H            6.09280008390391       -4.83333355156039       -3.38015260064014
23
 energy: -31.603463977477 gnorm: 0.006062350237 xtb: 6.7.1 (edcfbbe)
N            1.25458039486280       -0.59381144009630       -0.13777964214590
C            2.32684624339971       -0.21433907050122       -0.03915890821078
C            3.72078095810501        0.14182769054993        0.08127044781328
C            4.44548624185191       -0.76281032560545        1.09234768309554
C            4.00938654479290       -2.22948454207264        1.01633336829355
N            4.17469361162788       -2.79208490982775       -0.30903925688683
C            3.17833715976559       -3.28584773183221       -1.09829665465781
C            3.75517805846308       -3.72081470890055       -2.25192892844015
N            5.09556624230532       -3.48277130579336       -2.15057097944479
C            5.32527798949382       -2.92085862397724       -0.96829889232516
C            6.07955220058937       -3.78769624208473       -3.15502731987358
H            4.17197527305659        0.05933678113409       -0.91456929594958
H            3.79866297589874        1.18696195633197        0.39574658120649
H            5.52064412388887       -0.67505359382835        0.93181112593877
H            4.23395230578306       -0.42199555274947        2.10556195022198
H            4.59537370736325       -2.82031798461334        1.72761831974462
H            2.95214832751186       -2.31734787220874        1.27779238300915
H            2.15020439177728       -3.27928285127921       -0.78974383834721
H            3.32143243749366       -4.17295747386924       -3.12198866489664
H            6.29125944238653       -2.62955985272923       -0.59973279182494
H            5.85173888573593       -3.25502337385359       -4.07870275297808
H            7.06660265371610       -3.49216256138159       -2.80673262614440
H            6.08108983013053       -4.85759641081179       -3.36566130719714
23
 energy: -31.603659171451 gnorm: 0.010936696307 xtb: 6.7.1 (edcfbbe)
N            1.27031971781305       -0.69329736553407       -0.20205514974766
C            2.32496044064951       -0.27086958517502       -0.05837406279931
C            3.69781381610371        0.14722192698742        0.09598474853925
C            4.44506109514893       -0.75041118235274        1.09974164120732
C            4.03626373945920       -2.22750694474700        1.02025163625783
N            4.18762738589355       -2.78196363865142       -0.30751961087976
C            3.17909362341210       -3.22786289465553       -1.10985661892470
C            3.74757025009207       -3.66932704962016       -2.26502192674624
N            5.09550759195545       -3.48331648952531       -2.15196916218653
C            5.33722955840340       -2.94621337708383       -0.96059492407306
C            6.07179187885371       -3.81626405688519       -3.15357112725165
H            4.16850691860863        0.10929888615727       -0.89216500528060
H            3.72436306873655        1.18606063933119        0.43671495099039
H            5.51726838908711       -0.64407799387258        0.93545509845203
H            4.22851833510737       -0.41969205353960        2.11473543987782
H            4.64847400404858       -2.80650736278736        1.71939734865265
H            2.98640174763868       -2.33863104513439        1.30327224042576
H            2.14927886629563       -3.18623277644714       -0.81153303940883
H            3.30204194241282       -4.09514145299149       -3.14246790897127
H            6.31044236613290       -2.69532472316541       -0.58029469091160
H            5.84778444138650       -3.29467989679619       -4.08498643588832
H            7.06476797816703       -3.52906902935368       -2.81431176077544
H            6.05968284459321       -4.88988253415781       -3.34958168055766
23
 energy: -31.603733119482 gnorm: 0.007670058954 xtb: 6.7.1 (edcfbbe)
N            1.27208146779620       -0.69184339610688       -0.20655434990316
C            2.32535597940132       -0.28020347661396       -0.05929360651434
C            3.69285337328674        0.14134945523245        0.09233776776215
C            4.43995405797710       -0.74695547767671        1.10453470993066
C            4.04456041462996       -2.22907761850334        1.02191646962328
N            4.19510403833669       -2.78152016707363       -0.30476542652929
C            3.18625241333646       -3.21431030578916       -1.10958631695382
C            3.75203110568782       -3.65477582921091       -2.26704113935481
N            5.09863647920626       -3.48222567595193       -2.15253147273063
C            5.34284992684093       -2.95434218943810       -0.95768415989663
C            6.06873285126104       -3.82243855405575       -3.15633398602923
H            4.16309327575985        0.10376754578293       -0.89261800146965
H            3.71206129225639        1.17808570941712        0.42977194008697
H            5.51282533797727       -0.63077039182523        0.95427390010792
H            4.20589213599890       -0.41667660620645        2.11607952927658
H            4.66236424112180       -2.80184655641782        1.71931191075884
H            2.99770733705632       -2.34760926590300        1.30915044908180
H            2.15650619784394       -3.16794540733592       -0.81988093114795
H            3.29831312657468       -4.07243406758858       -3.14290259394635
H            6.31550034383945       -2.71340123724474       -0.57468406904777
H            5.84318989143198       -3.30076716612866       -4.08747614552165
H            7.06577652730065       -3.54149160720518       -2.82319019485609
H            6.04912818507789       -4.89625771415658       -3.35158428272643
23
 energy: -31.603780710384 gnorm: 0.004462942640 xtb: 6.7.1 (edcfbbe)
N            1.27264402661281       -0.72095311573043       -0.22736868252271
C            2.32042043563854       -0.29664314219344       -0.06945727489118
C            3.68339675028912        0.14180802266368        0.09842797541685
C            4.43840629816801       -0.74395395125219        1.10730558937336
C            4.05509830137252       -2.22917414050941        1.02549298876553
N            4.20134527493952       -2.77777553734080       -0.30449933655185
C            3.18715897467604       -3.19411883206682       -1.11318313950999
C            3.74956941475659       -3.63647322259009       -2.27185615593465
N            5.09920765754755       -3.48264512633017       -2.15358386778601
C            5.34907468574448       -2.96283100534271       -0.95593850037634
C            6.06720338215441       -3.83388321095673       -3.15681756267347
H            4.16367042008019        0.12007120196682       -0.88509783216879
H            3.68323540247050        1.17835004228374        0.44465635083638
H            5.51101262685196       -0.61856362214898        0.95446354002130
H            4.20566695171608       -0.41695169327639        2.12095681746950
H            4.68201702595297       -2.79934559983725        1.71709192368435
H            3.01075503941621       -2.35558549521088        1.31883433295955
H            2.15576317631480       -3.13425228796101       -0.82663203953366
H            3.29053031433565       -4.04328073720406       -3.15066187771349
H            6.32488546270332       -2.73672271923150       -0.56940028384127
H            5.84306899359482       -3.31557112923346       -4.08984061940966
H            7.06574264197516       -3.55668693243837       -2.82564472281266
H            6.04089674268837       -4.90850776605958       -3.34599762280070
23
 energy: -31.603801830000 gnorm: 0.002037942062 xtb: 6.7.1 (edcfbbe)
N            1.26863701860780       -0.71669360667355       -0.22910484292619
C            2.31753389098950       -0.29173567273371       -0.07181613151444
C            3.68181372944312        0.14064766985275        0.10015347082949
C            4.43536523690888       -0.74411631547950        1.10947872421904
C            4.05657088907309       -2.22934665550605        1.02721909541053
N            4.20366914481871       -2.77702360720825       -0.30483300071435
C            3.18918926201557       -3.19262040231579       -1.11280272538780
C            3.75066781261743       -3.63415482612702       -2.27234792510644
N            5.09989969910996       -3.48214420775836       -2.15448065598823
C            5.35102761079952       -2.96272760961450       -0.95700855171256
C            6.06735380119966       -3.83553086443389       -3.15840540973064
H            4.16168796883524        0.11399231789009       -0.88263573052886
H            3.68427004012177        1.17683132929583        0.44096170175210
H            5.50833190379620       -0.61569630610991        0.95766634082011
H            4.20302901334843       -0.41735406203339        2.12373604919809
H            4.68551531339703       -2.79948232382144        1.71667080590297
H            3.01271153307090       -2.35875033577398        1.31999894199108
H            2.15826262163933       -3.13286267845916       -0.82514634653031
H            3.29062770393364       -4.03896569672845       -3.15101956510980
H            6.32715937901073       -2.73894487318191       -0.57071272889102
H            5.84350160096772       -3.31691412728348       -4.09102213956506
H            7.06596708825996       -3.56040422319002       -2.82685236509231
H            6.03797773803543       -4.90969292260632       -3.34644701132500
23
 energy: -31.603814429334 gnorm: 0.001690101086 xtb: 6.7.1 (edcfbbe)