30
 energy: -52.298802626739 gnorm: 0.000944345759 xtb: 6.7.1 (edcfbbe)
C            0.26487062317375       -0.60447158532787        1.10570366937453
C            0.12133227635674       -0.74551724879287       -0.40555646936763
C            1.02271392383466       -1.73822668024484       -1.06231527161732
O            0.75155372283484       -2.36911594880415       -2.04772476905561
C            2.41666087044930       -1.93463479944380       -0.40814902232959
N            3.25367897474318       -2.64578948956913       -1.32843724279744
C            4.36152396140822       -2.16681970495733       -1.96394679000489
C            4.72358765090763       -3.08839267080295       -2.89519677935786
N            3.82040518691239       -4.10848526997570       -2.82755168667093
C            2.93622910813770       -3.81623611172850       -1.87463200534459
C            3.86232611181636       -5.33027994527792       -3.59788766215254
C            4.91187098531272       -6.30827151470193       -3.05273711321506
C            4.67586408061143       -6.62012487096727       -1.58004526501684
F            3.38329401176501       -6.87397774563309       -1.32413764611047
F            5.38760425153426       -7.65212406892168       -1.15848666601375
F            4.99598166475419       -5.56603429136078       -0.79818917849289
H            0.10988422723478       -1.55867664340902        1.60239606809071
H           -0.49247614368385        0.08444473598994        1.46839568834742
H            1.23509438232870       -0.20849884497974        1.39243023478336
H           -0.90564741977279       -1.00656067343059       -0.67020594103982
H            0.32933583306350        0.21870043588923       -0.88295470384125
H            2.86920322460274       -0.97429402211582       -0.16235258800915
H            2.27522164710958       -2.50862462110209        0.51218525806480
H            4.81373404649933       -1.22889954333249       -1.71325752145172
H            5.53833881422946       -3.08056543182497       -3.58995297752203
H            2.11580366298284       -4.44257903908417       -1.58143938943851
H            2.87198554176084       -5.79062481932808       -3.56520208500557
H            4.10458532775284       -5.08923702858706       -4.63534573696786
H            4.85633635770261       -7.24597242086439       -3.60768817982275
H            5.92310309364116       -5.90759013731308       -3.14527822801285
