32
 energy: -56.214261244075 gnorm: 0.075506137364 xtb: 6.7.1 (edcfbbe)
C            0.29558000000000       -0.12061000000000        0.45277000000000
C            0.32599000000000        0.71614000000000       -0.78696000000000
N           -0.05925000000000        0.35819000000000       -2.03805000000000
C           -0.51863000000000       -0.97426000000000       -2.46896000000000
C            0.56233000000000       -1.77062000000000       -3.17831000000000
C            1.55519000000000       -2.32577000000000       -2.19504000000000
F            0.93741000000000       -3.09897000000000       -1.27816000000000
F            2.48791000000000       -3.07120000000000       -2.81557000000000
F            2.19071000000000       -1.33616000000000       -1.52943000000000
C           -0.02322000000000        1.47374000000000       -2.86688000000000
C            0.49193000000000        2.49838000000000       -2.13410000000000
N            0.77148000000000        1.98715000000000       -0.88163000000000
C            1.35207000000000        2.76469000000000        0.23068000000000
N            0.46475000000000        2.98468000000000        1.37145000000000
C            0.74572000000000        2.75088000000000        2.68764000000000
C           -0.39359000000000        3.08353000000000        3.38286000000000
C           -1.31124000000000        3.49082000000000        2.39708000000000
N           -0.80310000000000        3.39975000000000        1.16413000000000
H            0.17961000000000       -1.16757000000000        0.18418000000000
H           -0.55319000000000        0.22079000000000        1.04612000000000
H            1.24116000000000        0.02598000000000        0.97551000000000
H           -0.94515000000000       -1.51545000000000       -1.61986000000000
H           -1.34967000000000       -0.80813000000000       -3.16673000000000
H            0.09909000000000       -2.60438000000000       -3.71749000000000
H            1.07953000000000       -1.14968000000000       -3.91753000000000
H           -0.37003000000000        1.38962000000000       -3.88313000000000
H            0.70041000000000        3.53321000000000       -2.34769000000000
H            2.24571000000000        2.24047000000000        0.58504000000000
H            1.64866000000000        3.75688000000000       -0.12676000000000
H            1.70866000000000        2.38880000000000        3.02331000000000
H           -0.54245000000000        3.04377000000000        4.45381000000000
H           -2.32822000000000        3.84171000000000        2.52815000000000
32
 energy: -56.222829036439 gnorm: 0.031291220414 xtb: 6.7.1 (edcfbbe)
C            0.31239324981220       -0.11253714048461        0.43673105824475
C            0.33689874130567        0.71523843240266       -0.79198746141872
N           -0.08543883818723        0.36509899988044       -2.02255360214776
C           -0.54773783413352       -0.94757957126055       -2.47061735127976
C            0.54714484505427       -1.75184474852419       -3.17411342522969
C            1.55839276692606       -2.32023274838131       -2.20071138372340
F            0.95994141972741       -3.08380663051308       -1.27005999652806
F            2.48535949218600       -3.06674702051832       -2.80887184339632
F            2.20568682886120       -1.34282457307674       -1.53309207709617
C           -0.00615862839865        1.46516219441460       -2.84997946280823
C            0.50113186574878        2.48490006391160       -2.11772240769205
N            0.74312222398235        1.99450799710281       -0.85681287199121
C            1.34532294141901        2.76003322337534        0.23301563512353
N            0.45861516599650        2.94753023131398        1.35912941838776
C            0.73670311132372        2.73614288235583        2.67266793313922
C           -0.39499825331490        3.08340225552127        3.36836816740850
C           -1.31548913594786        3.47833320413436        2.38633918688370
N           -0.79399643507832        3.39554674846075        1.17364082339320
H            0.18899204998634       -1.16463670533578        0.20372469827160
H           -0.52306045952610        0.21435534979757        1.05562172740051
H            1.23946518809326        0.01797627588974        0.98931946277374
H           -0.94682642549237       -1.50094193631191       -1.61740986026602
H           -1.37216513119049       -0.78540045116674       -3.17186266691439
H            0.09463745270843       -2.59538178442329       -3.70316641973820
H            1.07849403665765       -1.14239109098227       -3.90993339018315
H           -0.33893581721689        1.39872461707615       -3.86756919652358
H            0.71191766869370        3.50958802033816       -2.35251183954927
H            2.24200642416568        2.23602358799596        0.58214100762164
H            1.63319407408443        3.74171412053030       -0.16299431419587
H            1.69668357937137        2.39173086688129        3.00679783368946
H           -0.54189108974545        3.05632931654026        4.43058051863631
H           -2.32324507787227        3.82836601305568        2.51434209970788
32
 energy: -56.224692232352 gnorm: 0.009136213240 xtb: 6.7.1 (edcfbbe)
C            0.32228134620482       -0.10762888453443        0.43332915189221
C            0.33864571226190        0.71163663030240       -0.78998805012180
N           -0.10149160724629        0.36537968761236       -2.00734827657258
C           -0.56445283882706       -0.93183117942708       -2.46221632257842
C            0.53397409319095       -1.73604829848986       -3.17222254404785
C            1.55914534272086       -2.30561967327663       -2.20279344768861
F            0.97783284533432       -3.05709609269884       -1.25582015607429
F            2.47189136140959       -3.05300662581144       -2.81110584321521
F            2.22019638262084       -1.33114902672000       -1.54487588382861
C            0.00229697703271        1.45503921515907       -2.83454218062683
C            0.51262367257503        2.47121916201331       -2.10415861840608
N            0.72955398012477        1.99204743032565       -0.83983139674799
C            1.34125032233910        2.75235306503581        0.23489809337236
N            0.45481353709380        2.91433083469557        1.34665459698717
C            0.73140414620468        2.72645479155534        2.66246744256649
C           -0.39785103607699        3.07891929864289        3.35427378226218
C           -1.31386169326142        3.47588416880700        2.36690134639199
N           -0.79116514256247        3.36850053955349        1.16572909133728
H            0.19415067881687       -1.16430091371776        0.22241293863089
H           -0.50093265811434        0.21387878445126        1.07512242939299
H            1.24503409599757        0.01483695844042        0.99536638100235
H           -0.95247391327960       -1.49647559388164       -1.61185391023507
H           -1.38167992319984       -0.76619814613428       -3.16676997168060
H            0.08236868425858       -2.58485837439187       -3.69078758881964
H            1.06891958526636       -1.12988429840471       -3.90641291732020
H           -0.31187553301446        1.40748921627155       -3.85746147220307
H            0.73190337515199        3.48673634681740       -2.36373308479879
H            2.24513049134179        2.23823509115958        0.58205017524634
H            1.61597977977241        3.72868511218934       -0.18678874959784
H            1.68882908482879        2.38808478806495        2.99856779799770
H           -0.54719001007178        3.05974435538980        4.41221645031855
H           -2.31909113889354        3.82102163100128        2.48917073716489
32
 energy: -56.225043167512 gnorm: 0.006208127039 xtb: 6.7.1 (edcfbbe)
C            0.32740183374722       -0.10766918776247        0.43967566649834
C            0.33785757749081        0.70859204817573       -0.78549898926958
N           -0.10718335498717        0.36327342068360       -2.00037736780610
C           -0.57498461582585       -0.92885580662441       -2.45451831788858
C            0.52333807773711       -1.73050501326225       -3.16908985526109
C            1.55989554513962       -2.29117670480460       -2.20403535064598
F            0.98943109844454       -3.03145958535453       -1.24180555581754
F            2.46323043480073       -3.04208995068199       -2.81628870865331
F            2.22794811332343       -1.30875244646593       -1.56312999910064
C            0.00699019348238        1.44884188681140       -2.83049864461781
C            0.52534209732695        2.46340329718844       -2.10226516309957
N            0.73628348671920        1.98590811705428       -0.83797429814989
C            1.34531191353033        2.74767485577991        0.23567884214955
N            0.45566330558956        2.90081610754535        1.34253464000287
C            0.72733756222164        2.72023679294997        2.66119778313148
C           -0.40279617438149        3.07857219473183        3.34701134358897
C           -1.31908799199219        3.46179398618218        2.35126988444728
N           -0.78798012593437        3.35780607717484        1.15422084312601
H            0.19387828779059       -1.16486960729329        0.23370696412399
H           -0.48780430912121        0.21830598223965        1.09050438208333
H            1.25605374124119        0.01284954574203        0.99337469770406
H           -0.96199317054754       -1.49740621966619       -1.60655604555795
H           -1.39201531978246       -0.75970838896530       -3.15842942340220
H            0.07131094951258       -2.58269026046905       -3.68069114354584
H            1.05144212723977       -1.12307811920820       -3.90661748784926
H           -0.30006982137194        1.41024052445331       -3.85575146100663
H            0.75066254241584        3.47452845138521       -2.37373432876180
H            2.25355056338046        2.24016865288271        0.58211382654074
H            1.61387242291880        3.72465485651668       -0.18792951891478
H            1.68328454938826        2.38016481820117        3.00117704429735
H           -0.55540196492659        3.06820174155986        4.40485202935132
H           -2.32460957457029        3.80860793330000        2.46832371230310
32
 energy: -56.225463808822 gnorm: 0.006176218085 xtb: 6.7.1 (edcfbbe)
C            0.33697234841368       -0.10902997511173        0.45295462057849
C            0.33743492683331        0.70337317956358       -0.77645618301878
N           -0.11490635164021        0.35919444301286       -1.98893596417171
C           -0.59409437892841       -0.92640422648695       -2.44088318196069
C            0.50126319050945       -1.72475801344421       -3.16438786705567
C            1.56035784041954       -2.26353599459342       -2.20846603922334
F            1.01121087722678       -2.97943346915357       -1.21405728792501
F            2.44723832111149       -3.02494969642953       -2.82586146319264
F            2.24119214101765       -1.26202496447878       -1.60535006175774
C            0.01644159494395        1.43757703023837       -2.82505165886311
C            0.55358622870402        2.44862623665142       -2.10206578207403
N            0.75698123396650        1.97375433808445       -0.83781527706679
C            1.35607921958516        2.74058557264511        0.23817293030239
N            0.45848509213978        2.87976036174299        1.33839344258299
C            0.72044688177035        2.71519665815171        2.66271667395965
C           -0.41704169667693        3.07337090078059        3.33444561972329
C           -1.32716483387888        3.44507516657794        2.32487205784738
N           -0.78583173287938        3.32935173539591        1.13350322472291
H            0.19037661280282       -1.16558067311449        0.25227598455064
H           -0.46219736204496        0.22805611356031        1.11847294438031
H            1.27970264630707        0.00657325251800        0.98605459023436
H           -0.98011162795716       -1.49929667657250       -1.59570251597591
H           -1.41359610888067       -0.75132233066543       -3.14135791781833
H            0.05003455284344       -2.58494103341800       -3.66207246725990
H            1.01258475102411       -1.11495121297191       -3.91161436234880
H           -0.28337739731870        1.41263197197413       -3.85249676836477
H            0.79016469409075        3.45202475676613       -2.39233478125148
H            2.27278080003973        2.24686446269880        0.58396560126668
H            1.61154584558255        3.72122131219604       -0.18415322918881
H            1.67456880197002        2.37513111664513        3.01121165896647
H           -0.57882174225735        3.07595445371127        4.39161569907895
H           -2.33614536883963        3.78828520352568        2.43085776032272
32
 energy: -56.225693644227 gnorm: 0.007414221393 xtb: 6.7.1 (edcfbbe)
C            0.34453828771613       -0.10918023279430        0.46274377390912
C            0.33952419054613        0.70136130178494       -0.76905489985594
N           -0.11813719319918        0.35743292148081       -1.98025678879485
C           -0.60794652100019       -0.92578768963256       -2.42918086944336
C            0.48127504303730       -1.72378958829474       -3.16162120926745
C            1.55967091150156       -2.24127199156811       -2.21510065654821
F            1.03008280504635       -2.93649622845711       -1.19398100921375
F            2.43591379001465       -3.01347222648519       -2.83305439971850
F            2.24940446072482       -1.22348832111605       -1.64515803965610
C            0.02511746863444        1.42982900152450       -2.82131169239612
C            0.57847653670425        2.43756758303880       -2.10380434540316
N            0.77805981175677        1.96590008722229       -0.83863163647431
C            1.36788870935682        2.73687178028684        0.24111919710076
N            0.46245598795535        2.86807952756820        1.33695690868306
C            0.71449346059712        2.71397423618302        2.66478681627031
C           -0.43095761074504        3.06972783960552        3.32413434524014
C           -1.33569718080131        3.42857115201698        2.30457517548090
N           -0.78359721377749        3.30979541629714        1.11829751641345
H            0.18411167695215       -1.16407622975826        0.26449358269215
H           -0.44090552209256        0.23809191988139        1.13836600521813
H            1.29837191763763       -0.00141438818871        0.97904571415229
H           -0.99124020783672       -1.49859350711436       -1.58267058757088
H           -1.43226603965718       -0.74715694195974       -3.12377868511202
H            0.03132058684181       -2.59241999235811       -3.64569387993890
H            0.97577283820276       -1.11449797280297       -3.92118187391609
H           -0.27557576090579        1.41026023343534       -3.84818799065535
H            0.82573798085670        3.43500370440228       -2.40484972565409
H            2.28861828362451        2.25188413027002        0.58853007376573
H            1.61487561884436        3.72120842474631       -0.17728455193297
H            1.66712811539913        2.37720578462281        3.02142255993414
H           -0.60216790673201        3.07980980951652        4.37995801746149
H           -2.34818732520344        3.76545045664637        2.40082315522997
32
 energy: -56.225898780973 gnorm: 0.006773719220 xtb: 6.7.1 (edcfbbe)
C            0.35130257949391       -0.10800489421395        0.47058450267271
C            0.34395758225080        0.70139651598783       -0.76221524191860
N           -0.11865675040441        0.35751899101577       -1.97206080134416
C           -0.61899027797180       -0.92500004643153       -2.41685522316039
C            0.46179316274903       -1.72432594177040       -3.15913231872342
C            1.55837895957077       -2.22188734972496       -2.22411365616861
F            1.04863130672893       -2.90031866562342       -1.18176025648314
F            2.42766036164314       -3.00327493602183       -2.84079475121050
F            2.25392626867823       -1.19156308108761       -1.68313115907829
C            0.03508193054766        1.42410053102060       -2.81792124670122
C            0.60069494883874        2.42879549587032       -2.10553162726957
N            0.79785760247106        1.96091017366989       -0.83865166879972
C            1.38021243851437        2.73493401257381        0.24411602712312
N            0.46695512587770        2.86182891101071        1.33566413749968
C            0.70918166546076        2.71627630259175        2.66583457604107
C           -0.44561225167686        3.06445036807173        3.31358417671110
C           -1.34403727822464        3.41248176607721        2.28615375752604
N           -0.78217500700041        3.29129852707397        1.10459508499382
H            0.17538544842458       -1.16070182067517        0.27425937993064
H           -0.42109846225736        0.24926717257897        1.15448490545041
H            1.31344657998742       -0.01168030206769        0.97377876330407
H           -0.99681658623716       -1.49533819270290       -1.56605675185073
H           -1.44983037696421       -0.74362818741325       -3.10328681172413
H            0.01190646803877       -2.60138295881715       -3.62825442231025
H            0.93873895087562       -1.11858655819546       -3.93344369927022
H           -0.27012784980807        1.40386311003129       -3.84328446423385
H            0.85990288089085        3.42107060197825       -2.41234735583380
H            2.30188326166049        2.25542199779755        0.59537646004211
H            1.62211962158691        3.72194276537230       -0.17096233772424
H            1.66133893382202        2.38806617860682        3.03131830631535
H           -0.62655577330705        3.07804545289870        4.36758956946209
H           -2.36029546426004        3.74040406051768        2.37291414673208
32
 energy: -56.226140320742 gnorm: 0.005366964069 xtb: 6.7.1 (edcfbbe)
C            0.35872458634267       -0.10477425068605        0.47965704213058
C            0.35150661631942        0.70329510285935       -0.75357335999266
N           -0.11696278832854        0.35939957094259       -1.96128053284749
C           -0.63047360727472       -0.92271191004320       -2.39922568508412
C            0.43668914706719       -1.72592648412591       -3.15539450391760
C            1.55677813568341       -2.19943325193222       -2.23783104104272
F            1.07481687994432       -2.86065829923236       -1.17238542932768
F            2.41878142982894       -2.98970036045438       -2.85510018640879
F            2.25828247356074       -1.15656396021130       -1.73151584223330
C            0.04900083201194        1.41903812778994       -2.81309927104223
C            0.62685890716253        2.42012751069555       -2.10683241372261
N            0.82044258628443        1.95721243952686       -0.83696165262207
C            1.39652085949300        2.73341305741680        0.24780095060893
N            0.47342632569839        2.85918479036345        1.33305041010678
C            0.70277726617313        2.72239454474722        2.66536381425410
C           -0.46475355080408        3.05699722440177        3.29903800219039
C           -1.35574813123671        3.38875607765710        2.26200945356497
N           -0.78012816558604        3.26939067612080        1.08668437134718
H            0.16089422783066       -1.15419294755887        0.28600644108797
H           -0.39741884506946        0.26606078186898        1.17314851538161
H            1.32907992001037       -0.02677745967334        0.96969949574352
H           -0.99800514591253       -1.48855992997379       -1.54070538681673
H           -1.47124458148820       -0.73844633692929       -3.07284020255259
H           -0.01640615519286       -2.61346154984122       -3.60223444572629
H            0.89000257633010       -1.12848088477517       -3.95119762320893
H           -0.26321678914826        1.39266509671689       -3.83643347888426
H            0.90296390145041        3.40665365807528       -2.41664177890727
H            2.31598117187228        2.25639469177657        0.60627792162303
H            1.63763177631925        3.72156391130091       -0.16494614194640
H            1.65511090479538        2.40984670033343        3.04328125515967
H           -0.65834207359246        3.07134480386698        4.35051298541767
H           -2.37741069054499        3.70232885897637        2.33611831766666
32
 energy: -56.226361864146 gnorm: 0.005302267226 xtb: 6.7.1 (edcfbbe)
C            0.36619472484935       -0.09964901530882        0.49058586186126
C            0.36124477251235        0.70608074030852       -0.74344279561531
N           -0.11359126754255        0.36230861110548       -1.94825447099726
C           -0.64229574454509       -0.91794770025562       -2.37709558517976
C            0.40722793763268       -1.72792410437456       -3.14971107490966
C            1.55576913077954       -2.17559566769102       -2.25519942190934
F            1.10898665460962       -2.81975239906289       -1.16446948537476
F            2.40779863425118       -2.97319716817633       -2.87900130181563
F            2.26461577975415       -1.12024991954251       -1.78894422936363
C            0.06577551038905        1.41479701978500       -2.80648742586828
C            0.65498982147267        2.41216325582249       -2.10629369092448
N            0.84325038812423        1.95427420544171       -0.83298121554808
C            1.41549432338113        2.73138138564613        0.25196190594235
N            0.48121881177752        2.85965763798122        1.32840567229163
C            0.69554228616849        2.73224723240548        2.66314346058645
C           -0.48699196745862        3.04763429513447        3.28077759869583
C           -1.37005357073667        3.35840390371200        2.23182063700123
N           -0.77736162312378        3.24394792789751        1.06412842678551
H            0.14205763889489       -1.14495379158446        0.30129545114427
H           -0.37161199403538        0.28799757283523        1.19449236834126
H            1.34435605914037       -0.04447892009759        0.96807977812604
H           -0.99602873089454       -1.47909252376362       -1.50963785720893
H           -1.49480591403793       -0.73037557506457       -3.03489488563489
H           -0.05318058400847       -2.62669372949125       -3.56727557718179
H            0.83319863587989       -1.14348421646867       -3.97089492602160
H           -0.25202836964906        1.37974843540770       -3.82833102698562
H            0.94946331646767        3.39303197597573       -2.41704356862972
H            2.33006585104788        2.25313609601541        0.62038364673136
H            1.66179252547398        3.71821909560384       -0.16079220472022
H            1.64849819836190        2.44103730305105        3.05630986823593
H           -0.69496219711146        3.06076146949420        4.32940408041694
H           -2.39846903782536        3.65294656725844        2.29041198772793
32
 energy: -56.226532665353 gnorm: 0.005122404374 xtb: 6.7.1 (edcfbbe)
C            0.37292681691543       -0.09346422784232        0.50282485065684
C            0.37154737120646        0.70875730383804       -0.73308966941078
N           -0.10889891246774        0.36507663399271       -1.93503800576571
C           -0.65256558168771       -0.91161561677801       -2.35417297575526
C            0.37859621073606       -1.72968781420516       -3.14268354354471
C            1.55527669568194       -2.15472384225253       -2.27382719212496
F            1.14470291783157       -2.78525138080514       -1.16160598851275
F            2.39616459946818       -2.95592898115179       -2.90947623197554
F            2.26969592039560       -1.08905504993292       -1.84507823888441
C            0.08122846404905        1.41167237898431       -2.79869611744524
C            0.68021538386764        2.40583189299256       -2.10369479795390
N            0.86351508024338        1.95190295161451       -0.82768645323628
C            1.43457140862690        2.72882402674096        0.25615700537210
N            0.48928961610192        2.86361019708252        1.32252412336007
C            0.68830285092644        2.74452786740559        2.65970112974205
C           -0.50871908091134        3.03823275877165        3.26123521056401
C           -1.38427190559738        3.32615239193731        2.19964552489508
N           -0.77365303911847        3.21942499926519        1.04010489884827
H            0.12378585438449       -1.13422329517356        0.31944748897755
H           -0.34781941069003        0.31127517029069        1.21490692587030
H            1.35699685407727       -0.06002907908415        0.96986204706894
H           -0.99242504150090       -1.46930627042879       -1.47918622927519
H           -1.51605589578747       -0.72060186165997       -2.99629811751010
H           -0.09032930287005       -2.63800842286961       -3.52948879609900
H            0.77832163530048       -1.16003167858506       -3.98674171137233
H           -0.23899066380979        1.36883745350834       -3.81979767709084
H            0.98881641548628        3.38229972187690       -2.41408534184052
H            2.34216381645865        2.24535923174395        0.63561833686054
H            1.69228447831413        3.71212012576806       -0.15826727608338
H            1.64153075005199        2.47588905933205        3.06808622292023
H           -0.73063848432814        3.04883052355193        4.30702110746313
H           -2.41940582135532        3.59968283207133        2.24222949128059
32
 energy: -56.226642434175 gnorm: 0.003818085105 xtb: 6.7.1 (edcfbbe)
C            0.37855458415249       -0.08834478937841        0.51404955223347
C            0.38055542273913        0.71010400284102       -0.72444204931926
N           -0.10391324311047        0.36661357616090       -1.92432688113073
C           -0.65948358356912       -0.90564538728920       -2.33578583212899
C            0.35631011857962       -1.73133243959224       -3.13650250735833
C            1.55483111422733       -2.14066197857354       -2.29007856425115
F            1.17441940539056       -2.76176391630972       -1.16265694529516
F            2.38468196835742       -2.94296140151955       -2.93927820253362
F            2.27272877787836       -1.06758013918601       -1.89044837962557
C            0.09221253149589        1.40973884920671       -2.79115548411585
C            0.69810825308501        2.40176726801577       -2.09943145276364
N            0.87873654830437        1.94981964994099       -0.82238643708215
C            1.45009036500003        2.72586536498127        0.26038537382027
N            0.49567497231061        2.86930733680328        1.31735457614261
C            0.68200490201749        2.75706155156779        2.65673420320253
C           -0.52611412176258        3.03155686304640        3.24460211387476
C           -1.39534843271159        3.29942184679934        2.17211561904924
N           -0.76995114505558        3.19983010916281        1.01977742947177
H            0.11151433831059       -1.12515812779899        0.33661830410495
H           -0.32997758308871        0.32991867136089        1.23034842278308
H            1.36586377284011       -0.07000884231257        0.97416282646994
H           -0.98916752991734       -1.46183218867204       -1.45645033107841
H           -1.53058432765079       -0.71137482712389       -2.96607487823970
H           -0.11962410195781       -2.64594389674422       -3.49745260132999
H            0.73521589547369       -1.17430049014062       -3.99681233466877
H           -0.22690466079011        1.36364284616159       -3.81239579869459
H            1.01301060029726        3.37596145837428       -2.40997305203129
H            2.35041209266555        2.23534547342336        0.64956692159596
H            1.72171135949099        3.70474086674970       -0.15616945567244
H            1.63502283544292        2.50761331195423        3.07708572844104
H           -0.75893342189342        3.04057930046201        4.28805464649723
H           -2.43549770655243        3.55440007762824        2.20141546963140
32
 energy: -56.226703234672 gnorm: 0.002589450838 xtb: 6.7.1 (edcfbbe)
C            0.38425745886258       -0.08552272529272        0.52343484089310
C            0.38850758771794        0.70981903951420       -0.71749336830652
N           -0.09921391620145        0.36686687642888       -1.91608508716881
C           -0.66465351140677       -0.90114529960836       -2.32219633230014
C            0.33884495306554       -1.73344813551428       -3.13213559131603
C            1.55439314778148       -2.13088189631590       -2.30390046245715
F            1.19849051569479       -2.74347153693694       -1.16383710150444
F            2.37319273757121       -2.93513178425776       -2.96468857963024
F            2.27566082980570       -1.05134575201486       -1.92813474075787
C            0.10002406955649        1.40828002885353       -2.78430763977740
C            0.71150544463555        2.39876422475163       -2.09446968467765
N            0.89168961422335        1.94724445340761       -0.81770036731901
C            1.46267743434810        2.72234942436826        0.26530284505562
N            0.50040117005777        2.87418489056032        1.31402109047094
C            0.67636426586221        2.76918548414152        2.65565045970453
C           -0.54038247499318        3.02867124632232        3.23149396812829
C           -1.40404251255036        3.27894010421473        2.14959247701377
N           -0.76670532711779        3.18361076012033        1.00351607483916
H            0.10463016234166       -1.11943230514222        0.35074092033341
H           -0.31573285338171        0.34322700891650        1.24201022438789
H            1.37414082933883       -0.07680527833018        0.97827590844594