      -----------------------------------------------------------      
     |                   =====================                   |     
     |                           x T B                           |     
     |                   =====================                   |     
     |                         S. Grimme                         |     
     |          Mulliken Center for Theoretical Chemistry        |     
     |                    University of Bonn                     |     
      -----------------------------------------------------------      

   * xtb version 6.7.1 (edcfbbe) compiled by 'conda@3ef47c1a292c' on 2024-11-25

   xtb is free software: you can redistribute it and/or modify it under
   the terms of the GNU Lesser General Public License as published by
   the Free Software Foundation, either version 3 of the License, or
   (at your option) any later version.
   
   xtb is distributed in the hope that it will be useful,
   but WITHOUT ANY WARRANTY; without even the implied warranty of
   MERCHANTABILITY or FITNESS FOR A PARTICULAR PURPOSE.  See the
   GNU Lesser General Public License for more details.
   
   Cite this work as:
   * C. Bannwarth, E. Caldeweyher, S. Ehlert, A. Hansen, P. Pracht,
     J. Seibert, S. Spicher, S. Grimme, WIREs Comput. Mol. Sci., 2020, 11,
     e01493. DOI: 10.1002/wcms.1493
   
   for GFN2-xTB:
   * C. Bannwarth, S. Ehlert and S. Grimme., J. Chem. Theory Comput., 2019,
     15, 1652-1671. DOI: 10.1021/acs.jctc.8b01176
   for GFN1-xTB:
   * S. Grimme, C. Bannwarth, P. Shushkov, J. Chem. Theory Comput., 2017,
     13, 1989-2009. DOI: 10.1021/acs.jctc.7b00118
   for GFN0-xTB:
   * P. Pracht, E. Caldeweyher, S. Ehlert, S. Grimme, ChemRxiv, 2019, preprint.
     DOI: 10.26434/chemrxiv.8326202.v1
   for GFN-FF:
   * S. Spicher and S. Grimme, Angew. Chem. Int. Ed., 2020, 59, 15665-15673.
     DOI: 10.1002/anie.202004239
   
   for ALPB and GBSA implicit solvation:
   * S. Ehlert, M. Stahn, S. Spicher, S. Grimme, J. Chem. Theory Comput.,
     2021, 17, 4250-4261. DOI: 10.1021/acs.jctc.1c00471
   
   for ddCOSMO and CPCM-X implicit solvation:
   * M. Stahn, S. Ehlert, S. Grimme, J. Phys. Chem. A,
     2023, XX, XXXX-XXXX. DOI: 10.1021/acs.jpca.3c04382
   
   for DFT-D4:
   * E. Caldeweyher, C. Bannwarth and S. Grimme, J. Chem. Phys., 2017,
     147, 034112. DOI: 10.1063/1.4993215
   * E. Caldeweyher, S. Ehlert, A. Hansen, H. Neugebauer, S. Spicher,
     C. Bannwarth and S. Grimme, J. Chem. Phys., 2019, 150, 154122.
     DOI: 10.1063/1.5090222
   * E. Caldeweyher, J.-M. Mewes, S. Ehlert and S. Grimme, Phys. Chem. Chem. Phys.
     2020, 22, 8499-8512. DOI: 10.1039/D0CP00502A
   
   for sTDA-xTB:
   * S. Grimme and C. Bannwarth, J. Chem. Phys., 2016, 145, 054103.
     DOI: 10.1063/1.4959605
   
   in the mass-spec context:
   * V. Asgeirsson, C. Bauer and S. Grimme, Chem. Sci., 2017, 8, 4879.
     DOI: 10.1039/c7sc00601b
   * J. Koopman and S. Grimme, ACS Omega 2019, 4, 12, 15120-15133.
     DOI: 10.1021/acsomega.9b02011
   
   for metadynamics refer to:
   * S. Grimme, J. Chem. Theory Comput., 2019, 155, 2847-2862
     DOI: 10.1021/acs.jctc.9b00143
   
   for SPH calculations refer to:
   * S. Spicher and S. Grimme, J. Chem. Theory Comput., 2021, 17, 1701-1714
     DOI: 10.1021/acs.jctc.0c01306
   
   for ONIOM refer to:
   * C. Plett, A. Katbashev, S. Ehlert, S. Grimme, M. Bursch,
     Phys. Chem. Chem. Phys., 2023, 25, 17860-17868. DOI: 10.1039/D3CP02178E
   
   for DIPRO refer to:
   * J. Kohn, N. Gildemeister, S. Grimme, D. Fazzi, A. Hansen,
     J. Chem. Phys., 2023, just accepted.
   
   for PTB refer to:
   * S. Grimme, M. Mueller, A. Hansen, J. Chem. Phys., 2023, 158, 124111.
     DOI: 10.1063/5.0137838
   
   with help from (in alphabetical order)
   P. Atkinson, C. Bannwarth, F. Bohle, G. Brandenburg, E. Caldeweyher
   M. Checinski, S. Dohm, S. Ehlert, S. Ehrlich, I. Gerasimov, C. Hölzer
   A. Katbashev, J. Kohn, J. Koopman, C. Lavigne, S. Lehtola, F. März, M. Müller,
   F. Musil, H. Neugebauer, J. Pisarek, C. Plett, P. Pracht, F. Pultar,
   J. Seibert, P. Shushkov, S. Spicher, M. Stahn, M. Steiner, T. Strunk,
   J. Stückrath, T. Rose, and J. Unsleber
   
 * started run on 2024/12/20 at 07:04:10.932     
   ID    Z sym.   atoms
    1    6 C      1, 2, 4, 6, 7, 9-13
    2   15 P      3
    3    8 O      5, 8
    4    1 H      14-37

           -------------------------------------------------
          |                Calculation Setup                |
           -------------------------------------------------

          program call               : xtb C0917.xyz --opt --namespace C0917 --charge +1
          calculation namespace      : C0917
          coordinate file            : C0917.xyz
          omp threads                :                     8


           -------------------------------------------------
          |                 G F N 2 - x T B                 |
           -------------------------------------------------

        Reference                      10.1021/acs.jctc.8b01176
      * Hamiltonian:
        H0-scaling (s, p, d)           1.850000    2.230000    2.230000
        zeta-weighting                 0.500000
      * Dispersion:
        s8                             2.700000
        a1                             0.520000
        a2                             5.000000
        s9                             5.000000
      * Repulsion:
        kExp                           1.500000    1.000000
        rExp                           1.000000
      * Coulomb:
        alpha                          2.000000
        third order                    shell-resolved
        anisotropic                    true
        a3                             3.000000
        a5                             4.000000
        cn-shift                       1.200000
        cn-exp                         4.000000
        max-rad                        5.000000


          ...................................................
          :                      SETUP                      :
          :.................................................:
          :  # basis functions                  82          :
          :  # atomic orbitals                  81          :
          :  # shells                           51          :
          :  # electrons                        80          :
          :  max. iterations                   250          :
          :  Hamiltonian                  GFN2-xTB          :
          :  restarted?                      false          :
          :  GBSA solvation                  false          :
          :  PC potential                    false          :
          :  electronic temp.          300.0000000     K    :
          :  accuracy                    1.0000000          :
          :  -> integral cutoff          0.2500000E+02      :
          :  -> integral neglect         0.1000000E-07      :
          :  -> SCF convergence          0.1000000E-05 Eh   :
          :  -> wf. convergence          0.1000000E-03 e    :
          :  Broyden damping             0.4000000          :
          :  net charge                          1          :
          :  unpaired electrons                  0          :
          ...................................................

 iter      E             dE          RMSdq      gap      omega  full diag
   1    -44.3371559 -0.443372E+02  0.385E+00    7.78       0.0  T
   2    -44.4213439 -0.841880E-01  0.216E+00    6.70       1.0  T
   3    -44.4255280 -0.418404E-02  0.743E-01    6.23       1.0  T
   4    -44.4259203 -0.392329E-03  0.227E-01    6.08       1.0  T
   5    -44.4260460 -0.125684E-03  0.884E-02    6.13       1.0  T
   6    -44.4260760 -0.300245E-04  0.363E-02    6.14       1.0  T
   7    -44.4260774 -0.134023E-05  0.155E-02    6.13       1.1  T
   8    -44.4260778 -0.427451E-06  0.294E-03    6.14       5.6  T
   9    -44.4260778 -0.183136E-07  0.125E-03    6.14      13.1  T
  10    -44.4260778 -0.558391E-08  0.558E-04    6.14      29.5  T
  11    -44.4260778 -0.157812E-09  0.214E-04    6.14      76.7  T

   *** convergence criteria satisfied after 11 iterations ***

         #    Occupation            Energy/Eh            Energy/eV
      -------------------------------------------------------------
         1        2.0000           -0.8630745             -23.4855
       ...           ...                  ...                  ...
        34        2.0000           -0.5844343             -15.9033
        35        2.0000           -0.5797960             -15.7771
        36        2.0000           -0.5736846             -15.6108
        37        2.0000           -0.5713626             -15.5476
        38        2.0000           -0.5608932             -15.2627
        39        2.0000           -0.5410275             -14.7221
        40        2.0000           -0.5119989             -13.9322 (HOMO)
        41                         -0.2865226              -7.7967 (LUMO)
        42                         -0.2669033              -7.2628
        43                         -0.2481317              -6.7520
        44                         -0.1465815              -3.9887
        45                         -0.1350343              -3.6745
       ...                                ...                  ...
        81                          0.8610122              23.4293
      -------------------------------------------------------------
                  HL-Gap            0.2254763 Eh            6.1355 eV
             Fermi-level           -0.3992608 Eh          -10.8644 eV

 SCC (total)                   0 d,  0 h,  0 min,  0.022 sec
 SCC setup                      ...        0 min,  0.000 sec (  0.553%)
 Dispersion                     ...        0 min,  0.000 sec (  1.484%)
 classical contributions        ...        0 min,  0.000 sec (  0.272%)
 integral evaluation            ...        0 min,  0.003 sec ( 11.265%)
 iterations                     ...        0 min,  0.014 sec ( 62.266%)
 molecular gradient             ...        0 min,  0.005 sec ( 23.486%)
 printout                       ...        0 min,  0.000 sec (  0.593%)

         :::::::::::::::::::::::::::::::::::::::::::::::::::::
         ::                     SUMMARY                     ::
         :::::::::::::::::::::::::::::::::::::::::::::::::::::
         :: total energy             -43.884874906035 Eh    ::
         :: gradient norm              0.069775203638 Eh/a0 ::
         :: HOMO-LUMO gap              6.135523162409 eV    ::
         ::.................................................::
         :: SCC energy               -44.425602928284 Eh    ::
         :: -> isotropic ES            0.114936433655 Eh    ::
         :: -> anisotropic ES         -0.005314471750 Eh    ::
         :: -> anisotropic XC          0.016355502288 Eh    ::
         :: -> dispersion             -0.029630810156 Eh    ::
         :: repulsion energy           0.540728022249 Eh    ::
         :: add. restraining           0.000000000000 Eh    ::
         :: total charge               1.000000000000 e     ::
         :::::::::::::::::::::::::::::::::::::::::::::::::::::

      ----------------------------------------------------------- 
     |                   =====================                   |
     |                        A N C O P T                        |
     |                   =====================                   |
     |               Approximate Normal Coordinate               |
     |                Rational Function Optimizer                |
      ----------------------------------------------------------- 
      ----------------------------------------------------------- 
     |                   =====================                   |
     |                        A N C O P T                        |
     |                   =====================                   |
     |               Approximate Normal Coordinate               |
     |                Rational Function Optimizer                |
      ----------------------------------------------------------- 

          ...................................................
          :                      SETUP                      :
          :.................................................:
          :   optimization level            normal          :
          :   max. optcycles                   200          :
          :   ANC micro-cycles                  20          :
          :   degrees of freedom               105          :
          :.................................................:
          :   RF solver                   davidson          :
          :   write xtbopt.log                true          :
          :   linear?                        false          :
          :   energy convergence         0.5000000E-05 Eh   :
          :   grad. convergence          0.1000000E-02 Eh/α :
          :   maxmium RF displ.          1.0000000          :
          :   Hlow (freq-cutoff)         0.1000000E-01      :
          :   Hmax (freq-cutoff)         5.0000000          :
          :   S6 in model hess.         20.0000000          :
          ...................................................

generating ANC from exact Hessian ...
Using Lindh-Hessian (1995)
 Shifting diagonal of input Hessian by    9.7182400641184392E-003
 Lowest  eigenvalues of input Hessian
    0.000000    0.000000    0.000000    0.000000    0.000000    0.000000
    0.010000    0.010163    0.011441    0.011552    0.012233    0.012405
    0.013125    0.013511    0.013825    0.015339    0.015371    0.016867
 Highest eigenvalues
    1.282956    1.342610    1.394347    1.412803    1.489577    1.532042


........................................................................
.............................. CYCLE    1 ..............................
........................................................................

 iter      E             dE          RMSdq      gap      omega  full diag
   1    -44.4260778 -0.444261E+02  0.417E-05    6.14       0.0  T
   2    -44.4260778 -0.663647E-11  0.211E-05    6.14     777.5  T
   3    -44.4260778 -0.603961E-12  0.107E-05    6.14    1535.8  T
     SCC iter.                  ...        0 min,  0.004 sec
     gradient                   ...        0 min,  0.004 sec
 * total energy  :   -43.8848749 Eh     change       -0.2492726E-09 Eh
   gradient norm :     0.0697735 Eh/α   predicted     0.0000000E+00 (-100.00%)
   displ. norm   :     0.2562570 α      lambda       -0.1016884E-01
   maximum displ.:     0.0815350 α      in ANC's #42, #19, #8, ...

........................................................................
.............................. CYCLE    2 ..............................
........................................................................

 iter      E             dE          RMSdq      gap      omega  full diag
   1    -44.4249370 -0.444249E+02  0.186E-01    5.86       0.0  T
   2    -44.4249758 -0.387974E-04  0.104E-01    5.90       1.0  T
   3    -44.4249783 -0.252904E-05  0.271E-02    5.93       1.0  T
   4    -44.4249805 -0.217654E-05  0.865E-03    5.93       1.9  T
   5    -44.4249808 -0.327436E-06  0.266E-03    5.93       6.2  T
   6    -44.4249808 -0.100497E-07  0.123E-03    5.93      13.3  T
   7    -44.4249808 -0.317143E-08  0.265E-04    5.93      62.0  T
   8    -44.4249808 -0.195321E-09  0.134E-04    5.93     123.1  T
     SCC iter.                  ...        0 min,  0.008 sec
     gradient                   ...        0 min,  0.004 sec
 * total energy  :   -43.8920667 Eh     change       -0.7191843E-02 Eh
   gradient norm :     0.0329837 Eh/α   predicted    -0.5418684E-02 ( -24.66%)
   displ. norm   :     0.2871503 α      lambda       -0.4185735E-02
   maximum displ.:     0.1062120 α      in ANC's #19, #8, #13, ...

........................................................................
.............................. CYCLE    3 ..............................
........................................................................

 iter      E             dE          RMSdq      gap      omega  full diag
   1    -44.4217665 -0.444218E+02  0.151E-01    5.68       0.0  T
   2    -44.4218046 -0.380964E-04  0.813E-02    5.71       1.0  T
   3    -44.4218068 -0.221727E-05  0.285E-02    5.74       1.0  T
   4    -44.4218082 -0.138043E-05  0.931E-03    5.74       1.8  T
   5    -44.4218088 -0.600927E-06  0.259E-03    5.74       6.3  T
   6    -44.4218088 -0.567181E-08  0.102E-03    5.74      16.1  T
   7    -44.4218088 -0.235710E-08  0.260E-04    5.74      63.3  T
   8    -44.4218088 -0.219714E-09  0.138E-04    5.74     119.4  T
     SCC iter.                  ...        0 min,  0.008 sec
     gradient                   ...        0 min,  0.004 sec
 * total energy  :   -43.8946491 Eh     change       -0.2582383E-02 Eh
   gradient norm :     0.0101844 Eh/α   predicted    -0.2266198E-02 ( -12.24%)
   displ. norm   :     0.2019438 α      lambda       -0.7237730E-03
   maximum displ.:     0.0953643 α      in ANC's #8, #4, #19, ...

........................................................................
.............................. CYCLE    4 ..............................
........................................................................

 iter      E             dE          RMSdq      gap      omega  full diag
   1    -44.4203264 -0.444203E+02  0.787E-02    5.66       0.0  T
   2    -44.4203325 -0.610709E-05  0.436E-02    5.67       1.0  T
   3    -44.4203326 -0.157208E-06  0.138E-02    5.69       1.2  T
   4    -44.4203332 -0.524976E-06  0.422E-03    5.69       3.9  T
   5    -44.4203333 -0.998380E-07  0.131E-03    5.69      12.6  T
   6    -44.4203333 -0.150758E-08  0.499E-04    5.69      33.0  T
   7    -44.4203333 -0.559922E-09  0.145E-04    5.69     113.5  T
     SCC iter.                  ...        0 min,  0.011 sec
     gradient                   ...        0 min,  0.004 sec
 * total energy  :   -43.8951538 Eh     change       -0.5046509E-03 Eh
   gradient norm :     0.0056296 Eh/α   predicted    -0.3768576E-03 ( -25.32%)
   displ. norm   :     0.2081018 α      lambda       -0.3710793E-03
   maximum displ.:     0.1097214 α      in ANC's #8, #4, #13, ...

........................................................................
.............................. CYCLE    5 ..............................
........................................................................

 iter      E             dE          RMSdq      gap      omega  full diag
   1    -44.4197516 -0.444198E+02  0.679E-02    5.66       0.0  T
   2    -44.4197535 -0.192753E-05  0.391E-02    5.67       1.0  T
   3    -44.4197535 -0.179829E-07  0.809E-03    5.67       2.0  T
   4    -44.4197538 -0.295142E-06  0.282E-03    5.67       5.8  T
   5    -44.4197538 -0.300806E-07  0.965E-04    5.67      17.0  T
   6    -44.4197538 -0.845340E-09  0.323E-04    5.67      50.9  T
     SCC iter.                  ...        0 min,  0.007 sec
     gradient                   ...        0 min,  0.004 sec
 * total energy  :   -43.8954105 Eh     change       -0.2567543E-03 Eh
   gradient norm :     0.0046778 Eh/α   predicted    -0.1936711E-03 ( -24.57%)
   displ. norm   :     0.1856776 α      lambda       -0.2041866E-03
   maximum displ.:     0.1039318 α      in ANC's #8, #4, #7, ...

........................................................................
.............................. CYCLE    6 ..............................
........................................................................

 iter      E             dE          RMSdq      gap      omega  full diag
   1    -44.4200047 -0.444200E+02  0.514E-02    5.68       0.0  T
   2    -44.4200052 -0.545584E-06  0.305E-02    5.68       1.0  T
   3    -44.4200053 -0.555156E-07  0.364E-03    5.69       4.5  T
   4    -44.4200053 -0.817603E-07  0.157E-03    5.69      10.5  T
   5    -44.4200053 -0.470769E-08  0.519E-04    5.69      31.7  T
   6    -44.4200053 -0.467359E-09  0.138E-04    5.69     119.0  T
     SCC iter.                  ...        0 min,  0.006 sec
     gradient                   ...        0 min,  0.004 sec
 * total energy  :   -43.8955584 Eh     change       -0.1478314E-03 Eh
   gradient norm :     0.0045541 Eh/α   predicted    -0.1056195E-03 ( -28.55%)
   displ. norm   :     0.1869577 α      lambda       -0.1543317E-03
   maximum displ.:     0.1073016 α      in ANC's #8, #4, #7, ...

........................................................................
.............................. CYCLE    7 ..............................
........................................................................

 iter      E             dE          RMSdq      gap      omega  full diag
   1    -44.4207213 -0.444207E+02  0.459E-02    5.71       0.0  T
   2    -44.4207221 -0.875439E-06  0.275E-02    5.71       1.0  T
   3    -44.4207221 -0.516322E-08  0.438E-03    5.72       3.8  T
   4    -44.4207223 -0.136497E-06  0.130E-03    5.72      12.7  T
   5    -44.4207223 -0.600627E-08  0.710E-04    5.72      23.1  T
   6    -44.4207223 -0.935259E-09  0.217E-04    5.72      75.9  T
     SCC iter.                  ...        0 min,  0.006 sec
     gradient                   ...        0 min,  0.004 sec
 * total energy  :   -43.8956667 Eh     change       -0.1083131E-03 Eh
   gradient norm :     0.0038106 Eh/α   predicted    -0.7986839E-04 ( -26.26%)
   displ. norm   :     0.1486032 α      lambda       -0.8943032E-04
   maximum displ.:     0.0830710 α      in ANC's #8, #2, #7, ...

........................................................................
.............................. CYCLE    8 ..............................
........................................................................

 iter      E             dE          RMSdq      gap      omega  full diag
   1    -44.4215443 -0.444215E+02  0.332E-02    5.74       0.0  T
   2    -44.4215451 -0.781667E-06  0.197E-02    5.74       1.0  T
   3    -44.4215450  0.350815E-07  0.456E-03    5.74       3.6  T
   4    -44.4215452 -0.136726E-06  0.105E-03    5.74      15.6  T
   5    -44.4215452 -0.596028E-08  0.513E-04    5.74      32.1  T
   6    -44.4215452 -0.409401E-09  0.194E-04    5.74      84.9  T
     SCC iter.                  ...        0 min,  0.006 sec
     gradient                   ...        0 min,  0.004 sec
 * total energy  :   -43.8957296 Eh     change       -0.6287111E-04 Eh
   gradient norm :     0.0025703 Eh/α   predicted    -0.4570289E-04 ( -27.31%)
   displ. norm   :     0.1191836 α      lambda       -0.5366758E-04
   maximum displ.:     0.0640988 α      in ANC's #2, #8, #7, ...

........................................................................
.............................. CYCLE    9 ..............................
........................................................................

 iter      E             dE          RMSdq      gap      omega  full diag
   1    -44.4221183 -0.444221E+02  0.245E-02    5.75       0.0  T
   2    -44.4221187 -0.341343E-06  0.145E-02    5.75       1.1  T
   3    -44.4221186  0.335100E-07  0.357E-03    5.75       4.6  T
   4    -44.4221187 -0.856060E-07  0.687E-04    5.75      23.9  T
   5    -44.4221187 -0.221845E-08  0.301E-04    5.75      54.6  T
     SCC iter.                  ...        0 min,  0.005 sec
     gradient                   ...        0 min,  0.004 sec
 * total energy  :   -43.8957688 Eh     change       -0.3925384E-04 Eh
   gradient norm :     0.0019942 Eh/α   predicted    -0.2721521E-04 ( -30.67%)
   displ. norm   :     0.1645997 α      lambda       -0.4079924E-04
   maximum displ.:     0.1026397 α      in ANC's #2, #8, #7, ...

........................................................................
.............................. CYCLE   10 ..............................
........................................................................

 iter      E             dE          RMSdq      gap      omega  full diag
   1    -44.4223980 -0.444224E+02  0.323E-02    5.75       0.0  T
   2    -44.4223982 -0.226051E-06  0.191E-02    5.75       1.0  T
   3    -44.4223982  0.451370E-07  0.375E-03    5.75       4.4  T
   4    -44.4223983 -0.107890E-06  0.701E-04    5.75      23.5  T
   5    -44.4223983 -0.103806E-08  0.323E-04    5.75      50.9  T
     SCC iter.                  ...        0 min,  0.005 sec
     gradient                   ...        0 min,  0.004 sec
 * total energy  :   -43.8958075 Eh     change       -0.3869074E-04 Eh
   gradient norm :     0.0028022 Eh/α   predicted    -0.2064656E-04 ( -46.64%)
   displ. norm   :     0.0560243 α      lambda       -0.2187248E-04
   maximum displ.:     0.0421614 α      in ANC's #2, #6, #7, ...

........................................................................
.............................. CYCLE   11 ..............................
........................................................................

 iter      E             dE          RMSdq      gap      omega  full diag
   1    -44.4223374 -0.444223E+02  0.116E-02    5.75       0.0  T
   2    -44.4223375 -0.820869E-07  0.669E-03    5.75       2.5  T
   3    -44.4223375  0.897635E-08  0.194E-03    5.75       8.5  T
   4    -44.4223375 -0.221282E-07  0.357E-04    5.75      46.1  T
   5    -44.4223375 -0.466109E-09  0.160E-04    5.75     102.8  T
     SCC iter.                  ...        0 min,  0.005 sec
     gradient                   ...        0 min,  0.004 sec
 * total energy  :   -43.8958262 Eh     change       -0.1872250E-04 Eh
   gradient norm :     0.0021767 Eh/α   predicted    -0.1097469E-04 ( -41.38%)
   displ. norm   :     0.1008360 α      lambda       -0.3384936E-04
   maximum displ.:     0.0759514 α      in ANC's #2, #6, #8, ...

........................................................................
.............................. CYCLE   12 ..............................
........................................................................

 iter      E             dE          RMSdq      gap      omega  full diag
   1    -44.4218375 -0.444218E+02  0.212E-02    5.74       0.0  T
   2    -44.4218379 -0.377564E-06  0.119E-02    5.74       1.4  T
   3    -44.4218379  0.351456E-07  0.439E-03    5.74       3.7  T
   4    -44.4218380 -0.951427E-07  0.718E-04    5.74      22.9  T
   5    -44.4218380 -0.193675E-08  0.299E-04    5.74      55.1  T
     SCC iter.                  ...        0 min,  0.005 sec
     gradient                   ...        0 min,  0.004 sec
 * total energy  :   -43.8958502 Eh     change       -0.2398925E-04 Eh
   gradient norm :     0.0013254 Eh/α   predicted    -0.1709992E-04 ( -28.72%)
   displ. norm   :     0.1104365 α      lambda       -0.1600712E-04
   maximum displ.:     0.0898561 α      in ANC's #2, #6, #7, ...

........................................................................
.............................. CYCLE   13 ..............................
........................................................................

 iter      E             dE          RMSdq      gap      omega  full diag
   1    -44.4220583 -0.444221E+02  0.230E-02    5.73       0.0  T
   2    -44.4220588 -0.445410E-06  0.129E-02    5.73       1.3  T
   3    -44.4220587  0.575836E-07  0.520E-03    5.73       3.2  T
   4    -44.4220589 -0.135255E-06  0.722E-04    5.73      22.8  T
   5    -44.4220589 -0.152331E-08  0.300E-04    5.73      54.7  T
     SCC iter.                  ...        0 min,  0.005 sec
     gradient                   ...        0 min,  0.004 sec
 * total energy  :   -43.8958632 Eh     change       -0.1294264E-04 Eh
   gradient norm :     0.0017036 Eh/α   predicted    -0.8049786E-05 ( -37.80%)
   displ. norm   :     0.0781077 α      lambda       -0.1138082E-04
   maximum displ.:     0.0553698 α      in ANC's #2, #8, #6, ...

........................................................................
.............................. CYCLE   14 ..............................
........................................................................

 iter      E             dE          RMSdq      gap      omega  full diag
   1    -44.4213968 -0.444214E+02  0.189E-02    5.73       0.0  T
   2    -44.4213969 -0.111517E-06  0.110E-02    5.73       1.5  T
   3    -44.4213969  0.155691E-07  0.263E-03    5.73       6.3  T
   4    -44.4213970 -0.439666E-07  0.499E-04    5.73      32.9  T
   5    -44.4213970 -0.544752E-09  0.210E-04    5.73      78.3  T
     SCC iter.                  ...        0 min,  0.005 sec
     gradient                   ...        0 min,  0.004 sec
 * total energy  :   -43.8958728 Eh     change       -0.9617169E-05 Eh
   gradient norm :     0.0018096 Eh/α   predicted    -0.5707709E-05 ( -40.65%)
   displ. norm   :     0.0455240 α      lambda       -0.1032171E-04
   maximum displ.:     0.0351338 α      in ANC's #2, #3, #13, ...

........................................................................
.............................. CYCLE   15 ..............................
........................................................................

 iter      E             dE          RMSdq      gap      omega  full diag
   1    -44.4219942 -0.444220E+02  0.112E-02    5.73       0.0  T
   2    -44.4219942 -0.573974E-07  0.657E-03    5.73       2.5  T
   3    -44.4219942 -0.775017E-09  0.142E-03    5.73      11.5  T
   4    -44.4219942 -0.859273E-08  0.330E-04    5.73      49.8  T
   5    -44.4219942 -0.421402E-09  0.146E-04    5.73     112.3  T
     SCC iter.                  ...        0 min,  0.005 sec
     gradient                   ...        0 min,  0.004 sec
 * total energy  :   -43.8958846 Eh     change       -0.1180444E-04 Eh
   gradient norm :     0.0009533 Eh/α   predicted    -0.5170177E-05 ( -56.20%)
   displ. norm   :     0.0716967 α      lambda       -0.9445440E-05
   maximum displ.:     0.0576487 α      in ANC's #2, #3, #13, ...

........................................................................
.............................. CYCLE   16 ..............................
........................................................................

 iter      E             dE          RMSdq      gap      omega  full diag
   1    -44.4223059 -0.444223E+02  0.156E-02    5.73       0.0  T
   2    -44.4223059 -0.505849E-07  0.926E-03    5.73       1.8  T
   3    -44.4223059 -0.158706E-08  0.141E-03    5.73      11.6  T
   4    -44.4223060 -0.136356E-07  0.409E-04    5.73      40.2  T
   5    -44.4223060 -0.311410E-09  0.170E-04    5.73      96.8  T
     SCC iter.                  ...        0 min,  0.005 sec
     gradient                   ...        0 min,  0.004 sec
 * total energy  :   -43.8958953 Eh     change       -0.1068768E-04 Eh
   gradient norm :     0.0008399 Eh/α   predicted    -0.4737580E-05 ( -55.67%)
   displ. norm   :     0.0667441 α      lambda       -0.6161969E-05
   maximum displ.:     0.0547774 α      in ANC's #2, #3, #13, ...

........................................................................
.............................. CYCLE   17 ..............................
........................................................................

 iter      E             dE          RMSdq      gap      omega  full diag
   1    -44.4223905 -0.444224E+02  0.136E-02    5.73       0.0  T
   2    -44.4223905 -0.328702E-07  0.815E-03    5.73       2.0  T
   3    -44.4223906 -0.522069E-08  0.104E-03    5.73      15.7  T
   4    -44.4223906 -0.697710E-08  0.411E-04    5.73      40.0  T
   5    -44.4223906 -0.130477E-09  0.144E-04    5.73     114.4  T
     SCC iter.                  ...        0 min,  0.005 sec
     gradient                   ...        0 min,  0.004 sec
 * total energy  :   -43.8959028 Eh     change       -0.7574734E-05 Eh
   gradient norm :     0.0008026 Eh/α   predicted    -0.3090415E-05 ( -59.20%)
   displ. norm   :     0.0474112 α      lambda       -0.4220779E-05
   maximum displ.:     0.0405827 α      in ANC's #2, #3, #7, ...

........................................................................
.............................. CYCLE   18 ..............................
........................................................................

 iter      E             dE          RMSdq      gap      omega  full diag
   1    -44.4221974 -0.444222E+02  0.871E-03    5.73       0.0  T
   2    -44.4221975 -0.220586E-07  0.519E-03    5.73       3.2  T
   3    -44.4221975 -0.267784E-08  0.661E-04    5.73      24.9  T
   4    -44.4221975 -0.262738E-08  0.281E-04    5.73      58.4  T
     SCC iter.                  ...        0 min,  0.004 sec
     gradient                   ...        0 min,  0.004 sec
 * total energy  :   -43.8959081 Eh     change       -0.5241195E-05 Eh
   gradient norm :     0.0005387 Eh/α   predicted    -0.2114434E-05 ( -59.66%)
   displ. norm   :     0.0365532 α      lambda       -0.2933316E-05
   maximum displ.:     0.0315557 α      in ANC's #2, #7, #3, ...

........................................................................
.............................. CYCLE   19 ..............................
........................................................................

 iter      E             dE          RMSdq      gap      omega  full diag
   1    -44.4220854 -0.444221E+02  0.664E-03    5.73       0.0  T
   2    -44.4220854 -0.154138E-07  0.394E-03    5.73       4.2  T
   3    -44.4220854  0.587619E-11  0.757E-04    5.73      21.7  T
   4    -44.4220854 -0.360182E-08  0.235E-04    5.73      70.0  T
     SCC iter.                  ...        0 min,  0.004 sec
     gradient                   ...        0 min,  0.004 sec
 * total energy  :   -43.8959118 Eh     change       -0.3733431E-05 Eh
   gradient norm :     0.0003094 Eh/α   predicted    -0.1471070E-05 ( -60.60%)
   displ. norm   :     0.0322680 α      lambda       -0.2309796E-05
   maximum displ.:     0.0273185 α      in ANC's #2, #7, #1, ...

   *** GEOMETRY OPTIMIZATION CONVERGED AFTER 19 ITERATIONS ***

------------------------------------------------------------------------
 total energy gain   :        -0.0110369 Eh       -6.9258 kcal/mol
 total RMSD          :         0.2775377 a0        0.1469 Å
 total power (kW/mol):        -1.5251257 (step) -111.7527 (real)
------------------------------------------------------------------------

 ANCopt (total)                0 d,  0 h,  0 min,  0.259 sec
 optimizer setup                ...        0 min,  0.000 sec (  0.037%)
 model hessian                  ...        0 min,  0.030 sec ( 11.655%)
 ANC generation                 ...        0 min,  0.003 sec (  1.022%)
 coordinate transformation      ...        0 min,  0.000 sec (  0.100%)
 single point calculation       ...        0 min,  0.222 sec ( 85.471%)
 optimization log               ...        0 min,  0.002 sec (  0.718%)
 hessian update                 ...        0 min,  0.000 sec (  0.125%)
 rational function              ...        0 min,  0.001 sec (  0.575%)

================
 final structure:
================
37
 xtb: 6.7.1 (edcfbbe)
C            0.66434861926295       -0.15078128258201       -0.57485024936597
C            0.57202472654793       -0.48739055514529       -2.06051882014216
P           -0.01268420199126       -1.43476238102633        0.54225315446941
C            0.70033084755782       -1.17709254082622        2.22909338191301
O            0.21221855598705        0.02640729289175        2.75988369672798
C            1.09949983273668        1.13508051029479        2.74352772726967
C            2.42680383412846        0.88842025501973        3.45849952252259
O            3.29310051131154        0.17971112146888        2.59126188391799
C            4.60249895044140        0.04578898183985        3.10379855330935
C           -1.81639197909404       -1.26405367526476        0.77646100067140
C           -2.61463799989097       -0.93197993359686       -0.47973570292376
C            0.49139454103872       -3.11686738664168        0.01694395930082
C           -0.42983221805407       -3.77063032321351       -1.00831990344444
H            0.12712637473203        0.77718067095062       -0.35693405547302
H            1.71290828816671       -0.01568642671195       -0.28999578109846
H            1.15480647968390       -1.37324026064348       -2.29952633619689
H           -0.45523618146037       -0.64400710933283       -2.37756274704549
H            0.97685351421011        0.34050204492193       -2.63793361439609
H            0.34028659699060       -1.99446154426167        2.86767882842082
H            1.79569493933993       -1.20294856666174        2.18476299706923
H            1.31348045163962        1.45048131750933        1.71567205721798
H            0.54685629258571        1.92333070140931        3.25681364979088
H            2.87273814917883        1.85666153626586        3.72090850636991
H            2.25925088690354        0.32081592408118        4.38488301197724
H            4.60141413507550       -0.51522093485676        4.04382153401491
H            5.17388647663649       -0.49633846240580        2.35394933866794
H            5.05699008599954        1.02607787895498        3.27377975003027
H           -2.16795162439735       -2.19816183888998        1.22506734136175
H           -1.93149992183461       -0.47031015092885        1.52315581743709
H           -2.51218591287580       -1.70195547087273       -1.23992717281004
H           -3.66826423038845       -0.85769607197691       -0.22098309117881
H           -2.30998070401842        0.02337520956740       -0.89962795628489
H            1.51077143645481       -3.03954512247908       -0.37157898182195
H            0.52721124569363       -3.72725454856575        0.92457464704473
H           -0.48567152927627       -3.19398402010822       -1.92712533120353
H           -0.04572305485825       -4.75726408577526       -1.25611013422112
H           -1.43302621416458       -3.89611075240571       -0.60914048189664

 Bond Distances (Angstroems)
 ---------------------------
C1-C2=1.5261         C1-P3=1.8316         C1-H14=1.0942        C1-H15=1.0949        C2-C1=1.5261         C2-H16=1.0870        
C2-H17=1.0864        C2-H18=1.0875        P3-C1=1.8316         P3-C4=1.8494         P3-C10=1.8268        P3-C12=1.8329        
C4-P3=1.8494         C4-O5=1.4030         C4-H19=1.0980        C4-H20=1.0966        O5-C4=1.4030         O5-C6=1.4201         
C6-O5=1.4201         C6-C7=1.5277         C6-H21=1.0962        C6-H22=1.0910        C7-C6=1.5277         C7-O8=1.4159         
C7-H23=1.0978        C7-H24=1.0993        O8-C7=1.4159         O8-C9=1.4125         C9-O8=1.4125         C9-H25=1.0947        
C9-H26=1.0875        C9-H27=1.0938        C10-P3=1.8268        C10-C11=1.5250       C10-H28=1.0943       C10-H29=1.0958       
C11-C10=1.5250       C11-H30=1.0869       C11-H31=1.0875       C11-H32=1.0871       C12-P3=1.8329        C12-C13=1.5255       
C12-H33=1.0936       C12-H34=1.0944       C13-C12=1.5255       C13-H35=1.0862       C13-H36=1.0874       C13-H37=1.0870       
H14-C1=1.0942        H15-C1=1.0949        H16-C2=1.0870        H17-C2=1.0864        H18-C2=1.0875        H19-C4=1.0980        
H20-C4=1.0966        H21-C6=1.0962        H22-C6=1.0910        H23-C7=1.0978        H24-C7=1.0993        H25-C9=1.0947        
H26-C9=1.0875        H27-C9=1.0938        H28-C10=1.0943       H29-C10=1.0958       H30-C11=1.0869       H31-C11=1.0875       
H32-C11=1.0871       H33-C12=1.0936       H34-C12=1.0944       H35-C13=1.0862       H36-C13=1.0874       H37-C13=1.0870       
 C  H  Rav=1.0919 sigma=0.0044  Rmin=1.0862  Rmax=1.0993    24
 C  C  Rav=1.5261 sigma=0.0010  Rmin=1.5250  Rmax=1.5277     4
 O  C  Rav=1.4129 sigma=0.0063  Rmin=1.4030  Rmax=1.4201     4
 P  C  Rav=1.8352 sigma=0.0085  Rmin=1.8268  Rmax=1.8494     4

 selected bond angles (degree)
 --------------------
P3-C1-C2=114.63                H14-C1-C2=110.56               H14-C1-P3=106.95               H15-C1-C2=109.78               
H15-C1-P3=106.37               H15-C1-H14=108.28              H16-C2-C1=111.18               H17-C2-C1=111.91               
H17-C2-H16=108.98              H18-C2-C1=109.05               H18-C2-H16=107.70              H18-C2-H17=107.87              
C4-P3-C1=108.43                C10-P3-C1=112.19               C10-P3-C4=104.52               C12-P3-C1=111.52               
C12-P3-C4=106.45               C12-P3-C10=113.21              O5-C4-P3=109.30                H19-C4-P3=107.48               
H19-C4-O5=107.73               H20-C4-P3=110.18               H20-C4-O5=112.52               H20-C4-H19=109.48              
C6-O5-C4=116.61                C7-C6-O5=114.29                H21-C6-O5=110.94               H21-C6-C7=108.40               
H22-C6-O5=104.01               H22-C6-C7=109.67               H22-C6-H21=109.40              O8-C7-C6=109.01                
H23-C7-C6=108.81               H23-C7-O8=109.84               H24-C7-C6=110.20               H24-C7-O8=110.55               
H24-C7-H23=108.41              C9-O8-C7=113.10                H25-C9-O8=111.05               H26-C9-O8=106.51               
H26-C9-H25=109.70              H27-C9-O8=110.89               H27-C9-H25=109.04              H27-C9-H26=109.61              
C11-C10-P3=115.57              H28-C10-P3=106.86              H28-C10-C11=110.82             H29-C10-P3=105.00              
H29-C10-C11=110.40             H29-C10-H28=107.77             

 selected dihedral angles (degree)
 ---------------------------------
H16-C2-C1-P3=297.37           H16-C2-C1-H14=176.40          H16-C2-C1-H15= 56.99          H17-C2-C1-P3= 59.50           
H17-C2-C1-H14=298.53          H17-C2-C1-H15=179.12          H18-C2-C1-P3=178.75           H18-C2-C1-H14= 57.79          
H18-C2-C1-H15=298.38          C4-P3-C1-C2=159.97            C4-P3-C1-H14=282.91           C4-P3-C1-H15= 38.46           
C10-P3-C1-C2=274.89           C10-P3-C1-H14= 37.82          C10-P3-C1-H15=153.38          C12-P3-C1-C2= 43.08           
C12-P3-C1-H14=166.01          C12-P3-C1-H15=281.57          O5-C4-P3-C1= 67.24            O5-C4-P3-C10=307.40           
O5-C4-P3-C12=187.35           H19-C4-P3-C1=183.88           H19-C4-P3-C10= 64.05          H19-C4-P3-C12=303.99          
H20-C4-P3-C1=303.11           H20-C4-P3-C10=183.28          H20-C4-P3-C12= 63.22          C6-O5-C4-P3=256.91            
C6-O5-C4-H19=140.42           C6-O5-C4-H20= 19.65           C7-C6-O5-C4=303.35            H21-C6-O5-C4= 66.28           
H22-C6-O5-C4=183.80           O8-C7-C6-O5= 80.96            O8-C7-C6-H21=316.67           O8-C7-C6-H22=197.28           
H23-C7-C6-O5=200.72           H23-C7-C6-H21= 76.43          H23-C7-C6-H22=317.05          H24-C7-C6-O5=319.47           
H24-C7-C6-H21=195.18          H24-C7-C6-H22= 75.79          C9-O8-C7-C6=172.78            C9-O8-C7-H23= 53.65           
C9-O8-C7-H24=294.06           H25-C9-O8-C7= 61.39           H26-C9-O8-C7=180.79           H27-C9-O8-C7=299.98           
C11-C10-P3-C1= 41.61          C11-C10-P3-C4=158.88          C11-C10-P3-C12=274.31         H28-C10-P3-C1=165.43          
H28-C10-P3-C4=282.71          H28-C10-P3-C12= 38.14         H29-C10-P3-C1=279.72          H29-C10-P3-C4= 37.00          
H29-C10-P3-C12=152.43         
           -------------------------------------------------
          |                Final Singlepoint                |
           -------------------------------------------------

          ...................................................
          :                      SETUP                      :
          :.................................................:
          :  # basis functions                  82          :
          :  # atomic orbitals                  81          :
          :  # shells                           51          :
          :  # electrons                        80          :
          :  max. iterations                   250          :
          :  Hamiltonian                  GFN2-xTB          :
          :  restarted?                      false          :
          :  GBSA solvation                  false          :
          :  PC potential                    false          :
          :  electronic temp.          300.0000000     K    :
          :  accuracy                    1.0000000          :
          :  -> integral cutoff          0.2500000E+02      :
          :  -> integral neglect         0.1000000E-07      :
          :  -> SCF convergence          0.1000000E-05 Eh   :
          :  -> wf. convergence          0.1000000E-03 e    :
          :  Broyden damping             0.4000000          :
          :  net charge                          1          :
          :  unpaired electrons                  0          :
          ...................................................

 iter      E             dE          RMSdq      gap      omega  full diag
   1    -44.4220854 -0.444221E+02  0.113E-04    5.73       0.0  T
   2    -44.4220854 -0.151132E-10  0.632E-05    5.73     260.0  T
   3    -44.4220854 -0.179767E-11  0.340E-05    5.73     483.2  T

   *** convergence criteria satisfied after 3 iterations ***

         #    Occupation            Energy/Eh            Energy/eV
      -------------------------------------------------------------
         1        2.0000           -0.8532727             -23.2187
       ...           ...                  ...                  ...
        34        2.0000           -0.5846923             -15.9103
        35        2.0000           -0.5764892             -15.6871
        36        2.0000           -0.5712278             -15.5439
        37        2.0000           -0.5691670             -15.4878
        38        2.0000           -0.5639575             -15.3461
        39        2.0000           -0.5363839             -14.5957
        40        2.0000           -0.5138238             -13.9819 (HOMO)
        41                         -0.3033907              -8.2557 (LUMO)
        42                         -0.2795224              -7.6062
        43                         -0.2737234              -7.4484
        44                         -0.1997725              -5.4361
        45                         -0.1364913              -3.7141
       ...                                ...                  ...
        81                          0.7248494              19.7242
      -------------------------------------------------------------
                  HL-Gap            0.2104331 Eh            5.7262 eV
             Fermi-level           -0.4086072 Eh          -11.1188 eV

 SCC (total)                   0 d,  0 h,  0 min,  0.009 sec
 SCC setup                      ...        0 min,  0.000 sec (  0.768%)
 Dispersion                     ...        0 min,  0.000 sec (  1.711%)
 classical contributions        ...        0 min,  0.000 sec (  0.347%)
 integral evaluation            ...        0 min,  0.001 sec ( 13.547%)
 iterations                     ...        0 min,  0.003 sec ( 35.469%)
 molecular gradient             ...        0 min,  0.004 sec ( 46.845%)
 printout                       ...        0 min,  0.000 sec (  1.152%)

         :::::::::::::::::::::::::::::::::::::::::::::::::::::
         ::                     SUMMARY                     ::
         :::::::::::::::::::::::::::::::::::::::::::::::::::::
         :: total energy             -43.895911810605 Eh    ::
         :: gradient norm              0.000308700786 Eh/a0 ::
         :: HOMO-LUMO gap              5.726176734382 eV    ::
         ::.................................................::
         :: SCC energy               -44.421613878889 Eh    ::
         :: -> isotropic ES            0.110336228729 Eh    ::
         :: -> anisotropic ES         -0.006907490761 Eh    ::
         :: -> anisotropic XC          0.016408526434 Eh    ::
         :: -> dispersion             -0.029239688741 Eh    ::
         :: repulsion energy           0.525702068283 Eh    ::
         :: add. restraining           0.000000000000 Eh    ::
         :: total charge               1.000000000000 e     ::
         :::::::::::::::::::::::::::::::::::::::::::::::::::::

           -------------------------------------------------
          |                Property Printout                |
           -------------------------------------------------

    * Orbital Energies and Occupations

         #    Occupation            Energy/Eh            Energy/eV
      -------------------------------------------------------------
         1        2.0000           -0.8532727             -23.2187
       ...           ...                  ...                  ...
        28        2.0000           -0.6109259             -16.6241
        29        2.0000           -0.6088439             -16.5675
        30        2.0000           -0.5976835             -16.2638
        31        2.0000           -0.5933405             -16.1456
        32        2.0000           -0.5919149             -16.1068
        33        2.0000           -0.5871812             -15.9780
        34        2.0000           -0.5846923             -15.9103
        35        2.0000           -0.5764892             -15.6871
        36        2.0000           -0.5712278             -15.5439
        37        2.0000           -0.5691670             -15.4878
        38        2.0000           -0.5639575             -15.3461
        39        2.0000           -0.5363839             -14.5957
        40        2.0000           -0.5138238             -13.9819 (HOMO)
        41                         -0.3033907              -8.2557 (LUMO)
        42                         -0.2795224              -7.6062
        43                         -0.2737234              -7.4484
        44                         -0.1997725              -5.4361
        45                         -0.1364913              -3.7141
        46                         -0.0977853              -2.6609
        47                         -0.0834688              -2.2713
        48                         -0.0696530              -1.8954
        49                         -0.0393274              -1.0702
        50                         -0.0301746              -0.8211
        51                         -0.0264664              -0.7202
       ...                                ...                  ...
        81                          0.7248494              19.7242
      -------------------------------------------------------------
                  HL-Gap            0.2104331 Eh            5.7262 eV
             Fermi-level           -0.4086072 Eh          -11.1188 eV

     #   Z          covCN         q      C6AA      α(0)
     1   6 C        3.749    -0.066    21.836     6.665
     2   6 C        3.804    -0.118    22.755     6.791
     3  15 P        3.921     0.193   151.927    22.141
     4   6 C        3.639     0.042    20.223     6.468
     5   8 O        1.740    -0.291    18.822     5.858
     6   6 C        3.689     0.060    19.752     6.361
     7   6 C        3.699     0.068    19.605     6.333
     8   8 O        1.700    -0.331    19.541     5.968
     9   6 C        3.650     0.032    20.351     6.480
    10   6 C        3.749    -0.069    21.886     6.672
    11   6 C        3.800    -0.117    22.734     6.789
    12   6 C        3.749    -0.074    21.971     6.685
    13   6 C        3.803    -0.117    22.745     6.790
    14   1 H        0.927     0.095     1.832     2.117
    15   1 H        0.927     0.097     1.814     2.106
    16   1 H        0.925     0.065     2.144     2.290
    17   1 H        0.925     0.066     2.133     2.284
    18   1 H        0.925     0.077     2.010     2.217
    19   1 H        0.925     0.092     1.860     2.133
    20   1 H        0.925     0.110     1.694     2.035
    21   1 H        0.924     0.051     2.305     2.374
    22   1 H        0.924     0.083     1.944     2.180
    23   1 H        0.924     0.048     2.341     2.393
    24   1 H        0.923     0.046     2.366     2.405
    25   1 H        0.924     0.041     2.433     2.439
    26   1 H        0.925     0.067     2.113     2.273
    27   1 H        0.924     0.046     2.368     2.406
    28   1 H        0.927     0.095     1.830     2.115
    29   1 H        0.928     0.109     1.703     2.040
    30   1 H        0.925     0.064     2.152     2.294
    31   1 H        0.925     0.077     2.007     2.215
    32   1 H        0.925     0.064     2.147     2.292
    33   1 H        0.927     0.095     1.835     2.118
    34   1 H        0.927     0.089     1.887     2.148
    35   1 H        0.925     0.065     2.136     2.286
    36   1 H        0.925     0.077     2.006     2.215
    37   1 H        0.925     0.065     2.142     2.289

 Mol. C6AA /au·bohr⁶  :      10250.828949
 Mol. C8AA /au·bohr⁸  :     246779.319252
 Mol. α(0) /au        :        153.665824


Wiberg/Mayer (AO) data.
largest (>0.10) Wiberg bond orders for each atom

 ---------------------------------------------------------------------------
     #   Z sym  total        # sym  WBO       # sym  WBO       # sym  WBO
 ---------------------------------------------------------------------------
     1   6 C    3.986 --     3 P    1.004     2 C    1.000    15 H    0.934
                            14 H    0.933
     2   6 C    3.984 --     1 C    1.000    16 H    0.979    17 H    0.978
                            18 H    0.977
     3  15 P    4.513 --    10 C    1.011     1 C    1.004    12 C    1.000
                             4 C    0.966
     4   6 C    3.955 --     5 O    1.005     3 P    0.966    19 H    0.933
                            20 H    0.921
     5   8 O    2.127 --     4 C    1.005     6 C    0.967
     6   6 C    3.940 --     7 C    0.997     5 O    0.967    22 H    0.965
                            21 H    0.963
     7   6 C    3.955 --     6 C    0.997     8 O    0.982    24 H    0.965
                            23 H    0.965
     8   8 O    2.069 --     7 C    0.982     9 C    0.981
     9   6 C    3.940 --     8 O    0.981    26 H    0.979    25 H    0.979
                            27 H    0.977
    10   6 C    3.984 --     3 P    1.011    11 C    1.002    28 H    0.932
                            29 H    0.927
    11   6 C    3.985 --    10 C    1.002    30 H    0.979    32 H    0.979
                            31 H    0.977
    12   6 C    3.987 --    13 C    1.003     3 P    1.000    34 H    0.936
                            33 H    0.935
    13   6 C    3.981 --    12 C    1.003    37 H    0.979    35 H    0.979
                            36 H    0.977
    14   1 H    0.991 --     1 C    0.933
    15   1 H    0.991 --     1 C    0.934
    16   1 H    0.996 --     2 C    0.979
    17   1 H    0.996 --     2 C    0.978
    18   1 H    0.994 --     2 C    0.977
    19   1 H    0.991 --     4 C    0.933
    20   1 H    0.988 --     4 C    0.921
    21   1 H    0.997 --     6 C    0.963
    22   1 H    0.992 --     6 C    0.965
    23   1 H    0.997 --     7 C    0.965
    24   1 H    0.998 --     7 C    0.965
    25   1 H    0.998 --     9 C    0.979
    26   1 H    0.995 --     9 C    0.979
    27   1 H    0.998 --     9 C    0.977
    28   1 H    0.991 --    10 C    0.932
    29   1 H    0.988 --    10 C    0.927
    30   1 H    0.996 --    11 C    0.979
    31   1 H    0.994 --    11 C    0.977
    32   1 H    0.996 --    11 C    0.979
    33   1 H    0.991 --    12 C    0.935
    34   1 H    0.992 --    12 C    0.936
    35   1 H    0.996 --    13 C    0.979
    36   1 H    0.993 --    13 C    0.977
    37   1 H    0.996 --    13 C    0.979
 ---------------------------------------------------------------------------

Topologies differ in total number of bonds
Writing topology from bond orders to xtbtopo.mol

molecular dipole:
                 x           y           z       tot (Debye)
 q only:        0.554      -2.324       0.953
   full:        0.829      -2.254       1.244       6.874
molecular quadrupole (traceless):
                xx          xy          yy          xz          yz          zz
 q only:       -0.368       2.943       3.372      10.919       2.566      -3.004
  q+dip:       -0.900       3.523       3.227      12.220       0.730      -2.327
   full:       -0.653       3.379       2.833      13.052       1.582      -2.180

           -------------------------------------------------
          |                Geometry Summary                 |
           -------------------------------------------------

      molecular mass/u    :      207.2705088
   center of mass at/Å    :        0.6715056      -0.8189031       1.0521574
  moments of inertia/u·Å² :        0.4992109E+03   0.1401648E+04   0.1512028E+04
rotational constants/cm⁻¹ :        0.3376856E-01   0.1202701E-01   0.1114902E-01

 * 36 selected distances

     #   Z          #   Z                                           value/Å
     1   6 C        2   6 C                                       1.5261196
     1   6 C        3  15 P                                       1.8316390
     3  15 P        4   6 C                                       1.8493823 (max)
     4   6 C        5   8 O                                       1.4029983
     5   8 O        6   6 C                                       1.4201029
     6   6 C        7   6 C                                       1.5276656
     7   6 C        8   8 O                                       1.4159237
     8   8 O        9   6 C                                       1.4124991
     3  15 P       10   6 C                                       1.8268435
    10   6 C       11   6 C                                       1.5249591
     3  15 P       12   6 C                                       1.8329002
    12   6 C       13   6 C                                       1.5255265
     1   6 C       14   1 H                                       1.0941704
     1   6 C       15   1 H                                       1.0949294
     2   6 C       16   1 H                                       1.0869632
     2   6 C       17   1 H                                       1.0864211
     2   6 C       18   1 H                                       1.0875204
     4   6 C       19   1 H                                       1.0979597
     4   6 C       20   1 H                                       1.0965657
     6   6 C       21   1 H                                       1.0962449
     6   6 C       22   1 H                                       1.0909702
     7   6 C       23   1 H                                       1.0978193
     7   6 C       24   1 H                                       1.0992885
     9   6 C       25   1 H                                       1.0947039
     9   6 C       26   1 H                                       1.0875017
     9   6 C       27   1 H                                       1.0938109
    10   6 C       28   1 H                                       1.0942578
    10   6 C       29   1 H                                       1.0958248
    11   6 C       30   1 H                                       1.0868533
    11   6 C       31   1 H                                       1.0874739
    11   6 C       32   1 H                                       1.0871197
    12   6 C       33   1 H                                       1.0936445
    12   6 C       34   1 H                                       1.0943715
    13   6 C       35   1 H                                       1.0862056 (min)
    13   6 C       36   1 H                                       1.0873759
    13   6 C       37   1 H                                       1.0869627

 * 4 distinct bonds (by element types)

   Z      Z             #   av. dist./Å        max./Å        min./Å
   1 H    6 C          24     1.0918733     1.0992885     1.0862056
   6 C    6 C           4     1.5260677     1.5276656     1.5249591
   6 C    8 O           4     1.4128810     1.4201029     1.4029983
   6 C   15 P           4     1.8351912     1.8493823     1.8268435


optimized geometry written to: xtbopt.xyz


           -------------------------------------------------
          | TOTAL ENERGY              -43.895911810605 Eh   |
          | GRADIENT NORM               0.000308700786 Eh/α |
          | HOMO-LUMO GAP               5.726176734382 eV   |
           -------------------------------------------------

------------------------------------------------------------------------
 * finished run on 2024/12/20 at 07:04:11.241     
------------------------------------------------------------------------
 total:
 * wall-time:     0 d,  0 h,  0 min,  0.309 sec
 *  cpu-time:     0 d,  0 h,  0 min,  2.440 sec
 * ratio c/w:     7.900 speedup
 SCF:
 * wall-time:     0 d,  0 h,  0 min,  0.023 sec
 *  cpu-time:     0 d,  0 h,  0 min,  0.176 sec
 * ratio c/w:     7.800 speedup
 ANC optimizer:
 * wall-time:     0 d,  0 h,  0 min,  0.269 sec
 *  cpu-time:     0 d,  0 h,  0 min,  2.142 sec
 * ratio c/w:     7.953 speedup

