      -----------------------------------------------------------      
     |                   =====================                   |     
     |                           x T B                           |     
     |                   =====================                   |     
     |                         S. Grimme                         |     
     |          Mulliken Center for Theoretical Chemistry        |     
     |                    University of Bonn                     |     
      -----------------------------------------------------------      

   * xtb version 6.7.1 (edcfbbe) compiled by 'conda@3ef47c1a292c' on 2024-11-25

   xtb is free software: you can redistribute it and/or modify it under
   the terms of the GNU Lesser General Public License as published by
   the Free Software Foundation, either version 3 of the License, or
   (at your option) any later version.
   
   xtb is distributed in the hope that it will be useful,
   but WITHOUT ANY WARRANTY; without even the implied warranty of
   MERCHANTABILITY or FITNESS FOR A PARTICULAR PURPOSE.  See the
   GNU Lesser General Public License for more details.
   
   Cite this work as:
   * C. Bannwarth, E. Caldeweyher, S. Ehlert, A. Hansen, P. Pracht,
     J. Seibert, S. Spicher, S. Grimme, WIREs Comput. Mol. Sci., 2020, 11,
     e01493. DOI: 10.1002/wcms.1493
   
   for GFN2-xTB:
   * C. Bannwarth, S. Ehlert and S. Grimme., J. Chem. Theory Comput., 2019,
     15, 1652-1671. DOI: 10.1021/acs.jctc.8b01176
   for GFN1-xTB:
   * S. Grimme, C. Bannwarth, P. Shushkov, J. Chem. Theory Comput., 2017,
     13, 1989-2009. DOI: 10.1021/acs.jctc.7b00118
   for GFN0-xTB:
   * P. Pracht, E. Caldeweyher, S. Ehlert, S. Grimme, ChemRxiv, 2019, preprint.
     DOI: 10.26434/chemrxiv.8326202.v1
   for GFN-FF:
   * S. Spicher and S. Grimme, Angew. Chem. Int. Ed., 2020, 59, 15665-15673.
     DOI: 10.1002/anie.202004239
   
   for ALPB and GBSA implicit solvation:
   * S. Ehlert, M. Stahn, S. Spicher, S. Grimme, J. Chem. Theory Comput.,
     2021, 17, 4250-4261. DOI: 10.1021/acs.jctc.1c00471
   
   for ddCOSMO and CPCM-X implicit solvation:
   * M. Stahn, S. Ehlert, S. Grimme, J. Phys. Chem. A,
     2023, XX, XXXX-XXXX. DOI: 10.1021/acs.jpca.3c04382
   
   for DFT-D4:
   * E. Caldeweyher, C. Bannwarth and S. Grimme, J. Chem. Phys., 2017,
     147, 034112. DOI: 10.1063/1.4993215
   * E. Caldeweyher, S. Ehlert, A. Hansen, H. Neugebauer, S. Spicher,
     C. Bannwarth and S. Grimme, J. Chem. Phys., 2019, 150, 154122.
     DOI: 10.1063/1.5090222
   * E. Caldeweyher, J.-M. Mewes, S. Ehlert and S. Grimme, Phys. Chem. Chem. Phys.
     2020, 22, 8499-8512. DOI: 10.1039/D0CP00502A
   
   for sTDA-xTB:
   * S. Grimme and C. Bannwarth, J. Chem. Phys., 2016, 145, 054103.
     DOI: 10.1063/1.4959605
   
   in the mass-spec context:
   * V. Asgeirsson, C. Bauer and S. Grimme, Chem. Sci., 2017, 8, 4879.
     DOI: 10.1039/c7sc00601b
   * J. Koopman and S. Grimme, ACS Omega 2019, 4, 12, 15120-15133.
     DOI: 10.1021/acsomega.9b02011
   
   for metadynamics refer to:
   * S. Grimme, J. Chem. Theory Comput., 2019, 155, 2847-2862
     DOI: 10.1021/acs.jctc.9b00143
   
   for SPH calculations refer to:
   * S. Spicher and S. Grimme, J. Chem. Theory Comput., 2021, 17, 1701-1714
     DOI: 10.1021/acs.jctc.0c01306
   
   for ONIOM refer to:
   * C. Plett, A. Katbashev, S. Ehlert, S. Grimme, M. Bursch,
     Phys. Chem. Chem. Phys., 2023, 25, 17860-17868. DOI: 10.1039/D3CP02178E
   
   for DIPRO refer to:
   * J. Kohn, N. Gildemeister, S. Grimme, D. Fazzi, A. Hansen,
     J. Chem. Phys., 2023, just accepted.
   
   for PTB refer to:
   * S. Grimme, M. Mueller, A. Hansen, J. Chem. Phys., 2023, 158, 124111.
     DOI: 10.1063/5.0137838
   
   with help from (in alphabetical order)
   P. Atkinson, C. Bannwarth, F. Bohle, G. Brandenburg, E. Caldeweyher
   M. Checinski, S. Dohm, S. Ehlert, S. Ehrlich, I. Gerasimov, C. Hölzer
   A. Katbashev, J. Kohn, J. Koopman, C. Lavigne, S. Lehtola, F. März, M. Müller,
   F. Musil, H. Neugebauer, J. Pisarek, C. Plett, P. Pracht, F. Pultar,
   J. Seibert, P. Shushkov, S. Spicher, M. Stahn, M. Steiner, T. Strunk,
   J. Stückrath, T. Rose, and J. Unsleber
   
 * started run on 2024/12/20 at 07:04:45.229     
   ID    Z sym.   atoms
    1    8 O      1
    2    6 C      2, 3, 5-10
    3    7 N      4
    4    1 H      11-22

           -------------------------------------------------
          |                Calculation Setup                |
           -------------------------------------------------

          program call               : xtb C0931.xyz --opt --namespace C0931 --charge +1
          calculation namespace      : C0931
          coordinate file            : C0931.xyz
          omp threads                :                     8


           -------------------------------------------------
          |                 G F N 2 - x T B                 |
           -------------------------------------------------

        Reference                      10.1021/acs.jctc.8b01176
      * Hamiltonian:
        H0-scaling (s, p, d)           1.850000    2.230000    2.230000
        zeta-weighting                 0.500000
      * Dispersion:
        s8                             2.700000
        a1                             0.520000
        a2                             5.000000
        s9                             5.000000
      * Repulsion:
        kExp                           1.500000    1.000000
        rExp                           1.000000
      * Coulomb:
        alpha                          2.000000
        third order                    shell-resolved
        anisotropic                    true
        a3                             3.000000
        a5                             4.000000
        cn-shift                       1.200000
        cn-exp                         4.000000
        max-rad                        5.000000


          ...................................................
          :                      SETUP                      :
          :.................................................:
          :  # basis functions                  52          :
          :  # atomic orbitals                  52          :
          :  # shells                           32          :
          :  # electrons                        54          :
          :  max. iterations                   250          :
          :  Hamiltonian                  GFN2-xTB          :
          :  restarted?                      false          :
          :  GBSA solvation                  false          :
          :  PC potential                    false          :
          :  electronic temp.          300.0000000     K    :
          :  accuracy                    1.0000000          :
          :  -> integral cutoff          0.2500000E+02      :
          :  -> integral neglect         0.1000000E-07      :
          :  -> SCF convergence          0.1000000E-05 Eh   :
          :  -> wf. convergence          0.1000000E-03 e    :
          :  Broyden damping             0.4000000          :
          :  net charge                          1          :
          :  unpaired electrons                  0          :
          ...................................................

 iter      E             dE          RMSdq      gap      omega  full diag
   1    -30.1567317 -0.301567E+02  0.447E+00    4.35       0.0  T
   2    -30.2369330 -0.802013E-01  0.294E+00    3.19       1.0  T
   3    -30.2396599 -0.272696E-02  0.138E+00    2.66       1.0  T
   4    -30.2417242 -0.206426E-02  0.537E-01    2.63       1.0  T
   5    -30.2473415 -0.561727E-02  0.120E-01    2.69       1.0  T
   6    -30.2474666 -0.125162E-03  0.471E-02    2.73       1.0  T
   7    -30.2474701 -0.350115E-05  0.265E-02    2.75       1.0  T
   8    -30.2474737 -0.351820E-05  0.710E-03    2.75       3.0  T
   9    -30.2474741 -0.493058E-06  0.261E-03    2.75       8.2  T
  10    -30.2474742 -0.373088E-07  0.140E-03    2.75      15.2  T
  11    -30.2474742 -0.189958E-07  0.502E-04    2.75      42.4  T
  12    -30.2474742 -0.104772E-08  0.166E-04    2.75     128.2  T

   *** convergence criteria satisfied after 12 iterations ***

         #    Occupation            Energy/Eh            Energy/eV
      -------------------------------------------------------------
         1        2.0000           -0.8671611             -23.5967
       ...           ...                  ...                  ...
        21        2.0000           -0.6225300             -16.9399
        22        2.0000           -0.6177793             -16.8106
        23        2.0000           -0.6123179             -16.6620
        24        2.0000           -0.6028851             -16.4053
        25        2.0000           -0.6009053             -16.3515
        26        2.0000           -0.5840819             -15.8937
        27        2.0000           -0.5542998             -15.0833 (HOMO)
        28                         -0.4534154             -12.3381 (LUMO)
        29                         -0.4179113             -11.3719
        30                         -0.3028581              -8.2412
        31                         -0.2083737              -5.6701
        32                         -0.1199081              -3.2629
       ...                                ...                  ...
        52                          0.4199098              11.4263
      -------------------------------------------------------------
                  HL-Gap            0.1008844 Eh            2.7452 eV
             Fermi-level           -0.5038576 Eh          -13.7107 eV

 SCC (total)                   0 d,  0 h,  0 min,  0.011 sec
 SCC setup                      ...        0 min,  0.000 sec (  1.360%)
 Dispersion                     ...        0 min,  0.000 sec (  1.382%)
 classical contributions        ...        0 min,  0.000 sec (  0.317%)
 integral evaluation            ...        0 min,  0.001 sec (  6.695%)
 iterations                     ...        0 min,  0.008 sec ( 74.244%)
 molecular gradient             ...        0 min,  0.002 sec ( 14.921%)
 printout                       ...        0 min,  0.000 sec (  0.945%)

         :::::::::::::::::::::::::::::::::::::::::::::::::::::
         ::                     SUMMARY                     ::
         :::::::::::::::::::::::::::::::::::::::::::::::::::::
         :: total energy             -29.827444755203 Eh    ::
         :: gradient norm              0.042369891544 Eh/a0 ::
         :: HOMO-LUMO gap              2.745203136749 eV    ::
         ::.................................................::
         :: SCC energy               -30.247411914427 Eh    ::
         :: -> isotropic ES            0.104260309461 Eh    ::
         :: -> anisotropic ES         -0.014173229828 Eh    ::
         :: -> anisotropic XC          0.017673338450 Eh    ::
         :: -> dispersion             -0.015411685638 Eh    ::
         :: repulsion energy           0.419967159223 Eh    ::
         :: add. restraining           0.000000000000 Eh    ::
         :: total charge               1.000000000000 e     ::
         :::::::::::::::::::::::::::::::::::::::::::::::::::::

      ----------------------------------------------------------- 
     |                   =====================                   |
     |                        A N C O P T                        |
     |                   =====================                   |
     |               Approximate Normal Coordinate               |
     |                Rational Function Optimizer                |
      ----------------------------------------------------------- 
      ----------------------------------------------------------- 
     |                   =====================                   |
     |                        A N C O P T                        |
     |                   =====================                   |
     |               Approximate Normal Coordinate               |
     |                Rational Function Optimizer                |
      ----------------------------------------------------------- 

          ...................................................
          :                      SETUP                      :
          :.................................................:
          :   optimization level            normal          :
          :   max. optcycles                   200          :
          :   ANC micro-cycles                  20          :
          :   degrees of freedom                60          :
          :.................................................:
          :   RF solver                   davidson          :
          :   write xtbopt.log                true          :
          :   linear?                        false          :
          :   energy convergence         0.5000000E-05 Eh   :
          :   grad. convergence          0.1000000E-02 Eh/α :
          :   maxmium RF displ.          1.0000000          :
          :   Hlow (freq-cutoff)         0.1000000E-01      :
          :   Hmax (freq-cutoff)         5.0000000          :
          :   S6 in model hess.         20.0000000          :
          ...................................................

generating ANC from exact Hessian ...
Using Lindh-Hessian (1995)
 Shifting diagonal of input Hessian by    8.5527693023141182E-003
 Lowest  eigenvalues of input Hessian
    0.000000    0.000000    0.000000    0.000000    0.000000    0.000000
    0.010000    0.011182    0.013357    0.015262    0.016681    0.019739
    0.022588    0.026780    0.032166    0.034029    0.034840    0.044746
 Highest eigenvalues
    1.443226    1.600342    1.623767    1.899426    2.060106    2.088348


........................................................................
.............................. CYCLE    1 ..............................
........................................................................

 iter      E             dE          RMSdq      gap      omega  full diag
   1    -30.2474742 -0.302475E+02  0.685E-05    2.75       0.0  T
   2    -30.2474742 -0.179767E-10  0.366E-05    2.75     582.6  T
   3    -30.2474742 -0.736122E-11  0.230E-05    2.75     927.4  T
     SCC iter.                  ...        0 min,  0.002 sec
     gradient                   ...        0 min,  0.002 sec
 * total energy  :   -29.8274448 Eh     change       -0.2666596E-09 Eh
   gradient norm :     0.0423694 Eh/α   predicted     0.0000000E+00 (-100.00%)
   displ. norm   :     0.2251478 α      lambda       -0.4991835E-02
   maximum displ.:     0.0914206 α      in ANC's #16, #2, #9, ...

........................................................................
.............................. CYCLE    2 ..............................
........................................................................

 iter      E             dE          RMSdq      gap      omega  full diag
   1    -30.2680070 -0.302680E+02  0.196E-01    2.86       0.0  T
   2    -30.2680822 -0.752505E-04  0.113E-01    2.87       1.0  T
   3    -30.2680757  0.656333E-05  0.490E-02    2.86       1.0  T
   4    -30.2680885 -0.127893E-04  0.157E-02    2.87       1.4  T
   5    -30.2680932 -0.468823E-05  0.348E-03    2.87       6.1  T
   6    -30.2680932 -0.503412E-08  0.199E-03    2.87      10.7  T
   7    -30.2680932 -0.250556E-07  0.523E-04    2.87      40.8  T
   8    -30.2680932 -0.205427E-08  0.249E-04    2.87      85.7  T
     SCC iter.                  ...        0 min,  0.004 sec
     gradient                   ...        0 min,  0.002 sec
 * total energy  :   -29.8307634 Eh     change       -0.3318640E-02 Eh
   gradient norm :     0.0209947 Eh/α   predicted    -0.2622581E-02 ( -20.97%)
   displ. norm   :     0.1813968 α      lambda       -0.1292876E-02
   maximum displ.:     0.0925693 α      in ANC's #2, #6, #9, ...

........................................................................
.............................. CYCLE    3 ..............................
........................................................................

 iter      E             dE          RMSdq      gap      omega  full diag
   1    -30.2767744 -0.302768E+02  0.106E-01    2.93       0.0  T
   2    -30.2768104 -0.360243E-04  0.625E-02    2.94       1.0  T
   3    -30.2768111 -0.754539E-06  0.309E-02    2.94       1.0  T
   4    -30.2768135 -0.237280E-05  0.106E-02    2.94       2.0  T
   5    -30.2768155 -0.199741E-05  0.216E-03    2.94       9.9  T
   6    -30.2768155 -0.515174E-08  0.119E-03    2.94      17.9  T
   7    -30.2768155 -0.783574E-08  0.363E-04    2.94      58.7  T
   8    -30.2768155 -0.110517E-08  0.148E-04    2.94     144.5  T
     SCC iter.                  ...        0 min,  0.004 sec
     gradient                   ...        0 min,  0.002 sec
 * total energy  :   -29.8315118 Eh     change       -0.7484158E-03 Eh
   gradient norm :     0.0076185 Eh/α   predicted    -0.6678775E-03 ( -10.76%)
   displ. norm   :     0.0987396 α      lambda       -0.1663475E-03
   maximum displ.:     0.0697799 α      in ANC's #2, #1, #3, ...

........................................................................
.............................. CYCLE    4 ..............................
........................................................................

 iter      E             dE          RMSdq      gap      omega  full diag
   1    -30.2765518 -0.302766E+02  0.402E-02    2.95       0.0  T
   2    -30.2765530 -0.117919E-05  0.237E-02    2.96       1.0  T
   3    -30.2765526  0.451161E-06  0.758E-03    2.96       2.8  T
   4    -30.2765532 -0.620296E-06  0.194E-03    2.96      11.0  T
   5    -30.2765533 -0.675232E-07  0.729E-04    2.96      29.2  T
   6    -30.2765533 -0.448122E-09  0.246E-04    2.96      86.6  T
     SCC iter.                  ...        0 min,  0.003 sec
     gradient                   ...        0 min,  0.002 sec
 * total energy  :   -29.8316318 Eh     change       -0.1200031E-03 Eh
   gradient norm :     0.0033663 Eh/α   predicted    -0.8398770E-04 ( -30.01%)
   displ. norm   :     0.1197301 α      lambda       -0.1060909E-03
   maximum displ.:     0.0802176 α      in ANC's #2, #1, #3, ...

........................................................................
.............................. CYCLE    5 ..............................
........................................................................

 iter      E             dE          RMSdq      gap      omega  full diag
   1    -30.2753874 -0.302754E+02  0.502E-02    2.96       0.0  T
   2    -30.2753879 -0.550481E-06  0.300E-02    2.96       1.0  T
   3    -30.2753872  0.749177E-06  0.635E-03    2.96       3.4  T
   4    -30.2753881 -0.913647E-06  0.154E-03    2.96      13.9  T
   5    -30.2753881 -0.302390E-07  0.730E-04    2.96      29.2  T
   6    -30.2753881 -0.924196E-09  0.147E-04    2.96     145.4  T
     SCC iter.                  ...        0 min,  0.003 sec
     gradient                   ...        0 min,  0.002 sec
 * total energy  :   -29.8317056 Eh     change       -0.7376507E-04 Eh
   gradient norm :     0.0024078 Eh/α   predicted    -0.5383259E-04 ( -27.02%)
   displ. norm   :     0.1098912 α      lambda       -0.5618057E-04
   maximum displ.:     0.0719738 α      in ANC's #1, #2, #3, ...

........................................................................
.............................. CYCLE    6 ..............................
........................................................................

 iter      E             dE          RMSdq      gap      omega  full diag
   1    -30.2748879 -0.302749E+02  0.481E-02    2.97       0.0  T
   2    -30.2748883 -0.313547E-06  0.288E-02    2.97       1.0  T
   3    -30.2748877  0.596792E-06  0.572E-03    2.97       3.7  T
   4    -30.2748884 -0.720119E-06  0.120E-03    2.97      17.8  T
   5    -30.2748884 -0.132264E-07  0.606E-04    2.97      35.2  T
   6    -30.2748884 -0.639186E-09  0.152E-04    2.97     140.6  T
     SCC iter.                  ...        0 min,  0.003 sec
     gradient                   ...        0 min,  0.002 sec
 * total energy  :   -29.8317507 Eh     change       -0.4508593E-04 Eh
   gradient norm :     0.0029178 Eh/α   predicted    -0.2843267E-04 ( -36.94%)
   displ. norm   :     0.1429886 α      lambda       -0.6236407E-04
   maximum displ.:     0.0961766 α      in ANC's #1, #2, #3, ...

........................................................................
.............................. CYCLE    7 ..............................
........................................................................

 iter      E             dE          RMSdq      gap      omega  full diag
   1    -30.2748592 -0.302749E+02  0.644E-02    2.98       0.0  T
   2    -30.2748596 -0.413009E-06  0.386E-02    2.98       1.0  T
   3    -30.2748586  0.986549E-06  0.741E-03    2.98       2.9  T
   4    -30.2748598 -0.120120E-05  0.143E-03    2.98      15.0  T
   5    -30.2748598 -0.904626E-08  0.721E-04    2.98      29.6  T
   6    -30.2748598 -0.132075E-08  0.195E-04    2.98     109.5  T
     SCC iter.                  ...        0 min,  0.003 sec
     gradient                   ...        0 min,  0.002 sec
 * total energy  :   -29.8318001 Eh     change       -0.4939473E-04 Eh
   gradient norm :     0.0024811 Eh/α   predicted    -0.3182067E-04 ( -35.58%)
   displ. norm   :     0.1382909 α      lambda       -0.5006584E-04
   maximum displ.:     0.0996064 α      in ANC's #1, #3, #2, ...

........................................................................
.............................. CYCLE    8 ..............................
........................................................................

 iter      E             dE          RMSdq      gap      omega  full diag
   1    -30.2753104 -0.302753E+02  0.612E-02    2.99       0.0  T
   2    -30.2753108 -0.340628E-06  0.367E-02    2.99       1.0  T
   3    -30.2753098  0.936764E-06  0.696E-03    2.99       3.1  T
   4    -30.2753110 -0.113612E-05  0.129E-03    2.99      16.6  T
   5    -30.2753110 -0.307970E-08  0.559E-04    2.99      38.1  T
   6    -30.2753110 -0.133603E-08  0.166E-04    2.99     128.6  T
     SCC iter.                  ...        0 min,  0.003 sec
     gradient                   ...        0 min,  0.002 sec
 * total energy  :   -29.8318390 Eh     change       -0.3889612E-04 Eh
   gradient norm :     0.0018308 Eh/α   predicted    -0.2551275E-04 ( -34.41%)
   displ. norm   :     0.1562612 α      lambda       -0.3346801E-04
   maximum displ.:     0.1236197 α      in ANC's #1, #3, #4, ...

........................................................................
.............................. CYCLE    9 ..............................
........................................................................

 iter      E             dE          RMSdq      gap      omega  full diag
   1    -30.2761499 -0.302761E+02  0.639E-02    3.00       0.0  T
   2    -30.2761503 -0.418397E-06  0.382E-02    2.99       1.0  T
   3    -30.2761492  0.112767E-05  0.733E-03    2.99       2.9  T
   4    -30.2761506 -0.135462E-05  0.133E-03    2.99      16.0  T
   5    -30.2761506 -0.438906E-08  0.610E-04    2.99      35.0  T
   6    -30.2761506 -0.106853E-08  0.182E-04    2.99     117.2  T
     SCC iter.                  ...        0 min,  0.003 sec
     gradient                   ...        0 min,  0.002 sec
 * total energy  :   -29.8318769 Eh     change       -0.3795430E-04 Eh
   gradient norm :     0.0020171 Eh/α   predicted    -0.1691602E-04 ( -55.43%)
   displ. norm   :     0.0744074 α      lambda       -0.2619755E-04
   maximum displ.:     0.0633781 α      in ANC's #1, #3, #4, ...

........................................................................
.............................. CYCLE   10 ..............................
........................................................................

 iter      E             dE          RMSdq      gap      omega  full diag
   1    -30.2764100 -0.302764E+02  0.253E-02    3.00       0.0  T
   2    -30.2764101 -0.791200E-07  0.151E-02    3.00       1.4  T
   3    -30.2764100  0.148444E-06  0.270E-03    2.99       7.9  T
   4    -30.2764101 -0.179204E-06  0.555E-04    3.00      38.4  T
   5    -30.2764101 -0.247772E-08  0.270E-04    3.00      79.0  T
     SCC iter.                  ...        0 min,  0.002 sec
     gradient                   ...        0 min,  0.002 sec
 * total energy  :   -29.8319015 Eh     change       -0.2463691E-04 Eh
   gradient norm :     0.0018171 Eh/α   predicted    -0.1317503E-04 ( -46.52%)
   displ. norm   :     0.1812882 α      lambda       -0.4734277E-04
   maximum displ.:     0.1512736 α      in ANC's #1, #3, #2, ...

........................................................................
.............................. CYCLE   11 ..............................
........................................................................

 iter      E             dE          RMSdq      gap      omega  full diag
   1    -30.2764490 -0.302764E+02  0.581E-02    3.00       0.0  T
   2    -30.2764494 -0.386201E-06  0.345E-02    3.00       1.0  T
   3    -30.2764490  0.373010E-06  0.469E-03    2.99       4.5  T
   4    -30.2764495 -0.480662E-06  0.127E-03    3.00      16.8  T
   5    -30.2764495 -0.175527E-07  0.607E-04    3.00      35.1  T
   6    -30.2764495 -0.867285E-09  0.199E-04    3.00     107.1  T
     SCC iter.                  ...        0 min,  0.003 sec
     gradient                   ...        0 min,  0.002 sec
 * total energy  :   -29.8319620 Eh     change       -0.6046514E-04 Eh
   gradient norm :     0.0017057 Eh/α   predicted    -0.2402592E-04 ( -60.26%)
   displ. norm   :     0.2119784 α      lambda       -0.4470587E-04
   maximum displ.:     0.1807042 α      in ANC's #1, #3, #2, ...

........................................................................
.............................. CYCLE   12 ..............................
........................................................................

 iter      E             dE          RMSdq      gap      omega  full diag
   1    -30.2758672 -0.302759E+02  0.675E-02    3.00       0.0  T
   2    -30.2758675 -0.278372E-06  0.401E-02    3.00       1.0  T
   3    -30.2758674  0.346765E-07  0.261E-03    2.99       8.2  T
   4    -30.2758675 -0.107509E-06  0.123E-03    2.99      17.4  T
   5    -30.2758675 -0.150460E-07  0.537E-04    2.99      39.7  T
   6    -30.2758676 -0.113282E-08  0.136E-04    2.99     157.1  T
     SCC iter.                  ...        0 min,  0.003 sec
     gradient                   ...        0 min,  0.002 sec
 * total energy  :   -29.8320175 Eh     change       -0.5553021E-04 Eh
   gradient norm :     0.0018314 Eh/α   predicted    -0.2280104E-04 ( -58.94%)
   displ. norm   :     0.1374607 α      lambda       -0.2778080E-04
   maximum displ.:     0.1228217 α      in ANC's #1, #2, #6, ...

........................................................................
.............................. CYCLE   13 ..............................
........................................................................

 iter      E             dE          RMSdq      gap      omega  full diag
   1    -30.2761707 -0.302762E+02  0.392E-02    2.99       0.0  T
   2    -30.2761708 -0.131102E-06  0.232E-02    2.99       1.0  T
   3    -30.2761708 -0.731978E-08  0.161E-03    2.99      13.2  T
   4    -30.2761708 -0.292600E-07  0.749E-04    2.99      28.5  T
   5    -30.2761708 -0.274826E-08  0.393E-04    2.99      54.3  T
     SCC iter.                  ...        0 min,  0.002 sec
     gradient                   ...        0 min,  0.002 sec
 * total energy  :   -29.8320515 Eh     change       -0.3394259E-04 Eh
   gradient norm :     0.0013099 Eh/α   predicted    -0.1400942E-04 ( -58.73%)
   displ. norm   :     0.1153445 α      lambda       -0.2150461E-04
   maximum displ.:     0.1057358 α      in ANC's #1, #3, #6, ...

........................................................................
.............................. CYCLE   14 ..............................
........................................................................

 iter      E             dE          RMSdq      gap      omega  full diag
   1    -30.2760902 -0.302761E+02  0.397E-02    3.00       0.0  T
   2    -30.2760903 -0.102850E-06  0.237E-02    3.00       1.0  T
   3    -30.2760903  0.263590E-08  0.165E-03    2.99      12.9  T
   4    -30.2760903 -0.320292E-07  0.775E-04    2.99      27.5  T
   5    -30.2760903 -0.414341E-08  0.300E-04    2.99      71.1  T
     SCC iter.                  ...        0 min,  0.002 sec
     gradient                   ...        0 min,  0.002 sec
 * total energy  :   -29.8320780 Eh     change       -0.2656212E-04 Eh
   gradient norm :     0.0011845 Eh/α   predicted    -0.1081797E-04 ( -59.27%)
   displ. norm   :     0.0811020 α      lambda       -0.1517296E-04
   maximum displ.:     0.0779486 α      in ANC's #1, #5, #6, ...

........................................................................
.............................. CYCLE   15 ..............................
........................................................................

 iter      E             dE          RMSdq      gap      omega  full diag
   1    -30.2761202 -0.302761E+02  0.234E-02    2.99       0.0  T
   2    -30.2761203 -0.435715E-07  0.140E-02    2.99       1.5  T
   3    -30.2761203  0.140417E-08  0.119E-03    2.99      17.9  T
   4    -30.2761203 -0.161494E-07  0.487E-04    2.99      43.8  T
   5    -30.2761203 -0.861206E-09  0.213E-04    2.99      99.9  T
     SCC iter.                  ...        0 min,  0.002 sec
     gradient                   ...        0 min,  0.002 sec
 * total energy  :   -29.8320986 Eh     change       -0.2050440E-04 Eh
   gradient norm :     0.0008270 Eh/α   predicted    -0.7610841E-05 ( -62.88%)
   displ. norm   :     0.0938885 α      lambda       -0.1615950E-04
   maximum displ.:     0.0896119 α      in ANC's #1, #5, #11, ...

........................................................................
.............................. CYCLE   16 ..............................
........................................................................

 iter      E             dE          RMSdq      gap      omega  full diag
   1    -30.2763052 -0.302763E+02  0.289E-02    3.00       0.0  T
   2    -30.2763052 -0.695525E-07  0.173E-02    3.00       1.2  T
   3    -30.2763052  0.318311E-07  0.173E-03    3.00      12.3  T
   4    -30.2763053 -0.585059E-07  0.656E-04    3.00      32.5  T
   5    -30.2763053 -0.250910E-08  0.270E-04    3.00      78.9  T
     SCC iter.                  ...        0 min,  0.002 sec
     gradient                   ...        0 min,  0.002 sec
 * total energy  :   -29.8321200 Eh     change       -0.2142330E-04 Eh
   gradient norm :     0.0006943 Eh/α   predicted    -0.8114919E-05 ( -62.12%)
   displ. norm   :     0.1097543 α      lambda       -0.1579022E-04
   maximum displ.:     0.1030265 α      in ANC's #1, #5, #11, ...

........................................................................
.............................. CYCLE   17 ..............................
........................................................................

 iter      E             dE          RMSdq      gap      omega  full diag
   1    -30.2763184 -0.302763E+02  0.361E-02    3.00       0.0  T
   2    -30.2763185 -0.930658E-07  0.215E-02    3.00       1.0  T
   3    -30.2763184  0.403654E-07  0.201E-03    3.00      10.6  T
   4    -30.2763185 -0.779371E-07  0.769E-04    3.00      27.7  T
   5    -30.2763185 -0.293237E-08  0.286E-04    3.00      74.6  T
     SCC iter.                  ...        0 min,  0.002 sec
     gradient                   ...        0 min,  0.002 sec
 * total energy  :   -29.8321402 Eh     change       -0.2023597E-04 Eh
   gradient norm :     0.0004978 Eh/α   predicted    -0.7941052E-05 ( -60.76%)
   displ. norm   :     0.1195911 α      lambda       -0.1372188E-04
   maximum displ.:     0.1114461 α      in ANC's #1, #4, #5, ...

........................................................................
.............................. CYCLE   18 ..............................
........................................................................

 iter      E             dE          RMSdq      gap      omega  full diag
   1    -30.2763320 -0.302763E+02  0.397E-02    3.00       0.0  T
   2    -30.2763321 -0.119679E-06  0.236E-02    3.00       1.0  T
   3    -30.2763320  0.867144E-07  0.248E-03    3.00       8.6  T
   4    -30.2763321 -0.132863E-06  0.830E-04    3.00      25.7  T
   5    -30.2763321 -0.363081E-08  0.339E-04    3.00      62.9  T
     SCC iter.                  ...        0 min,  0.002 sec
     gradient                   ...        0 min,  0.002 sec
 * total energy  :   -29.8321573 Eh     change       -0.1713284E-04 Eh
   gradient norm :     0.0004814 Eh/α   predicted    -0.6905387E-05 ( -59.70%)
   displ. norm   :     0.1439717 α      lambda       -0.1256473E-04
   maximum displ.:     0.1332763 α      in ANC's #1, #4, #5, ...

........................................................................
.............................. CYCLE   19 ..............................
........................................................................

 iter      E             dE          RMSdq      gap      omega  full diag
   1    -30.2764191 -0.302764E+02  0.457E-02    3.01       0.0  T
   2    -30.2764192 -0.148734E-06  0.271E-02    3.01       1.0  T
   3    -30.2764192  0.292504E-07  0.205E-03    3.01      10.4  T
   4    -30.2764193 -0.706509E-07  0.916E-04    3.01      23.3  T
   5    -30.2764193 -0.810093E-08  0.402E-04    3.01      53.1  T
     SCC iter.                  ...        0 min,  0.002 sec
     gradient                   ...        0 min,  0.002 sec
 * total energy  :   -29.8321725 Eh     change       -0.1513009E-04 Eh
   gradient norm :     0.0005242 Eh/α   predicted    -0.6348321E-05 ( -58.04%)
   displ. norm   :     0.1734269 α      lambda       -0.1090104E-04
   maximum displ.:     0.1606299 α      in ANC's #1, #4, #5, ...

........................................................................
.............................. CYCLE   20 ..............................
........................................................................

 iter      E             dE          RMSdq      gap      omega  full diag
   1    -30.2763884 -0.302764E+02  0.541E-02    3.01       0.0  T
   2    -30.2763885 -0.181183E-06  0.321E-02    3.01       1.0  T
   3    -30.2763886 -0.238051E-07  0.168E-03    3.01      12.7  T
   4    -30.2763886 -0.216494E-07  0.957E-04    3.01      22.3  T
   5    -30.2763886 -0.103089E-07  0.416E-04    3.01      51.3  T
     SCC iter.                  ...        0 min,  0.002 sec
     gradient                   ...        0 min,  0.002 sec
 * total energy  :   -29.8321839 Eh     change       -0.1147264E-04 Eh
   gradient norm :     0.0007656 Eh/α   predicted    -0.5523776E-05 ( -51.85%)
   displ. norm   :     0.1425502 α      lambda       -0.5970069E-05
   maximum displ.:     0.1310636 α      in ANC's #1, #5, #4, ...
 * RMSD in coord.:     0.4751858 α      energy gain  -0.4739191E-02 Eh

generating ANC from exact Hessian ...
Using Lindh-Hessian (1995)
 Shifting diagonal of input Hessian by    8.3679215433022681E-003
 Lowest  eigenvalues of input Hessian
    0.000000    0.000000    0.000000    0.000000    0.000000    0.000000
    0.010000    0.011169    0.013663    0.015976    0.017034    0.020840
    0.023751    0.028507    0.034002    0.036402    0.037017    0.048484
 Highest eigenvalues
    1.528991    1.663684    1.690337    1.933715    2.170540    2.207467


........................................................................
.............................. CYCLE   21 ..............................
........................................................................

 iter      E             dE          RMSdq      gap      omega  full diag
   1    -30.2764876 -0.302765E+02  0.419E-02    3.01       0.0  T
   2    -30.2764878 -0.125365E-06  0.248E-02    3.01       1.0  T
   3    -30.2764878  0.541638E-08  0.157E-03    3.01      13.6  T
   4    -30.2764878 -0.328057E-07  0.781E-04    3.01      27.3  T
   5    -30.2764878 -0.618910E-08  0.376E-04    3.01      56.8  T
     SCC iter.                  ...        0 min,  0.002 sec
     gradient                   ...        0 min,  0.002 sec
 * total energy  :   -29.8321894 Eh     change       -0.5413133E-05 Eh
   gradient norm :     0.0006729 Eh/α   predicted     0.0000000E+00 (-100.00%)
   displ. norm   :     0.0130451 α      lambda       -0.2273428E-05
   maximum displ.:     0.0084365 α      in ANC's #3, #9, #2, ...

........................................................................
.............................. CYCLE   22 ..............................
........................................................................

 iter      E             dE          RMSdq      gap      omega  full diag
   1    -30.2767876 -0.302768E+02  0.584E-03    3.01       0.0  T
   2    -30.2767876 -0.659495E-08  0.344E-03    3.01       6.2  T
   3    -30.2767876  0.407394E-08  0.506E-04    3.01      42.1  T
   4    -30.2767876 -0.523508E-08  0.148E-04    3.01     144.1  T
     SCC iter.                  ...        0 min,  0.002 sec
     gradient                   ...        0 min,  0.002 sec
 * total energy  :   -29.8321916 Eh     change       -0.2236504E-05 Eh
   gradient norm :     0.0002741 Eh/α   predicted    -0.1141474E-05 ( -48.96%)
   displ. norm   :     0.0218490 α      lambda       -0.1813794E-05
   maximum displ.:     0.0152598 α      in ANC's #3, #5, #9, ...

   *** GEOMETRY OPTIMIZATION CONVERGED AFTER 22 ITERATIONS ***

------------------------------------------------------------------------
 total energy gain   :        -0.0047468 Eh       -2.9787 kcal/mol
 total RMSD          :         0.4757500 a0        0.2518 Å
 total power (kW/mol):        -0.5664922 (step)  -99.3575 (real)
------------------------------------------------------------------------

 ANCopt (total)                0 d,  0 h,  0 min,  0.125 sec
 optimizer setup                ...        0 min,  0.000 sec (  0.062%)
 model hessian                  ...        0 min,  0.012 sec (  9.337%)
 ANC generation                 ...        0 min,  0.001 sec (  0.521%)
 coordinate transformation      ...        0 min,  0.000 sec (  0.109%)
 single point calculation       ...        0 min,  0.109 sec ( 87.042%)
 optimization log               ...        0 min,  0.001 sec (  1.106%)
 hessian update                 ...        0 min,  0.000 sec (  0.233%)
 rational function              ...        0 min,  0.001 sec (  0.965%)

================
 final structure:
================
22
 xtb: 6.7.1 (edcfbbe)
O            1.27631563520879       -0.32376919303411        1.00169476504447
C            0.62207458582837       -1.55220230431901        0.80591466233617
C            1.06030429400469       -2.08712780065919       -0.56689657591670
N            2.50318139509855       -2.23898947574840       -0.58626501124659
C            3.26448514554999       -1.16593287434275       -0.81170561079567
C            4.64184183400030       -1.25881440818633       -0.74605092848335
C            5.23020103466103       -2.47571477533376       -0.45001059881637
C            4.42645185482046       -3.59663596136171       -0.21693456478244
C            3.05377848702572       -3.42236751027358       -0.29127147748193
C            5.02135685732474       -4.92325943540111        0.09492206665210
H            0.90783445406765        0.13070890157305        1.76620754541892
H            0.89699011339112       -2.27055383241921        1.59186518141764
H           -0.46750474035297       -1.43754898819747        0.79789116670736
H            0.57778631579259       -3.04396851090681       -0.76545461615599
H            0.76962974820991       -1.36408195943737       -1.33102293601471
H            2.76203832634947       -0.23527233227596       -1.02337313927511
H            5.24196668099894       -0.38186527262126       -0.92711940739298
H            6.30432741812793       -2.56679258076731       -0.39621058647532
H            2.38047154378224       -4.24889032998554       -0.11493013717986
H            5.59280740213425       -5.28360287144123       -0.75962127003773
H            5.71302788999969       -4.84047863594806        0.93105101193589
H            4.25994372397663       -5.65815984891335        0.33726046054245

 Bond Distances (Angstroems)
 ---------------------------
O1-C2=1.4055         O1-H11=0.9627        C2-O1=1.4055         C2-C3=1.5371         C2-H12=1.0997        C2-H13=1.0956        
C3-C2=1.5371         C3-N4=1.4510         C3-H14=1.0899        C3-H15=1.0914        N4-C3=1.4510         N4-C5=1.3349         
N4-C9=1.3381         C5-N4=1.3349         C5-C6=1.3820         C5-H16=1.0786        C6-C5=1.3820         C6-C7=1.3837         
C6-H17=1.0779        C7-C6=1.3837         C7-C8=1.3989         C7-H18=1.0793        C8-C7=1.3989         C8-C9=1.3857         
C8-C10=1.4870        C9-N4=1.3381         C9-C8=1.3857         C9-H19=1.0805        C10-C8=1.4870        C10-H20=1.0893       
C10-H21=1.0883       C10-H22=1.0856       H11-O1=0.9627        H12-C2=1.0997        H13-C2=1.0956        H14-C3=1.0899        
H15-C3=1.0914        H16-C5=1.0786        H17-C6=1.0779        H18-C7=1.0793        H19-C9=1.0805        H20-C10=1.0893       
H21-C10=1.0883       H22-C10=1.0856       
 C  H  Rav=1.0869 sigma=0.0069  Rmin=1.0779  Rmax=1.0997    11
 C  C  Rav=1.4291 sigma=0.0607  Rmin=1.3820  Rmax=1.5371     6
 N  C  Rav=1.3747 sigma=0.0540  Rmin=1.3349  Rmax=1.4510     3
 O  H  Rav=0.9627 sigma=0.0000  Rmin=0.9627  Rmax=0.9627     1
 O  C  Rav=1.4055 sigma=0.0000  Rmin=1.4055  Rmax=1.4055     1

 selected bond angles (degree)
 --------------------
H11-O1-C2=110.19               C3-C2-O1=107.21                H12-C2-O1=110.79               H12-C2-C3=109.86               
H13-C2-O1=111.87               H13-C2-C3=108.26               H13-C2-H12=108.80              N4-C3-C2=109.38                
H14-C3-C2=110.00               H14-C3-N4=110.24               H15-C3-C2=108.59               H15-C3-N4=108.96               
H15-C3-H14=109.64              C5-N4-C3=119.03                C9-N4-C3=119.92                C9-N4-C5=120.90                
C6-C5-N4=120.42                H16-C5-N4=117.46               H16-C5-C6=122.11               C7-C6-C5=119.54                
H17-C6-C5=119.48               H17-C6-C7=120.98               C8-C7-C6=119.74                H18-C7-C6=120.53               
H18-C7-C8=119.73               C9-C8-C7=117.35                C10-C8-C7=121.33               C10-C8-C9=121.32               
C8-C9-N4=122.05                H19-C9-N4=117.13               H19-C9-C8=120.82               H20-C10-C8=109.91              
H21-C10-C8=110.34              H21-C10-H20=107.13             H22-C10-C8=111.73              H22-C10-H20=108.61             
H22-C10-H21=109.01             

 selected dihedral angles (degree)
 ---------------------------------
C3-C2-O1-H11=169.15           H12-C2-O1-H11=289.02          H13-C2-O1-H11= 50.61          N4-C3-C2-O1= 58.73            
N4-C3-C2-H12=298.27           N4-C3-C2-H13=179.58           H14-C3-C2-O1=179.95           H14-C3-C2-H12= 59.48          
H14-C3-C2-H13=300.80          H15-C3-C2-O1=299.94           H15-C3-C2-H12=179.47          H15-C3-C2-H13= 60.79          
C5-N4-C3-C2=278.88            C5-N4-C3-H14=157.81           C5-N4-C3-H15= 37.45           C9-N4-C3-C2= 94.40            
C9-N4-C3-H14=333.32           C9-N4-C3-H15=212.96           C6-C5-N4-C3=175.56            C6-C5-N4-C9=  0.09            
H16-C5-N4-C3=356.79           H16-C5-N4-C9=181.32           C7-C6-C5-N4=  0.28            C7-C6-C5-H16=179.00           
H17-C6-C5-N4=180.23           H17-C6-C5-H16=358.95          C8-C7-C6-C5=359.82            C8-C7-C6-H17=179.87           
H18-C7-C6-C5=179.90           H18-C7-C6-H17=359.95          C9-C8-C7-C6=359.73            C9-C8-C7-H18=179.65           
C10-C8-C7-C6=179.58           C10-C8-C7-H18=359.50          C8-C9-N4-C3=183.99            C8-C9-N4-C5=359.42            
H19-C9-N4-C3=  4.25           H19-C9-N4-C5=179.68           N4-C9-C8-C7=  0.66            N4-C9-C8-C10=180.80           
H19-C9-C8-C7=180.39           H19-C9-C8-C10=  0.54          H20-C10-C8-C7=295.37          H20-C10-C8-C9=115.22          
H21-C10-C8-C7= 53.29          H21-C10-C8-C9=233.13          H22-C10-C8-C7=174.73          H22-C10-C8-C9=354.58          
           -------------------------------------------------
          |                Final Singlepoint                |
           -------------------------------------------------

          ...................................................
          :                      SETUP                      :
          :.................................................:
          :  # basis functions                  52          :
          :  # atomic orbitals                  52          :
          :  # shells                           32          :
          :  # electrons                        54          :
          :  max. iterations                   250          :
          :  Hamiltonian                  GFN2-xTB          :
          :  restarted?                      false          :
          :  GBSA solvation                  false          :
          :  PC potential                    false          :
          :  electronic temp.          300.0000000     K    :
          :  accuracy                    1.0000000          :
          :  -> integral cutoff          0.2500000E+02      :
          :  -> integral neglect         0.1000000E-07      :
          :  -> SCF convergence          0.1000000E-05 Eh   :
          :  -> wf. convergence          0.1000000E-03 e    :
          :  Broyden damping             0.4000000          :
          :  net charge                          1          :
          :  unpaired electrons                  0          :
          ...................................................

 iter      E             dE          RMSdq      gap      omega  full diag
   1    -30.2767876 -0.302768E+02  0.659E-05    3.01       0.0  T
   2    -30.2767876 -0.585487E-11  0.396E-05    3.01     538.7  T
   3    -30.2767876  0.379075E-11  0.235E-05    3.01     907.9  T

   *** convergence criteria satisfied after 3 iterations ***

         #    Occupation            Energy/Eh            Energy/eV
      -------------------------------------------------------------
         1        2.0000           -0.8708595             -23.6973
       ...           ...                  ...                  ...
        21        2.0000           -0.6234191             -16.9641
        22        2.0000           -0.6189371             -16.8421
        23        2.0000           -0.6121900             -16.6585
        24        2.0000           -0.6029300             -16.4066
        25        2.0000           -0.6001091             -16.3298
        26        2.0000           -0.5828000             -15.8588
        27        2.0000           -0.5590327             -15.2121 (HOMO)
        28                         -0.4484756             -12.2036 (LUMO)
        29                         -0.4139990             -11.2655
        30                         -0.2978547              -8.1050
        31                         -0.1703162              -4.6345
        32                         -0.0973351              -2.6486
       ...                                ...                  ...
        52                          0.4481937              12.1960
      -------------------------------------------------------------
                  HL-Gap            0.1105571 Eh            3.0084 eV
             Fermi-level           -0.5037541 Eh          -13.7078 eV

 SCC (total)                   0 d,  0 h,  0 min,  0.004 sec
 SCC setup                      ...        0 min,  0.000 sec (  1.313%)
 Dispersion                     ...        0 min,  0.000 sec (  1.745%)
 classical contributions        ...        0 min,  0.000 sec (  0.319%)
 integral evaluation            ...        0 min,  0.001 sec ( 14.492%)
 iterations                     ...        0 min,  0.001 sec ( 37.849%)
 molecular gradient             ...        0 min,  0.002 sec ( 42.201%)
 printout                       ...        0 min,  0.000 sec (  1.716%)

         :::::::::::::::::::::::::::::::::::::::::::::::::::::
         ::                     SUMMARY                     ::
         :::::::::::::::::::::::::::::::::::::::::::::::::::::
         :: total energy             -29.832191596362 Eh    ::
         :: gradient norm              0.000274387245 Eh/a0 ::
         :: HOMO-LUMO gap              3.008410937768 eV    ::
         ::.................................................::
         :: SCC energy               -30.276699436695 Eh    ::
         :: -> isotropic ES            0.103341417033 Eh    ::
         :: -> anisotropic ES         -0.013824661885 Eh    ::
         :: -> anisotropic XC          0.016438751253 Eh    ::
         :: -> dispersion             -0.015761987299 Eh    ::
         :: repulsion energy           0.444507840333 Eh    ::
         :: add. restraining           0.000000000000 Eh    ::
         :: total charge               1.000000000000 e     ::
         :::::::::::::::::::::::::::::::::::::::::::::::::::::

           -------------------------------------------------
          |                Property Printout                |
           -------------------------------------------------

    * Orbital Energies and Occupations

         #    Occupation            Energy/Eh            Energy/eV
      -------------------------------------------------------------
         1        2.0000           -0.8708595             -23.6973
       ...           ...                  ...                  ...
        15        2.0000           -0.6789896             -18.4762
        16        2.0000           -0.6699188             -18.2294
        17        2.0000           -0.6592669             -17.9396
        18        2.0000           -0.6552949             -17.8315
        19        2.0000           -0.6426195             -17.4866
        20        2.0000           -0.6359710             -17.3057
        21        2.0000           -0.6234191             -16.9641
        22        2.0000           -0.6189371             -16.8421
        23        2.0000           -0.6121900             -16.6585
        24        2.0000           -0.6029300             -16.4066
        25        2.0000           -0.6001091             -16.3298
        26        2.0000           -0.5828000             -15.8588
        27        2.0000           -0.5590327             -15.2121 (HOMO)
        28                         -0.4484756             -12.2036 (LUMO)
        29                         -0.4139990             -11.2655
        30                         -0.2978547              -8.1050
        31                         -0.1703162              -4.6345
        32                         -0.0973351              -2.6486
        33                         -0.0648948              -1.7659
        34                         -0.0606783              -1.6511
        35                         -0.0410671              -1.1175
        36                         -0.0304243              -0.8279
        37                         -0.0124241              -0.3381
        38                         -0.0085768              -0.2334
       ...                                ...                  ...
        52                          0.4481937              12.1960
      -------------------------------------------------------------
                  HL-Gap            0.1105571 Eh            3.0084 eV
             Fermi-level           -0.5037541 Eh          -13.7078 eV

     #   Z          covCN         q      C6AA      α(0)
     1   8 O        1.656    -0.437    21.589     6.272
     2   6 C        3.675     0.077    19.524     6.331
     3   6 C        3.761    -0.038    21.296     6.578
     4   7 N        2.750     0.118    19.230     6.513
     5   6 C        2.893     0.034    27.248     8.558
     6   6 C        2.913    -0.013    28.334     8.729
     7   6 C        2.930    -0.002    28.076     8.690
     8   6 C        2.961     0.049    26.888     8.505
     9   6 C        2.897     0.014    27.693     8.628
    10   6 C        3.759    -0.134    23.121     6.855
    11   1 H        0.805     0.316     0.674     1.289
    12   1 H        0.923     0.047     2.361     2.403
    13   1 H        0.924     0.066     2.128     2.281
    14   1 H        0.925     0.093     1.847     2.125
    15   1 H        0.924     0.109     1.708     2.044
    16   1 H        0.926     0.123     1.585     1.969
    17   1 H        0.926     0.106     1.733     2.059
    18   1 H        0.926     0.102     1.769     2.080
    19   1 H        0.926     0.100     1.787     2.090
    20   1 H        0.925     0.098     1.807     2.102
    21   1 H        0.925     0.095     1.828     2.114
    22   1 H        0.925     0.077     2.007     2.216

 Mol. C6AA /au·bohr⁶  :       4208.655770
 Mol. C8AA /au·bohr⁸  :      97202.586640
 Mol. α(0) /au        :        100.432509


Wiberg/Mayer (AO) data.
largest (>0.10) Wiberg bond orders for each atom

 ---------------------------------------------------------------------------
     #   Z sym  total        # sym  WBO       # sym  WBO       # sym  WBO
 ---------------------------------------------------------------------------
     1   8 O    1.957 --     2 C    1.011    11 H    0.884
     2   6 C    3.958 --     1 O    1.011     3 C    0.978    12 H    0.967
                            13 H    0.963
     3   6 C    3.944 --     2 C    0.978     4 N    0.973    14 H    0.965
                            15 H    0.959
     4   7 N    3.769 --     5 C    1.333     9 C    1.318     3 C    0.973
     5   6 C    3.952 --     6 C    1.437     4 N    1.333    16 H    0.951
     6   6 C    3.982 --     7 C    1.452     5 C    1.437    17 H    0.959
     7   6 C    3.975 --     6 C    1.452     8 C    1.366    18 H    0.961
     8   6 C    3.981 --     9 C    1.423     7 C    1.366    10 C    1.045
     9   6 C    3.958 --     8 C    1.423     4 N    1.318    19 H    0.954
    10   6 C    3.982 --     8 C    1.045    22 H    0.980    21 H    0.956
                            20 H    0.949
    11   1 H    0.900 --     1 O    0.884
    12   1 H    0.998 --     2 C    0.967
    13   1 H    0.994 --     2 C    0.963
    14   1 H    0.991 --     3 C    0.965
    15   1 H    0.988 --     3 C    0.959
    16   1 H    0.984 --     5 C    0.951
    17   1 H    0.988 --     6 C    0.959
    18   1 H    0.990 --     7 C    0.961
    19   1 H    0.990 --     9 C    0.954
    20   1 H    0.990 --    10 C    0.949
    21   1 H    0.991 --    10 C    0.956
    22   1 H    0.994 --    10 C    0.980
 ---------------------------------------------------------------------------

Topologies differ in total number of bonds
Writing topology from bond orders to xtbtopo.mol

molecular dipole:
                 x           y           z       tot (Debye)
 q only:        5.678      -4.742      -0.442
   full:        5.461      -4.728      -0.298      18.375
molecular quadrupole (traceless):
                xx          xy          yy          xz          yz          zz
 q only:       31.160     -46.866       6.070      -7.385       3.026     -37.230
  q+dip:       30.709     -45.696       6.461      -7.156       1.869     -37.170
   full:       29.237     -45.578       5.734      -7.455       3.048     -34.970

           -------------------------------------------------
          |                Geometry Summary                 |
           -------------------------------------------------

      molecular mass/u    :      138.1872843
   center of mass at/Å    :        3.0309421      -2.2722338      -0.1323244
  moments of inertia/u·Å² :        0.1953993E+03   0.5694715E+03   0.6737504E+03
rotational constants/cm⁻¹ :        0.8627274E-01   0.2960224E-01   0.2502059E-01

 * 22 selected distances

     #   Z          #   Z                                           value/Å
     1   8 O        2   6 C                                       1.4054926
     2   6 C        3   6 C                                       1.5371408 (max)
     3   6 C        4   7 N                                       1.4509762
     4   7 N        5   6 C                                       1.3348624
     5   6 C        6   6 C                                       1.3820453
     6   6 C        7   6 C                                       1.3837100
     7   6 C        8   6 C                                       1.3988573
     4   7 N        9   6 C                                       1.3381189
     8   6 C        9   6 C                                       1.3856868
     8   6 C       10   6 C                                       1.4869757
     1   8 O       11   1 H                                       0.9627090 (min)
     2   6 C       12   1 H                                       1.0996936
     2   6 C       13   1 H                                       1.0956245
     3   6 C       14   1 H                                       1.0898593
     3   6 C       15   1 H                                       1.0914102
     5   6 C       16   1 H                                       1.0786034
     6   6 C       17   1 H                                       1.0779497
     7   6 C       18   1 H                                       1.0793226
     9   6 C       19   1 H                                       1.0805456
    10   6 C       20   1 H                                       1.0893336
    10   6 C       21   1 H                                       1.0882892
    10   6 C       22   1 H                                       1.0856135

 * 5 distinct bonds (by element types)

   Z      Z             #   av. dist./Å        max./Å        min./Å
   1 H    6 C          11     1.0869314     1.0996936     1.0779497
   6 C    6 C           6     1.4290693     1.5371408     1.3820453
   6 C    7 N           3     1.3746525     1.4509762     1.3348624
   1 H    8 O           1     0.9627090     0.9627090     0.9627090
   6 C    8 O           1     1.4054926     1.4054926     1.4054926


optimized geometry written to: xtbopt.xyz


           -------------------------------------------------
          | TOTAL ENERGY              -29.832191596362 Eh   |
          | GRADIENT NORM               0.000274387245 Eh/α |
          | HOMO-LUMO GAP               3.008410937768 eV   |
           -------------------------------------------------

------------------------------------------------------------------------
 * finished run on 2024/12/20 at 07:04:45.386     
------------------------------------------------------------------------
 total:
 * wall-time:     0 d,  0 h,  0 min,  0.156 sec
 *  cpu-time:     0 d,  0 h,  0 min,  1.236 sec
 * ratio c/w:     7.905 speedup
 SCF:
 * wall-time:     0 d,  0 h,  0 min,  0.011 sec
 *  cpu-time:     0 d,  0 h,  0 min,  0.086 sec
 * ratio c/w:     7.919 speedup
 ANC optimizer:
 * wall-time:     0 d,  0 h,  0 min,  0.130 sec
 *  cpu-time:     0 d,  0 h,  0 min,  1.041 sec
 * ratio c/w:     7.995 speedup

