      -----------------------------------------------------------      
     |                   =====================                   |     
     |                           x T B                           |     
     |                   =====================                   |     
     |                         S. Grimme                         |     
     |          Mulliken Center for Theoretical Chemistry        |     
     |                    University of Bonn                     |     
      -----------------------------------------------------------      

   * xtb version 6.7.1 (edcfbbe) compiled by 'conda@3ef47c1a292c' on 2024-11-25

   xtb is free software: you can redistribute it and/or modify it under
   the terms of the GNU Lesser General Public License as published by
   the Free Software Foundation, either version 3 of the License, or
   (at your option) any later version.
   
   xtb is distributed in the hope that it will be useful,
   but WITHOUT ANY WARRANTY; without even the implied warranty of
   MERCHANTABILITY or FITNESS FOR A PARTICULAR PURPOSE.  See the
   GNU Lesser General Public License for more details.
   
   Cite this work as:
   * C. Bannwarth, E. Caldeweyher, S. Ehlert, A. Hansen, P. Pracht,
     J. Seibert, S. Spicher, S. Grimme, WIREs Comput. Mol. Sci., 2020, 11,
     e01493. DOI: 10.1002/wcms.1493
   
   for GFN2-xTB:
   * C. Bannwarth, S. Ehlert and S. Grimme., J. Chem. Theory Comput., 2019,
     15, 1652-1671. DOI: 10.1021/acs.jctc.8b01176
   for GFN1-xTB:
   * S. Grimme, C. Bannwarth, P. Shushkov, J. Chem. Theory Comput., 2017,
     13, 1989-2009. DOI: 10.1021/acs.jctc.7b00118
   for GFN0-xTB:
   * P. Pracht, E. Caldeweyher, S. Ehlert, S. Grimme, ChemRxiv, 2019, preprint.
     DOI: 10.26434/chemrxiv.8326202.v1
   for GFN-FF:
   * S. Spicher and S. Grimme, Angew. Chem. Int. Ed., 2020, 59, 15665-15673.
     DOI: 10.1002/anie.202004239
   
   for ALPB and GBSA implicit solvation:
   * S. Ehlert, M. Stahn, S. Spicher, S. Grimme, J. Chem. Theory Comput.,
     2021, 17, 4250-4261. DOI: 10.1021/acs.jctc.1c00471
   
   for ddCOSMO and CPCM-X implicit solvation:
   * M. Stahn, S. Ehlert, S. Grimme, J. Phys. Chem. A,
     2023, XX, XXXX-XXXX. DOI: 10.1021/acs.jpca.3c04382
   
   for DFT-D4:
   * E. Caldeweyher, C. Bannwarth and S. Grimme, J. Chem. Phys., 2017,
     147, 034112. DOI: 10.1063/1.4993215
   * E. Caldeweyher, S. Ehlert, A. Hansen, H. Neugebauer, S. Spicher,
     C. Bannwarth and S. Grimme, J. Chem. Phys., 2019, 150, 154122.
     DOI: 10.1063/1.5090222
   * E. Caldeweyher, J.-M. Mewes, S. Ehlert and S. Grimme, Phys. Chem. Chem. Phys.
     2020, 22, 8499-8512. DOI: 10.1039/D0CP00502A
   
   for sTDA-xTB:
   * S. Grimme and C. Bannwarth, J. Chem. Phys., 2016, 145, 054103.
     DOI: 10.1063/1.4959605
   
   in the mass-spec context:
   * V. Asgeirsson, C. Bauer and S. Grimme, Chem. Sci., 2017, 8, 4879.
     DOI: 10.1039/c7sc00601b
   * J. Koopman and S. Grimme, ACS Omega 2019, 4, 12, 15120-15133.
     DOI: 10.1021/acsomega.9b02011
   
   for metadynamics refer to:
   * S. Grimme, J. Chem. Theory Comput., 2019, 155, 2847-2862
     DOI: 10.1021/acs.jctc.9b00143
   
   for SPH calculations refer to:
   * S. Spicher and S. Grimme, J. Chem. Theory Comput., 2021, 17, 1701-1714
     DOI: 10.1021/acs.jctc.0c01306
   
   for ONIOM refer to:
   * C. Plett, A. Katbashev, S. Ehlert, S. Grimme, M. Bursch,
     Phys. Chem. Chem. Phys., 2023, 25, 17860-17868. DOI: 10.1039/D3CP02178E
   
   for DIPRO refer to:
   * J. Kohn, N. Gildemeister, S. Grimme, D. Fazzi, A. Hansen,
     J. Chem. Phys., 2023, just accepted.
   
   for PTB refer to:
   * S. Grimme, M. Mueller, A. Hansen, J. Chem. Phys., 2023, 158, 124111.
     DOI: 10.1063/5.0137838
   
   with help from (in alphabetical order)
   P. Atkinson, C. Bannwarth, F. Bohle, G. Brandenburg, E. Caldeweyher
   M. Checinski, S. Dohm, S. Ehlert, S. Ehrlich, I. Gerasimov, C. Hölzer
   A. Katbashev, J. Kohn, J. Koopman, C. Lavigne, S. Lehtola, F. März, M. Müller,
   F. Musil, H. Neugebauer, J. Pisarek, C. Plett, P. Pracht, F. Pultar,
   J. Seibert, P. Shushkov, S. Spicher, M. Stahn, M. Steiner, T. Strunk,
   J. Stückrath, T. Rose, and J. Unsleber
   
 * started run on 2024/12/20 at 07:05:10.045     
   ID    Z sym.   atoms
    1    6 C      1, 3, 4, 6-19
    2    7 N      2, 5
    3    1 H      20-36

           -------------------------------------------------
          |                Calculation Setup                |
           -------------------------------------------------

          program call               : xtb C0948.xyz --opt --namespace C0948 --charge +1
          calculation namespace      : C0948
          coordinate file            : C0948.xyz
          omp threads                :                     8


           -------------------------------------------------
          |                 G F N 2 - x T B                 |
           -------------------------------------------------

        Reference                      10.1021/acs.jctc.8b01176
      * Hamiltonian:
        H0-scaling (s, p, d)           1.850000    2.230000    2.230000
        zeta-weighting                 0.500000
      * Dispersion:
        s8                             2.700000
        a1                             0.520000
        a2                             5.000000
        s9                             5.000000
      * Repulsion:
        kExp                           1.500000    1.000000
        rExp                           1.000000
      * Coulomb:
        alpha                          2.000000
        third order                    shell-resolved
        anisotropic                    true
        a3                             3.000000
        a5                             4.000000
        cn-shift                       1.200000
        cn-exp                         4.000000
        max-rad                        5.000000


          ...................................................
          :                      SETUP                      :
          :.................................................:
          :  # basis functions                  93          :
          :  # atomic orbitals                  93          :
          :  # shells                           55          :
          :  # electrons                        94          :
          :  max. iterations                   250          :
          :  Hamiltonian                  GFN2-xTB          :
          :  restarted?                      false          :
          :  GBSA solvation                  false          :
          :  PC potential                    false          :
          :  electronic temp.          300.0000000     K    :
          :  accuracy                    1.0000000          :
          :  -> integral cutoff          0.2500000E+02      :
          :  -> integral neglect         0.1000000E-07      :
          :  -> SCF convergence          0.1000000E-05 Eh   :
          :  -> wf. convergence          0.1000000E-03 e    :
          :  Broyden damping             0.4000000          :
          :  net charge                          1          :
          :  unpaired electrons                  0          :
          ...................................................

 iter      E             dE          RMSdq      gap      omega  full diag
   1    -51.2691426 -0.512691E+02  0.384E+00    4.19       0.0  T
   2    -51.3614719 -0.923293E-01  0.249E+00    3.76       1.0  T
   3    -51.3635889 -0.211698E-02  0.107E+00    3.13       1.0  T
   4    -51.3637639 -0.175042E-03  0.362E-01    2.80       1.0  T
   5    -51.3683875 -0.462362E-02  0.114E-01    2.92       1.0  T
   6    -51.3688257 -0.438199E-03  0.381E-02    2.93       1.0  T
   7    -51.3688283 -0.251238E-05  0.190E-02    2.93       1.0  T
   8    -51.3688337 -0.540189E-05  0.558E-03    2.94       3.0  T
   9    -51.3688344 -0.766792E-06  0.153E-03    2.94      10.9  T
  10    -51.3688344 -0.252326E-07  0.694E-04    2.94      24.0  T
  11    -51.3688345 -0.565986E-08  0.263E-04    2.94      63.4  T

   *** convergence criteria satisfied after 11 iterations ***

         #    Occupation            Energy/Eh            Energy/eV
      -------------------------------------------------------------
         1        2.0000           -0.8821096             -24.0034
       ...           ...                  ...                  ...
        41        2.0000           -0.5350813             -14.5603
        42        2.0000           -0.5320809             -14.4787
        43        2.0000           -0.5288757             -14.3914
        44        2.0000           -0.5148423             -14.0096
        45        2.0000           -0.5139882             -13.9863
        46        2.0000           -0.5129847             -13.9590
        47        2.0000           -0.5114021             -13.9160 (HOMO)
        48                         -0.4033458             -10.9756 (LUMO)
        49                         -0.3686604             -10.0318
        50                         -0.3469991              -9.4423
        51                         -0.3398176              -9.2469
        52                         -0.3372500              -9.1770
       ...                                ...                  ...
        93                          0.5170629              14.0700
      -------------------------------------------------------------
                  HL-Gap            0.1080563 Eh            2.9404 eV
             Fermi-level           -0.4573740 Eh          -12.4458 eV

 SCC (total)                   0 d,  0 h,  0 min,  0.025 sec
 SCC setup                      ...        0 min,  0.000 sec (  1.098%)
 Dispersion                     ...        0 min,  0.001 sec (  3.008%)
 classical contributions        ...        0 min,  0.000 sec (  0.635%)
 integral evaluation            ...        0 min,  0.002 sec (  8.024%)
 iterations                     ...        0 min,  0.017 sec ( 67.865%)
 molecular gradient             ...        0 min,  0.005 sec ( 18.762%)
 printout                       ...        0 min,  0.000 sec (  0.545%)

         :::::::::::::::::::::::::::::::::::::::::::::::::::::
         ::                     SUMMARY                     ::
         :::::::::::::::::::::::::::::::::::::::::::::::::::::
         :: total energy             -50.523279213041 Eh    ::
         :: gradient norm              0.053833658996 Eh/a0 ::
         :: HOMO-LUMO gap              2.940360497741 eV    ::
         ::.................................................::
         :: SCC energy               -51.368287216917 Eh    ::
         :: -> isotropic ES            0.074175891109 Eh    ::
         :: -> anisotropic ES         -0.009591434459 Eh    ::
         :: -> anisotropic XC          0.037525866105 Eh    ::
         :: -> dispersion             -0.037433780665 Eh    ::
         :: repulsion energy           0.845008003876 Eh    ::
         :: add. restraining           0.000000000000 Eh    ::
         :: total charge               1.000000000000 e     ::
         :::::::::::::::::::::::::::::::::::::::::::::::::::::

      ----------------------------------------------------------- 
     |                   =====================                   |
     |                        A N C O P T                        |
     |                   =====================                   |
     |               Approximate Normal Coordinate               |
     |                Rational Function Optimizer                |
      ----------------------------------------------------------- 
      ----------------------------------------------------------- 
     |                   =====================                   |
     |                        A N C O P T                        |
     |                   =====================                   |
     |               Approximate Normal Coordinate               |
     |                Rational Function Optimizer                |
      ----------------------------------------------------------- 

          ...................................................
          :                      SETUP                      :
          :.................................................:
          :   optimization level            normal          :
          :   max. optcycles                   200          :
          :   ANC micro-cycles                  20          :
          :   degrees of freedom               102          :
          :.................................................:
          :   RF solver                   davidson          :
          :   write xtbopt.log                true          :
          :   linear?                        false          :
          :   energy convergence         0.5000000E-05 Eh   :
          :   grad. convergence          0.1000000E-02 Eh/α :
          :   maxmium RF displ.          1.0000000          :
          :   Hlow (freq-cutoff)         0.1000000E-01      :
          :   Hmax (freq-cutoff)         5.0000000          :
          :   S6 in model hess.         20.0000000          :
          ...................................................

generating ANC from exact Hessian ...
Using Lindh-Hessian (1995)
 Shifting diagonal of input Hessian by    9.3314300652643702E-003
 Lowest  eigenvalues of input Hessian
    0.000000    0.000000    0.000000    0.000000    0.000000    0.000000
    0.010000    0.010183    0.010421    0.010609    0.010687    0.010951
    0.015917    0.016282    0.017838    0.020009    0.023029    0.023281
 Highest eigenvalues
    1.924971    1.932809    1.940917    1.969225    2.060872    2.116403


........................................................................
.............................. CYCLE    1 ..............................
........................................................................

 iter      E             dE          RMSdq      gap      omega  full diag
   1    -51.3688345 -0.513688E+02  0.928E-05    2.94       0.0  T
   2    -51.3688345 -0.728164E-10  0.584E-05    2.94     285.3  T
   3    -51.3688345 -0.468106E-10  0.366E-05    2.94     455.1  T
     SCC iter.                  ...        0 min,  0.004 sec
     gradient                   ...        0 min,  0.005 sec
 * total energy  :   -50.5232792 Eh     change       -0.9855867E-09 Eh
   gradient norm :     0.0538335 Eh/α   predicted     0.0000000E+00 (-100.00%)
   displ. norm   :     0.2678171 α      lambda       -0.8598710E-02
   maximum displ.:     0.1024740 α      in ANC's #16, #18, #15, ...

........................................................................
.............................. CYCLE    2 ..............................
........................................................................

 iter      E             dE          RMSdq      gap      omega  full diag
   1    -51.4225505 -0.514226E+02  0.180E-01    3.10       0.0  T
   2    -51.4226335 -0.829939E-04  0.102E-01    3.09       1.0  T
   3    -51.4226117  0.218089E-04  0.429E-02    3.08       1.0  T
   4    -51.4226378 -0.261254E-04  0.148E-02    3.08       1.1  T
   5    -51.4226472 -0.936095E-05  0.273E-03    3.08       6.1  T
   6    -51.4226472 -0.331921E-07  0.136E-03    3.08      12.2  T
   7    -51.4226472 -0.196709E-07  0.459E-04    3.08      36.3  T
   8    -51.4226472 -0.331855E-08  0.125E-04    3.08     133.1  T
     SCC iter.                  ...        0 min,  0.010 sec
     gradient                   ...        0 min,  0.005 sec
 * total energy  :   -50.5290100 Eh     change       -0.5730819E-02 Eh
   gradient norm :     0.0204472 Eh/α   predicted    -0.4608071E-02 ( -19.59%)
   displ. norm   :     0.2261415 α      lambda       -0.2040611E-02
   maximum displ.:     0.1004653 α      in ANC's #16, #15, #18, ...

........................................................................
.............................. CYCLE    3 ..............................
........................................................................

 iter      E             dE          RMSdq      gap      omega  full diag
   1    -51.4450307 -0.514450E+02  0.118E-01    3.17       0.0  T
   2    -51.4450711 -0.403239E-04  0.665E-02    3.16       1.0  T
   3    -51.4450630  0.809633E-05  0.289E-02    3.15       1.0  T
   4    -51.4450727 -0.972957E-05  0.104E-02    3.15       1.6  T
   5    -51.4450770 -0.431435E-05  0.129E-03    3.15      12.9  T
   6    -51.4450770 -0.991206E-08  0.666E-04    3.15      25.0  T
   7    -51.4450770 -0.389731E-08  0.278E-04    3.15      59.9  T
     SCC iter.                  ...        0 min,  0.009 sec
     gradient                   ...        0 min,  0.005 sec
 * total energy  :   -50.5302018 Eh     change       -0.1191791E-02 Eh
   gradient norm :     0.0081225 Eh/α   predicted    -0.1072787E-02 (  -9.99%)
   displ. norm   :     0.1304034 α      lambda       -0.3062895E-03
   maximum displ.:     0.0680207 α      in ANC's #6, #5, #2, ...

........................................................................
.............................. CYCLE    4 ..............................
........................................................................

 iter      E             dE          RMSdq      gap      omega  full diag
   1    -51.4454628 -0.514455E+02  0.525E-02    3.16       0.0  T
   2    -51.4454654 -0.256062E-05  0.300E-02    3.16       1.0  T
   3    -51.4454639  0.142871E-05  0.873E-03    3.15       1.9  T
   4    -51.4454656 -0.164324E-05  0.243E-03    3.16       6.8  T
   5    -51.4454658 -0.218673E-06  0.439E-04    3.16      37.9  T
   6    -51.4454658 -0.335461E-09  0.225E-04    3.16      74.1  T
     SCC iter.                  ...        0 min,  0.008 sec
     gradient                   ...        0 min,  0.005 sec
 * total energy  :   -50.5304204 Eh     change       -0.2185683E-03 Eh
   gradient norm :     0.0046617 Eh/α   predicted    -0.1557506E-03 ( -28.74%)
   displ. norm   :     0.1643491 α      lambda       -0.1951979E-03
   maximum displ.:     0.1037680 α      in ANC's #6, #5, #2, ...

........................................................................
.............................. CYCLE    5 ..............................
........................................................................

 iter      E             dE          RMSdq      gap      omega  full diag
   1    -51.4429659 -0.514430E+02  0.536E-02    3.15       0.0  T
   2    -51.4429667 -0.738931E-06  0.311E-02    3.15       1.0  T
   3    -51.4429657  0.981520E-06  0.574E-03    3.14       2.9  T
   4    -51.4429669 -0.119013E-05  0.116E-03    3.15      14.4  T
   5    -51.4429669 -0.351343E-07  0.462E-04    3.15      36.1  T
   6    -51.4429669 -0.106887E-09  0.130E-04    3.15     128.0  T
     SCC iter.                  ...        0 min,  0.008 sec
     gradient                   ...        0 min,  0.005 sec
 * total energy  :   -50.5305493 Eh     change       -0.1289445E-03 Eh
   gradient norm :     0.0023088 Eh/α   predicted    -0.1002360E-03 ( -22.26%)
   displ. norm   :     0.1233356 α      lambda       -0.7728719E-04
   maximum displ.:     0.0805129 α      in ANC's #6, #5, #2, ...

........................................................................
.............................. CYCLE    6 ..............................
........................................................................

 iter      E             dE          RMSdq      gap      omega  full diag
   1    -51.4415358 -0.514415E+02  0.358E-02    3.14       0.0  T
   2    -51.4415359 -0.188309E-06  0.210E-02    3.14       1.0  T
   3    -51.4415355  0.493563E-06  0.358E-03    3.14       4.7  T
   4    -51.4415360 -0.590716E-06  0.557E-04    3.14      29.9  T
   5    -51.4415360 -0.238152E-08  0.281E-04    3.14      59.2  T
     SCC iter.                  ...        0 min,  0.006 sec
     gradient                   ...        0 min,  0.005 sec
 * total energy  :   -50.5306119 Eh     change       -0.6252072E-04 Eh
   gradient norm :     0.0027567 Eh/α   predicted    -0.3926144E-04 ( -37.20%)
   displ. norm   :     0.1504758 α      lambda       -0.8427619E-04
   maximum displ.:     0.0942950 α      in ANC's #6, #5, #2, ...

........................................................................
.............................. CYCLE    7 ..............................
........................................................................

 iter      E             dE          RMSdq      gap      omega  full diag
   1    -51.4409300 -0.514409E+02  0.465E-02    3.14       0.0  T
   2    -51.4409304 -0.360802E-06  0.272E-02    3.14       1.0  T
   3    -51.4409299  0.534385E-06  0.404E-03    3.14       4.1  T
   4    -51.4409305 -0.651440E-06  0.764E-04    3.14      21.8  T
   5    -51.4409305 -0.107328E-07  0.348E-04    3.14      47.9  T
     SCC iter.                  ...        0 min,  0.006 sec
     gradient                   ...        0 min,  0.005 sec
 * total energy  :   -50.5306801 Eh     change       -0.6826954E-04 Eh
   gradient norm :     0.0027892 Eh/α   predicted    -0.4309361E-04 ( -36.88%)
   displ. norm   :     0.1829879 α      lambda       -0.7958802E-04
   maximum displ.:     0.1139872 α      in ANC's #6, #5, #2, ...

........................................................................
.............................. CYCLE    8 ..............................
........................................................................

 iter      E             dE          RMSdq      gap      omega  full diag
   1    -51.4411800 -0.514412E+02  0.586E-02    3.14       0.0  T
   2    -51.4411804 -0.386437E-06  0.342E-02    3.14       1.0  T
   3    -51.4411798  0.618575E-06  0.422E-03    3.15       3.9  T
   4    -51.4411806 -0.774719E-06  0.802E-04    3.15      20.8  T
   5    -51.4411806 -0.827533E-08  0.413E-04    3.15      40.4  T
     SCC iter.                  ...        0 min,  0.006 sec
     gradient                   ...        0 min,  0.005 sec
 * total energy  :   -50.5307402 Eh     change       -0.6005783E-04 Eh
   gradient norm :     0.0022531 Eh/α   predicted    -0.4112669E-04 ( -31.52%)
   displ. norm   :     0.1592626 α      lambda       -0.4723259E-04
   maximum displ.:     0.1007950 α      in ANC's #6, #5, #2, ...

........................................................................
.............................. CYCLE    9 ..............................
........................................................................

 iter      E             dE          RMSdq      gap      omega  full diag
   1    -51.4418765 -0.514419E+02  0.520E-02    3.15       0.0  T
   2    -51.4418767 -0.208462E-06  0.305E-02    3.15       1.0  T
   3    -51.4418762  0.506945E-06  0.355E-03    3.15       4.7  T
   4    -51.4418769 -0.628300E-06  0.661E-04    3.15      25.2  T
   5    -51.4418769 -0.182597E-08  0.356E-04    3.15      46.8  T
     SCC iter.                  ...        0 min,  0.006 sec
     gradient                   ...        0 min,  0.005 sec
 * total energy  :   -50.5307746 Eh     change       -0.3442216E-04 Eh
   gradient norm :     0.0014952 Eh/α   predicted    -0.2421564E-04 ( -29.65%)
   displ. norm   :     0.1725339 α      lambda       -0.2467871E-04
   maximum displ.:     0.1112065 α      in ANC's #6, #5, #2, ...

........................................................................
.............................. CYCLE   10 ..............................
........................................................................

 iter      E             dE          RMSdq      gap      omega  full diag
   1    -51.4428751 -0.514429E+02  0.577E-02    3.15       0.0  T
   2    -51.4428754 -0.247532E-06  0.338E-02    3.15       1.0  T
   3    -51.4428747  0.693283E-06  0.414E-03    3.15       4.0  T
   4    -51.4428755 -0.850444E-06  0.776E-04    3.15      21.5  T
   5    -51.4428755 -0.197921E-08  0.399E-04    3.15      41.8  T
     SCC iter.                  ...        0 min,  0.007 sec
     gradient                   ...        0 min,  0.005 sec
 * total energy  :   -50.5307973 Eh     change       -0.2268252E-04 Eh
   gradient norm :     0.0009172 Eh/α   predicted    -0.1250431E-04 ( -44.87%)
   displ. norm   :     0.0685579 α      lambda       -0.9934276E-05
   maximum displ.:     0.0387946 α      in ANC's #6, #3, #4, ...

........................................................................
.............................. CYCLE   11 ..............................
........................................................................

 iter      E             dE          RMSdq      gap      omega  full diag
   1    -51.4431965 -0.514432E+02  0.239E-02    3.15       0.0  T
   2    -51.4431966 -0.548629E-07  0.140E-02    3.15       1.2  T
   3    -51.4431965  0.663449E-07  0.159E-03    3.15      10.5  T
   4    -51.4431966 -0.901364E-07  0.364E-04    3.15      45.7  T
   5    -51.4431966 -0.981260E-09  0.187E-04    3.15      89.0  T
     SCC iter.                  ...        0 min,  0.007 sec
     gradient                   ...        0 min,  0.005 sec
 * total energy  :   -50.5308102 Eh     change       -0.1290066E-04 Eh
   gradient norm :     0.0007888 Eh/α   predicted    -0.4980322E-05 ( -61.39%)
   displ. norm   :     0.1263280 α      lambda       -0.1736795E-04
   maximum displ.:     0.0705882 α      in ANC's #3, #6, #4, ...

........................................................................
.............................. CYCLE   12 ..............................
........................................................................

 iter      E             dE          RMSdq      gap      omega  full diag
   1    -51.4429173 -0.514429E+02  0.430E-02    3.15       0.0  T
   2    -51.4429174 -0.147127E-06  0.252E-02    3.15       1.0  T
   3    -51.4429173  0.154708E-06  0.248E-03    3.15       6.7  T
   4    -51.4429175 -0.225158E-06  0.611E-04    3.15      27.3  T
   5    -51.4429175 -0.148276E-08  0.292E-04    3.15      57.1  T
     SCC iter.                  ...        0 min,  0.007 sec
     gradient                   ...        0 min,  0.005 sec
 * total energy  :   -50.5308327 Eh     change       -0.2247897E-04 Eh
   gradient norm :     0.0011527 Eh/α   predicted    -0.8746948E-05 ( -61.09%)
   displ. norm   :     0.1956813 α      lambda       -0.2471929E-04
   maximum displ.:     0.1147707 α      in ANC's #3, #4, #6, ...

........................................................................
.............................. CYCLE   13 ..............................
........................................................................

 iter      E             dE          RMSdq      gap      omega  full diag
   1    -51.4425936 -0.514426E+02  0.653E-02    3.15       0.0  T
   2    -51.4425939 -0.290202E-06  0.382E-02    3.15       1.0  T
   3    -51.4425936  0.260094E-06  0.334E-03    3.14       5.0  T
   4    -51.4425940 -0.409718E-06  0.895E-04    3.15      18.6  T
   5    -51.4425940 -0.111490E-08  0.362E-04    3.14      46.1  T
     SCC iter.                  ...        0 min,  0.009 sec
     gradient                   ...        0 min,  0.005 sec
 * total energy  :   -50.5308645 Eh     change       -0.3180137E-04 Eh
   gradient norm :     0.0017792 Eh/α   predicted    -0.1257103E-04 ( -60.47%)
   displ. norm   :     0.2713028 α      lambda       -0.3251250E-04
   maximum displ.:     0.1641629 α      in ANC's #3, #4, #6, ...

........................................................................
.............................. CYCLE   14 ..............................
........................................................................

 iter      E             dE          RMSdq      gap      omega  full diag
   1    -51.4419259 -0.514419E+02  0.900E-02    3.14       0.0  T
   2    -51.4419264 -0.539052E-06  0.527E-02    3.14       1.0  T
   3    -51.4419259  0.531871E-06  0.459E-03    3.14       3.6  T
   4    -51.4419267 -0.813162E-06  0.119E-03    3.14      14.0  T
   5    -51.4419267 -0.226617E-08  0.467E-04    3.14      35.7  T
   6    -51.4419267 -0.198408E-08  0.111E-04    3.14     150.5  T
     SCC iter.                  ...        0 min,  0.008 sec
     gradient                   ...        0 min,  0.005 sec
 * total energy  :   -50.5309034 Eh     change       -0.3895410E-04 Eh
   gradient norm :     0.0023158 Eh/α   predicted    -0.1679292E-04 ( -56.89%)
   displ. norm   :     0.2137346 α      lambda       -0.3585285E-04
   maximum displ.:     0.1331493 α      in ANC's #3, #4, #6, ...

........................................................................
.............................. CYCLE   15 ..............................
........................................................................

 iter      E             dE          RMSdq      gap      omega  full diag
   1    -51.4418296 -0.514418E+02  0.710E-02    3.14       0.0  T
   2    -51.4418299 -0.303389E-06  0.416E-02    3.14       1.0  T
   3    -51.4418296  0.264519E-06  0.341E-03    3.14       4.9  T
   4    -51.4418301 -0.429778E-06  0.928E-04    3.14      18.0  T
   5    -51.4418301 -0.135365E-09  0.302E-04    3.14      55.3  T
     SCC iter.                  ...        0 min,  0.007 sec
     gradient                   ...        0 min,  0.005 sec
 * total energy  :   -50.5309317 Eh     change       -0.2827398E-04 Eh
   gradient norm :     0.0020094 Eh/α   predicted    -0.1874610E-04 ( -33.70%)
   displ. norm   :     0.2342806 α      lambda       -0.3211365E-04
   maximum displ.:     0.1495679 α      in ANC's #3, #4, #6, ...

........................................................................
.............................. CYCLE   16 ..............................
........................................................................

 iter      E             dE          RMSdq      gap      omega  full diag
   1    -51.4417860 -0.514418E+02  0.785E-02    3.13       0.0  T
   2    -51.4417864 -0.373387E-06  0.460E-02    3.13       1.0  T
   3    -51.4417860  0.403258E-06  0.388E-03    3.13       4.3  T
   4    -51.4417866 -0.606403E-06  0.982E-04    3.13      17.0  T
   5    -51.4417866 -0.935337E-09  0.338E-04    3.13      49.4  T
     SCC iter.                  ...        0 min,  0.006 sec
     gradient                   ...        0 min,  0.005 sec
 * total energy  :   -50.5309550 Eh     change       -0.2332443E-04 Eh
   gradient norm :     0.0015669 Eh/α   predicted    -0.1694113E-04 ( -27.37%)
   displ. norm   :     0.2309982 α      lambda       -0.1754652E-04
   maximum displ.:     0.1559473 α      in ANC's #3, #4, #6, ...

........................................................................
.............................. CYCLE   17 ..............................
........................................................................

 iter      E             dE          RMSdq      gap      omega  full diag
   1    -51.4423984 -0.514424E+02  0.789E-02    3.13       0.0  T
   2    -51.4423988 -0.399782E-06  0.463E-02    3.13       1.0  T
   3    -51.4423983  0.485985E-06  0.420E-03    3.13       4.0  T
   4    -51.4423990 -0.700611E-06  0.995E-04    3.13      16.7  T
   5    -51.4423990 -0.147095E-08  0.393E-04    3.13      42.5  T
     SCC iter.                  ...        0 min,  0.006 sec
     gradient                   ...        0 min,  0.005 sec
 * total energy  :   -50.5309705 Eh     change       -0.1548211E-04 Eh
   gradient norm :     0.0005451 Eh/α   predicted    -0.8982324E-05 ( -41.98%)
   displ. norm   :     0.1358137 α      lambda       -0.6012006E-05
   maximum displ.:     0.0898044 α      in ANC's #3, #6, #4, ...

........................................................................
.............................. CYCLE   18 ..............................
........................................................................

 iter      E             dE          RMSdq      gap      omega  full diag
   1    -51.4418840 -0.514419E+02  0.467E-02    3.13       0.0  T
   2    -51.4418842 -0.186315E-06  0.273E-02    3.13       1.0  T
   3    -51.4418840  0.192875E-06  0.254E-03    3.13       6.6  T
   4    -51.4418843 -0.269510E-06  0.637E-04    3.13      26.2  T
   5    -51.4418843 -0.317854E-08  0.308E-04    3.13      54.1  T
     SCC iter.                  ...        0 min,  0.006 sec
     gradient                   ...        0 min,  0.005 sec
 * total energy  :   -50.5309750 Eh     change       -0.4527864E-05 Eh
   gradient norm :     0.0015932 Eh/α   predicted    -0.3034474E-05 ( -32.98%)
   displ. norm   :     0.0872789 α      lambda       -0.9660293E-05
   maximum displ.:     0.0625231 α      in ANC's #3, #6, #1, ...

........................................................................
.............................. CYCLE   19 ..............................
........................................................................

 iter      E             dE          RMSdq      gap      omega  full diag
   1    -51.4433847 -0.514434E+02  0.332E-02    3.13       0.0  T
   2    -51.4433848 -0.142751E-06  0.194E-02    3.13       1.0  T
   3    -51.4433846  0.204864E-06  0.248E-03    3.13       6.7  T
   4    -51.4433849 -0.252764E-06  0.448E-04    3.13      37.2  T
   5    -51.4433849 -0.342492E-08  0.220E-04    3.13      75.8  T
     SCC iter.                  ...        0 min,  0.006 sec
     gradient                   ...        0 min,  0.005 sec
 * total energy  :   -50.5309839 Eh     change       -0.8832037E-05 Eh
   gradient norm :     0.0012353 Eh/α   predicted    -0.4852526E-05 ( -45.06%)
   displ. norm   :     0.1782878 α      lambda       -0.1186094E-04
   maximum displ.:     0.1280098 α      in ANC's #3, #6, #1, ...

........................................................................
.............................. CYCLE   20 ..............................
........................................................................

 iter      E             dE          RMSdq      gap      omega  full diag
   1    -51.4432453 -0.514432E+02  0.654E-02    3.13       0.0  T
   2    -51.4432456 -0.278489E-06  0.384E-02    3.13       1.0  T
   3    -51.4432450  0.561836E-06  0.410E-03    3.13       4.1  T
   4    -51.4432457 -0.724895E-06  0.752E-04    3.13      22.2  T
   5    -51.4432457  0.802913E-11  0.319E-04    3.13      52.2  T
     SCC iter.                  ...        0 min,  0.006 sec
     gradient                   ...        0 min,  0.005 sec
 * total energy  :   -50.5309947 Eh     change       -0.1083431E-04 Eh
   gradient norm :     0.0013836 Eh/α   predicted    -0.6014834E-05 ( -44.48%)
   displ. norm   :     0.1331647 α      lambda       -0.9178496E-05
   maximum displ.:     0.1014875 α      in ANC's #3, #6, #1, ...
 * RMSD in coord.:     0.4228862 α      energy gain  -0.7715486E-02 Eh

generating ANC from exact Hessian ...
Using Lindh-Hessian (1995)
 Shifting diagonal of input Hessian by    9.2176438466710434E-003
 Lowest  eigenvalues of input Hessian
    0.000000    0.000000    0.000000    0.000000    0.000000    0.000000
    0.010000    0.010137    0.010422    0.010590    0.010679    0.011031
    0.016867    0.016903    0.018418    0.021321    0.024505    0.024708
 Highest eigenvalues
    2.009976    2.023253    2.029522    2.052974    2.180490    2.256010


........................................................................
.............................. CYCLE   21 ..............................
........................................................................

 iter      E             dE          RMSdq      gap      omega  full diag
   1    -51.4427741 -0.514428E+02  0.506E-02    3.13       0.0  T
   2    -51.4427743 -0.170804E-06  0.297E-02    3.13       1.0  T
   3    -51.4427738  0.495324E-06  0.359E-03    3.13       4.6  T
   4    -51.4427744 -0.602550E-06  0.485E-04    3.13      34.4  T
   5    -51.4427744 -0.184890E-09  0.236E-04    3.13      70.6  T
     SCC iter.                  ...        0 min,  0.007 sec
     gradient                   ...        0 min,  0.005 sec
 * total energy  :   -50.5310057 Eh     change       -0.1096590E-04 Eh
   gradient norm :     0.0007754 Eh/α   predicted     0.0000000E+00 (-100.00%)
   displ. norm   :     0.0226072 α      lambda       -0.5438711E-06
   maximum displ.:     0.0120358 α      in ANC's #5, #3, #2, ...

........................................................................
.............................. CYCLE   22 ..............................
........................................................................

 iter      E             dE          RMSdq      gap      omega  full diag
   1    -51.4429820 -0.514430E+02  0.102E-02    3.13       0.0  T
   2    -51.4429820 -0.189991E-07  0.598E-03    3.13       2.8  T
   3    -51.4429820  0.459339E-07  0.115E-03    3.13      14.5  T
   4    -51.4429820 -0.545893E-07  0.152E-04    3.13     109.5  T
   5    -51.4429820 -0.390443E-09  0.785E-05    3.13     212.4  T
     SCC iter.                  ...        0 min,  0.006 sec
     gradient                   ...        0 min,  0.005 sec
 * total energy  :   -50.5310104 Eh     change       -0.4759097E-05 Eh
   gradient norm :     0.0003429 Eh/α   predicted    -0.2108287E-05 ( -55.70%)
   displ. norm   :     0.0651320 α      lambda       -0.7483908E-05
   maximum displ.:     0.0344393 α      in ANC's #5, #3, #2, ...

   *** GEOMETRY OPTIMIZATION CONVERGED AFTER 22 ITERATIONS ***

------------------------------------------------------------------------
 total energy gain   :        -0.0077312 Eh       -4.8514 kcal/mol
 total RMSD          :         0.4223267 a0        0.2235 Å
 total power (kW/mol):        -0.9226496 (step)  -60.5470 (real)
------------------------------------------------------------------------

 ANCopt (total)                0 d,  0 h,  0 min,  0.335 sec
 optimizer setup                ...        0 min,  0.000 sec (  0.034%)
 model hessian                  ...        0 min,  0.030 sec (  8.860%)
 ANC generation                 ...        0 min,  0.002 sec (  0.489%)
 coordinate transformation      ...        0 min,  0.000 sec (  0.085%)
 single point calculation       ...        0 min,  0.299 sec ( 89.047%)
 optimization log               ...        0 min,  0.002 sec (  0.624%)
 hessian update                 ...        0 min,  0.000 sec (  0.114%)
 rational function              ...        0 min,  0.002 sec (  0.495%)

================
 final structure:
================
36
 xtb: 6.7.1 (edcfbbe)
C            0.26072956297508       -0.12211716134322       -0.11814116698480
N            0.30367066199049       -0.76505248587932        1.16739897289022
C            1.21481345526485       -1.70118968741782        1.55383031708177
C            0.90077508373659       -2.06883660774822        2.82640170322104
N           -0.19926475690331       -1.35786188408372        3.19457246536785
C           -0.53885191216696       -0.57062781740127        2.17940363865084
C           -0.81659278584101       -1.38870846163123        4.51686086743431
C            0.00730880241716       -0.54906423520678        5.47251233765368
C            0.28583754561301       -1.03400725500892        6.74315057273205
C            1.01491468679454       -0.26791048955378        7.63618044620137
C            1.47759795453763        0.98251142904748        7.26345241834973
C            1.20379172185818        1.46964721122259        5.99627832946624
C            0.46943260912653        0.70876217687496        5.10400552397194
C           -2.27306649000053       -0.96747809117494        4.41905517748954
C           -2.78129218918994        0.10814443635296        5.13219347241149
C           -4.12172343516998        0.44203184502044        5.02355569908216
C           -4.96002892330505       -0.28997108935999        4.20153492749915
C           -4.45770037603317       -1.36743653927004        3.48932619497663
C           -3.12235961995309       -1.70766622310251        3.60064304997017
H           -0.49135421875189        0.66352909593774       -0.11371934339583
H            0.01175899717685       -0.84776586845482       -0.89401725353703
H            1.23283988609217        0.31263931131424       -0.35099721971904
H            2.00486439713680       -2.03497779295904        0.91254832222379
H            1.37725979883562       -2.77098100062336        3.47956057543692
H           -1.37576297412844        0.10060888766979        2.17501111178353
H           -0.78045006204192       -2.43311981621110        4.85204386241791
H           -0.07710094333397       -2.00715601732533        7.03887345732538
H            1.22194243822226       -0.65101267155433        8.62295005185876
H            2.04755408500476        1.57830299174770        7.95864136002017
H            1.55709709503223        2.44572911687436        5.70208210461297
H            0.24940031616804        1.10460433216659        4.12145146124341
H           -2.13803324614695        0.68013932391362        5.78254728456299
H           -4.50873032696121        1.27519426839239        5.58886069937917
H           -6.00355755721942       -0.02943905495282        4.12168587659048
H           -5.10771641677843       -1.94926653646461        2.85454178454726
H           -2.73894286405861       -2.55934763980629        3.05509091718579

 Bond Distances (Angstroems)
 ---------------------------
C1-N2=1.4380         C1-H20=1.0876        C1-H21=1.0911        C1-H22=1.0901        N2-C1=1.4380         N2-C3=1.3623         
N2-C6=1.3311         C3-N2=1.3623         C3-C4=1.3613         C3-H23=1.0709        C4-C3=1.3613         C4-N5=1.3606         
C4-H24=1.0708        N5-C4=1.3606         N5-C6=1.3288         N5-C7=1.4596         C6-N2=1.3311         C6-N5=1.3288         
C6-H25=1.0728        C7-N5=1.4596         C7-C8=1.5156         C7-C14=1.5193        C7-H26=1.0975        C8-C7=1.5156         
C8-C9=1.3883         C8-C13=1.3898        C9-C8=1.3883         C9-C10=1.3842        C9-H27=1.0799        C10-C9=1.3842        
C10-C11=1.3844       C10-H28=1.0786       C11-C10=1.3844       C11-C12=1.3849       C11-H29=1.0785       C12-C11=1.3849       
C12-C13=1.3836       C12-H30=1.0789       C13-C8=1.3898        C13-C12=1.3836       C13-H31=1.0819       C14-C7=1.5193        
C14-C15=1.3870       C14-C19=1.3925       C15-C14=1.3870       C15-C16=1.3857       C15-H32=1.0789       C16-C15=1.3857       
C16-C17=1.3836       C16-H33=1.0787       C17-C16=1.3836       C17-C18=1.3858       C17-H34=1.0785       C18-C17=1.3858       
C18-C19=1.3825       C18-H35=1.0789       C19-C14=1.3925       C19-C18=1.3825       C19-H36=1.0817       H20-C1=1.0876        
H21-C1=1.0911        H22-C1=1.0901        H23-C3=1.0709        H24-C4=1.0708        H25-C6=1.0728        H26-C7=1.0975        
H27-C9=1.0799        H28-C10=1.0786       H29-C11=1.0785       H30-C12=1.0789       H31-C13=1.0819       H32-C15=1.0789       
H33-C16=1.0787       H34-C17=1.0785       H35-C18=1.0789       H36-C19=1.0817       
 C  H  Rav=1.0809 sigma=0.0069  Rmin=1.0708  Rmax=1.0975    17
 C  C  Rav=1.4019 sigma=0.0458  Rmin=1.3613  Rmax=1.5193    15
 N  C  Rav=1.3801 sigma=0.0507  Rmin=1.3288  Rmax=1.4596     6

 selected bond angles (degree)
 --------------------
H20-C1-N2=109.88               H21-C1-N2=110.19               H21-C1-H20=109.00              H22-C1-N2=110.04               
H22-C1-H20=109.23              H22-C1-H21=108.47              C3-N2-C1=125.51                C6-N2-C1=126.55                
C6-N2-C3=107.94                C4-C3-N2=107.25                H23-C3-N2=122.53               H23-C3-C4=130.22               
N5-C4-C3=107.36                H24-C4-C3=130.14               H24-C4-N5=122.50               C6-N5-C4=108.03                
C7-N5-C4=125.17                C7-N5-C6=126.62                N5-C6-N2=109.42                H25-C6-N2=125.59               
H25-C6-N5=124.97               C8-C7-N5=109.24                C14-C7-N5=109.95               C14-C7-C8=114.09               
H26-C7-N5=106.43               H26-C7-C8=108.47               H26-C7-C14=108.37              C9-C8-C7=119.52                
C13-C8-C7=121.00               C13-C8-C9=119.48               C10-C9-C8=120.19               H27-C9-C8=119.87               
H27-C9-C10=119.94              C11-C10-C9=120.15              H28-C10-C9=119.65              H28-C10-C11=120.20             

 selected dihedral angles (degree)
 ---------------------------------
C3-N2-C1-H20=186.74           C3-N2-C1-H21= 66.62           C3-N2-C1-H22=307.05           C6-N2-C1-H20=  7.68           
C6-N2-C1-H21=247.56           C6-N2-C1-H22=127.99           C4-C3-N2-C1=180.83            C4-C3-N2-C6=  0.04            
H23-C3-N2-C1=  0.76           H23-C3-N2-C6=179.97           N5-C4-C3-N2=  0.30            N5-C4-C3-H23=180.37           
H24-C4-C3-N2=180.45           H24-C4-C3-H23=  0.53          C6-N5-C4-C3=359.47            C6-N5-C4-H24=179.33           
C7-N5-C4-C3=184.03            C7-N5-C4-H24=  3.89           N5-C6-N2-C1=178.82            N5-C6-N2-C3=359.63            
H25-C6-N2-C1=  0.00           H25-C6-N2-C3=180.80           N2-C6-N5-C4=  0.56            N2-C6-N5-C7=175.92            
H25-C6-N5-C4=179.40           H25-C6-N5-C7=354.76           C8-C7-N5-C4= 77.33            C8-C7-N5-C6=262.74            
C14-C7-N5-C4=203.25           C14-C7-N5-C6= 28.65           H26-C7-N5-C4=320.41           H26-C7-N5-C6=145.82           
C9-C8-C7-N5=224.17            C9-C8-C7-C14=100.67           C9-C8-C7-H26=339.79           C13-C8-C7-N5= 45.26           
C13-C8-C7-C14=281.75          C13-C8-C7-H26=160.88          C10-C9-C8-C7=181.26           C10-C9-C8-C13=  0.19          
H27-C9-C8-C7=  0.57           H27-C9-C8-C13=179.50          C11-C10-C9-C8=359.58          C11-C10-C9-H27=180.26         
H28-C10-C9-C8=179.68          H28-C10-C9-H27=  0.37         
           -------------------------------------------------
          |                Final Singlepoint                |
           -------------------------------------------------

          ...................................................
          :                      SETUP                      :
          :.................................................:
          :  # basis functions                  93          :
          :  # atomic orbitals                  93          :
          :  # shells                           55          :
          :  # electrons                        94          :
          :  max. iterations                   250          :
          :  Hamiltonian                  GFN2-xTB          :
          :  restarted?                      false          :
          :  GBSA solvation                  false          :
          :  PC potential                    false          :
          :  electronic temp.          300.0000000     K    :
          :  accuracy                    1.0000000          :
          :  -> integral cutoff          0.2500000E+02      :
          :  -> integral neglect         0.1000000E-07      :
          :  -> SCF convergence          0.1000000E-05 Eh   :
          :  -> wf. convergence          0.1000000E-03 e    :
          :  Broyden damping             0.4000000          :
          :  net charge                          1          :
          :  unpaired electrons                  0          :
          ...................................................

 iter      E             dE          RMSdq      gap      omega  full diag
   1    -51.4429820 -0.514430E+02  0.243E-05    3.13       0.0  T
   2    -51.4429820 -0.753175E-11  0.141E-05    3.13    1185.6  T
   3    -51.4429820 -0.377298E-11  0.757E-06    3.13    2201.1  T

   *** convergence criteria satisfied after 3 iterations ***

         #    Occupation            Energy/Eh            Energy/eV
      -------------------------------------------------------------
         1        2.0000           -0.8886281             -24.1808
       ...           ...                  ...                  ...
        41        2.0000           -0.5359724             -14.5846
        42        2.0000           -0.5328210             -14.4988
        43        2.0000           -0.5299289             -14.4201
        44        2.0000           -0.5183601             -14.1053
        45        2.0000           -0.5170488             -14.0696
        46        2.0000           -0.5162467             -14.0478
        47        2.0000           -0.5134387             -13.9714 (HOMO)
        48                         -0.3985713             -10.8457 (LUMO)
        49                         -0.3642305              -9.9112
        50                         -0.3444579              -9.3732
        51                         -0.3375129              -9.1842
        52                         -0.3358683              -9.1394
       ...                                ...                  ...
        93                          0.5527002              15.0397
      -------------------------------------------------------------
                  HL-Gap            0.1148675 Eh            3.1257 eV
             Fermi-level           -0.4560050 Eh          -12.4085 eV

 SCC (total)                   0 d,  0 h,  0 min,  0.011 sec
 SCC setup                      ...        0 min,  0.000 sec (  0.732%)
 Dispersion                     ...        0 min,  0.000 sec (  1.688%)
 classical contributions        ...        0 min,  0.000 sec (  0.258%)
 integral evaluation            ...        0 min,  0.001 sec ( 13.261%)
 iterations                     ...        0 min,  0.004 sec ( 37.788%)
 molecular gradient             ...        0 min,  0.005 sec ( 45.235%)
 printout                       ...        0 min,  0.000 sec (  0.903%)

         :::::::::::::::::::::::::::::::::::::::::::::::::::::
         ::                     SUMMARY                     ::
         :::::::::::::::::::::::::::::::::::::::::::::::::::::
         :: total energy             -50.531010424279 Eh    ::
         :: gradient norm              0.000342906104 Eh/a0 ::
         :: HOMO-LUMO gap              3.125703332085 eV    ::
         ::.................................................::
         :: SCC energy               -51.442421647347 Eh    ::
         :: -> isotropic ES            0.074204363531 Eh    ::
         :: -> anisotropic ES         -0.009163365816 Eh    ::
         :: -> anisotropic XC          0.035081492912 Eh    ::
         :: -> dispersion             -0.038298014414 Eh    ::
         :: repulsion energy           0.911411223068 Eh    ::
         :: add. restraining           0.000000000000 Eh    ::
         :: total charge               1.000000000000 e     ::
         :::::::::::::::::::::::::::::::::::::::::::::::::::::

           -------------------------------------------------
          |                Property Printout                |
           -------------------------------------------------

    * Orbital Energies and Occupations

         #    Occupation            Energy/Eh            Energy/eV
      -------------------------------------------------------------
         1        2.0000           -0.8886281             -24.1808
       ...           ...                  ...                  ...
        35        2.0000           -0.5894461             -16.0396
        36        2.0000           -0.5878546             -15.9963
        37        2.0000           -0.5825660             -15.8524
        38        2.0000           -0.5806687             -15.8008
        39        2.0000           -0.5780880             -15.7306
        40        2.0000           -0.5407208             -14.7138
        41        2.0000           -0.5359724             -14.5846
        42        2.0000           -0.5328210             -14.4988
        43        2.0000           -0.5299289             -14.4201
        44        2.0000           -0.5183601             -14.1053
        45        2.0000           -0.5170488             -14.0696
        46        2.0000           -0.5162467             -14.0478
        47        2.0000           -0.5134387             -13.9714 (HOMO)
        48                         -0.3985713             -10.8457 (LUMO)
        49                         -0.3642305              -9.9112
        50                         -0.3444579              -9.3732
        51                         -0.3375129              -9.1842
        52                         -0.3358683              -9.1394
        53                         -0.3342128              -9.0944
        54                         -0.2154323              -5.8622
        55                         -0.2069605              -5.6317
        56                         -0.1695215              -4.6129
        57                         -0.1197411              -3.2583
        58                         -0.0552311              -1.5029
       ...                                ...                  ...
        93                          0.5527002              15.0397
      -------------------------------------------------------------
                  HL-Gap            0.1148675 Eh            3.1257 eV
             Fermi-level           -0.4560050 Eh          -12.4085 eV

     #   Z          covCN         q      C6AA      α(0)
     1   6 C        3.692    -0.084    22.297     6.757
     2   7 N        2.868     0.072    19.989     6.640
     3   6 C        3.072    -0.009    28.168     8.702
     4   6 C        3.074    -0.004    28.048     8.683
     5   7 N        2.875     0.062    20.157     6.668
     6   6 C        3.098     0.052    26.721     8.472
     7   6 C        3.802     0.015    20.318     6.417
     8   6 C        2.974    -0.002    28.068     8.690
     9   6 C        2.923    -0.033    28.818     8.803
    10   6 C        2.920    -0.021    28.519     8.757
    11   6 C        2.920    -0.021    28.527     8.759
    12   6 C        2.919    -0.024    28.600     8.770
    13   6 C        2.922    -0.037    28.931     8.821
    14   6 C        2.972    -0.008    28.204     8.711
    15   6 C        2.921    -0.033    28.830     8.805
    16   6 C        2.920    -0.023    28.567     8.765
    17   6 C        2.920    -0.022    28.544     8.761
    18   6 C        2.919    -0.024    28.615     8.772
    19   6 C        2.924    -0.043    29.058     8.840
    20   1 H        0.925     0.097     1.809     2.103
    21   1 H        0.924     0.105     1.742     2.064
    22   1 H        0.925     0.105     1.736     2.061
    23   1 H        0.926     0.107     1.724     2.053
    24   1 H        0.926     0.105     1.740     2.063
    25   1 H        0.926     0.110     1.693     2.034
    26   1 H        0.924     0.081     1.974     2.197
    27   1 H        0.926     0.044     2.390     2.417
    28   1 H        0.926     0.059     2.214     2.327
    29   1 H        0.926     0.058     2.217     2.328
    30   1 H        0.926     0.051     2.306     2.375
    31   1 H        0.925     0.020     2.731     2.585
    32   1 H        0.926     0.047     2.355     2.400
    33   1 H        0.926     0.056     2.241     2.341
    34   1 H        0.926     0.058     2.223     2.331
    35   1 H        0.926     0.053     2.284     2.363
    36   1 H        0.925     0.028     2.618     2.530

 Mol. C6AA /au·bohr⁶  :      15057.182198
 Mol. C8AA /au·bohr⁸  :     368431.439848
 Mol. α(0) /au        :        196.166879


Wiberg/Mayer (AO) data.
largest (>0.10) Wiberg bond orders for each atom

 ---------------------------------------------------------------------------
     #   Z sym  total        # sym  WBO       # sym  WBO       # sym  WBO
 ---------------------------------------------------------------------------
     1   6 C    3.935 --     2 N    0.991    20 H    0.976    22 H    0.965
                            21 H    0.962
     2   7 N    3.714 --     6 C    1.354     3 C    1.224     1 C    0.991
     3   6 C    3.947 --     4 C    1.593     2 N    1.224    23 H    0.962
     4   6 C    3.951 --     3 C    1.593     5 N    1.231    24 H    0.962
     5   7 N    3.714 --     6 C    1.366     4 C    1.231     7 C    0.934
     6   6 C    3.946 --     5 N    1.366     2 N    1.354    25 H    0.953
     7   6 C    3.930 --    14 C    0.970     8 C    0.969    26 H    0.944
                             5 N    0.934
     8   6 C    3.979 --     9 C    1.413    13 C    1.410     7 C    0.969
                            11 C    0.109
     9   6 C    3.989 --    10 C    1.441     8 C    1.413    27 H    0.968
                            12 C    0.110
    10   6 C    3.989 --    11 C    1.441     9 C    1.441    28 H    0.968
                            13 C    0.111
    11   6 C    3.988 --    10 C    1.441    12 C    1.437    29 H    0.969
                             8 C    0.109
    12   6 C    3.991 --    13 C    1.445    11 C    1.437    30 H    0.970
                             9 C    0.110
    13   6 C    3.992 --    12 C    1.445     8 C    1.410    31 H    0.967
                            10 C    0.111
    14   6 C    3.979 --    15 C    1.425    19 C    1.402     7 C    0.970
                            17 C    0.110
    15   6 C    3.991 --    16 C    1.434    14 C    1.425    32 H    0.965
                            18 C    0.109
    16   6 C    3.990 --    17 C    1.447    15 C    1.434    33 H    0.969
                            19 C    0.113
    17   6 C    3.989 --    16 C    1.447    18 C    1.431    34 H    0.969
                            14 C    0.110
    18   6 C    3.990 --    19 C    1.452    17 C    1.431    35 H    0.969
                            15 C    0.109
    19   6 C    3.991 --    18 C    1.452    14 C    1.402    36 H    0.970
                            16 C    0.113
    20   1 H    0.990 --     1 C    0.976
    21   1 H    0.988 --     1 C    0.962
    22   1 H    0.988 --     1 C    0.965
    23   1 H    0.988 --     3 C    0.962
    24   1 H    0.989 --     4 C    0.962
    25   1 H    0.988 --     6 C    0.953
    26   1 H    0.993 --     7 C    0.944
    27   1 H    0.998 --     9 C    0.968
    28   1 H    0.996 --    10 C    0.968
    29   1 H    0.996 --    11 C    0.969
    30   1 H    0.997 --    12 C    0.970
    31   1 H    1.000 --    13 C    0.967
    32   1 H    0.998 --    15 C    0.965
    33   1 H    0.996 --    16 C    0.969
    34   1 H    0.996 --    17 C    0.969
    35   1 H    0.997 --    18 C    0.969
    36   1 H    0.999 --    19 C    0.970
 ---------------------------------------------------------------------------

Topologies differ in total number of bonds
Writing topology from bond orders to xtbtopo.mol

molecular dipole:
                 x           y           z       tot (Debye)
 q only:       -0.327      -1.390       4.917
   full:       -0.341      -1.447       4.860      12.917
molecular quadrupole (traceless):
                xx          xy          yy          xz          yz          zz
 q only:      -14.397      -2.055     -22.324      -5.028      -9.233      36.720
  q+dip:      -15.069      -1.232     -19.876      -3.141      -8.439      34.945
   full:      -14.568      -1.410     -20.421      -4.547      -9.344      34.989

           -------------------------------------------------
          |                Geometry Summary                 |
           -------------------------------------------------

      molecular mass/u    :      249.3309095
   center of mass at/Å    :       -0.8309247      -0.5490305       4.1222649
  moments of inertia/u·Å² :        0.1225892E+04   0.1362593E+04   0.2192447E+04
rotational constants/cm⁻¹ :        0.1375132E-01   0.1237173E-01   0.7688956E-02

 * 36 selected distances

     #   Z          #   Z                                           value/Å
     1   6 C        2   7 N                                       1.4379929
     2   7 N        3   6 C                                       1.3623008
     3   6 C        4   6 C                                       1.3613312
     4   6 C        5   7 N                                       1.3605597
     2   7 N        6   6 C                                       1.3310894
     5   7 N        6   6 C                                       1.3287682
     5   7 N        7   6 C                                       1.4596206 (max)
     8   6 C        9   6 C                                       1.3882615
     9   6 C       10   6 C                                       1.3841822
    10   6 C       11   6 C                                       1.3843978
    11   6 C       12   6 C                                       1.3849194
     8   6 C       13   6 C                                       1.3897782
    12   6 C       13   6 C                                       1.3836114
    14   6 C       15   6 C                                       1.3870197
    15   6 C       16   6 C                                       1.3856548
    16   6 C       17   6 C                                       1.3835834
    17   6 C       18   6 C                                       1.3858237
    14   6 C       19   6 C                                       1.3924712
    18   6 C       19   6 C                                       1.3824916
     1   6 C       20   1 H                                       1.0876074
     1   6 C       21   1 H                                       1.0911170
     1   6 C       22   1 H                                       1.0900614
     3   6 C       23   1 H                                       1.0709051
     4   6 C       24   1 H                                       1.0708227 (min)
     6   6 C       25   1 H                                       1.0728459
     7   6 C       26   1 H                                       1.0974740
     9   6 C       27   1 H                                       1.0799051
    10   6 C       28   1 H                                       1.0785834
    11   6 C       29   1 H                                       1.0784737
    12   6 C       30   1 H                                       1.0789403
    13   6 C       31   1 H                                       1.0819048
    15   6 C       32   1 H                                       1.0788515
    16   6 C       33   1 H                                       1.0786584
    17   6 C       34   1 H                                       1.0785198
    18   6 C       35   1 H                                       1.0788876
    19   6 C       36   1 H                                       1.0816640

 * 3 distinct bonds (by element types)

   Z      Z             #   av. dist./Å        max./Å        min./Å
   1 H    6 C          17     1.0808954     1.0974740     1.0708227
   6 C    6 C          13     1.3841174     1.3924712     1.3613312
   6 C    7 N           6     1.3800553     1.4596206     1.3287682


optimized geometry written to: xtbopt.xyz


           -------------------------------------------------
          | TOTAL ENERGY              -50.531010424279 Eh   |
          | GRADIENT NORM               0.000342906104 Eh/α |
          | HOMO-LUMO GAP               3.125703332085 eV   |
           -------------------------------------------------

------------------------------------------------------------------------
 * finished run on 2024/12/20 at 07:05:10.436     
------------------------------------------------------------------------
 total:
 * wall-time:     0 d,  0 h,  0 min,  0.392 sec
 *  cpu-time:     0 d,  0 h,  0 min,  3.093 sec
 * ratio c/w:     7.893 speedup
 SCF:
 * wall-time:     0 d,  0 h,  0 min,  0.026 sec
 *  cpu-time:     0 d,  0 h,  0 min,  0.199 sec
 * ratio c/w:     7.800 speedup
 ANC optimizer:
 * wall-time:     0 d,  0 h,  0 min,  0.347 sec
 *  cpu-time:     0 d,  0 h,  0 min,  2.760 sec
 * ratio c/w:     7.958 speedup

