      -----------------------------------------------------------      
     |                   =====================                   |     
     |                           x T B                           |     
     |                   =====================                   |     
     |                         S. Grimme                         |     
     |          Mulliken Center for Theoretical Chemistry        |     
     |                    University of Bonn                     |     
      -----------------------------------------------------------      

   * xtb version 6.7.1 (edcfbbe) compiled by 'conda@3ef47c1a292c' on 2024-11-25

   xtb is free software: you can redistribute it and/or modify it under
   the terms of the GNU Lesser General Public License as published by
   the Free Software Foundation, either version 3 of the License, or
   (at your option) any later version.
   
   xtb is distributed in the hope that it will be useful,
   but WITHOUT ANY WARRANTY; without even the implied warranty of
   MERCHANTABILITY or FITNESS FOR A PARTICULAR PURPOSE.  See the
   GNU Lesser General Public License for more details.
   
   Cite this work as:
   * C. Bannwarth, E. Caldeweyher, S. Ehlert, A. Hansen, P. Pracht,
     J. Seibert, S. Spicher, S. Grimme, WIREs Comput. Mol. Sci., 2020, 11,
     e01493. DOI: 10.1002/wcms.1493
   
   for GFN2-xTB:
   * C. Bannwarth, S. Ehlert and S. Grimme., J. Chem. Theory Comput., 2019,
     15, 1652-1671. DOI: 10.1021/acs.jctc.8b01176
   for GFN1-xTB:
   * S. Grimme, C. Bannwarth, P. Shushkov, J. Chem. Theory Comput., 2017,
     13, 1989-2009. DOI: 10.1021/acs.jctc.7b00118
   for GFN0-xTB:
   * P. Pracht, E. Caldeweyher, S. Ehlert, S. Grimme, ChemRxiv, 2019, preprint.
     DOI: 10.26434/chemrxiv.8326202.v1
   for GFN-FF:
   * S. Spicher and S. Grimme, Angew. Chem. Int. Ed., 2020, 59, 15665-15673.
     DOI: 10.1002/anie.202004239
   
   for ALPB and GBSA implicit solvation:
   * S. Ehlert, M. Stahn, S. Spicher, S. Grimme, J. Chem. Theory Comput.,
     2021, 17, 4250-4261. DOI: 10.1021/acs.jctc.1c00471
   
   for ddCOSMO and CPCM-X implicit solvation:
   * M. Stahn, S. Ehlert, S. Grimme, J. Phys. Chem. A,
     2023, XX, XXXX-XXXX. DOI: 10.1021/acs.jpca.3c04382
   
   for DFT-D4:
   * E. Caldeweyher, C. Bannwarth and S. Grimme, J. Chem. Phys., 2017,
     147, 034112. DOI: 10.1063/1.4993215
   * E. Caldeweyher, S. Ehlert, A. Hansen, H. Neugebauer, S. Spicher,
     C. Bannwarth and S. Grimme, J. Chem. Phys., 2019, 150, 154122.
     DOI: 10.1063/1.5090222
   * E. Caldeweyher, J.-M. Mewes, S. Ehlert and S. Grimme, Phys. Chem. Chem. Phys.
     2020, 22, 8499-8512. DOI: 10.1039/D0CP00502A
   
   for sTDA-xTB:
   * S. Grimme and C. Bannwarth, J. Chem. Phys., 2016, 145, 054103.
     DOI: 10.1063/1.4959605
   
   in the mass-spec context:
   * V. Asgeirsson, C. Bauer and S. Grimme, Chem. Sci., 2017, 8, 4879.
     DOI: 10.1039/c7sc00601b
   * J. Koopman and S. Grimme, ACS Omega 2019, 4, 12, 15120-15133.
     DOI: 10.1021/acsomega.9b02011
   
   for metadynamics refer to:
   * S. Grimme, J. Chem. Theory Comput., 2019, 155, 2847-2862
     DOI: 10.1021/acs.jctc.9b00143
   
   for SPH calculations refer to:
   * S. Spicher and S. Grimme, J. Chem. Theory Comput., 2021, 17, 1701-1714
     DOI: 10.1021/acs.jctc.0c01306
   
   for ONIOM refer to:
   * C. Plett, A. Katbashev, S. Ehlert, S. Grimme, M. Bursch,
     Phys. Chem. Chem. Phys., 2023, 25, 17860-17868. DOI: 10.1039/D3CP02178E
   
   for DIPRO refer to:
   * J. Kohn, N. Gildemeister, S. Grimme, D. Fazzi, A. Hansen,
     J. Chem. Phys., 2023, just accepted.
   
   for PTB refer to:
   * S. Grimme, M. Mueller, A. Hansen, J. Chem. Phys., 2023, 158, 124111.
     DOI: 10.1063/5.0137838
   
   with help from (in alphabetical order)
   P. Atkinson, C. Bannwarth, F. Bohle, G. Brandenburg, E. Caldeweyher
   M. Checinski, S. Dohm, S. Ehlert, S. Ehrlich, I. Gerasimov, C. Hölzer
   A. Katbashev, J. Kohn, J. Koopman, C. Lavigne, S. Lehtola, F. März, M. Müller,
   F. Musil, H. Neugebauer, J. Pisarek, C. Plett, P. Pracht, F. Pultar,
   J. Seibert, P. Shushkov, S. Spicher, M. Stahn, M. Steiner, T. Strunk,
   J. Stückrath, T. Rose, and J. Unsleber
   
 * started run on 2024/12/20 at 07:06:08.559     
   ID    Z sym.   atoms
    1    6 C      1-4, 6, 8, 9, 11
    2    7 N      5, 7
    3   53 I      10, 12
    4    1 H      13-25

           -------------------------------------------------
          |                Calculation Setup                |
           -------------------------------------------------

          program call               : xtb C0961.xyz --opt --namespace C0961 --charge +1
          calculation namespace      : C0961
          coordinate file            : C0961.xyz
          omp threads                :                     8


           -------------------------------------------------
          |                 G F N 2 - x T B                 |
           -------------------------------------------------

        Reference                      10.1021/acs.jctc.8b01176
      * Hamiltonian:
        H0-scaling (s, p, d)           1.850000    2.230000    2.230000
        zeta-weighting                 0.500000
      * Dispersion:
        s8                             2.700000
        a1                             0.520000
        a2                             5.000000
        s9                             5.000000
      * Repulsion:
        kExp                           1.500000    1.000000
        rExp                           1.000000
      * Coulomb:
        alpha                          2.000000
        third order                    shell-resolved
        anisotropic                    true
        a3                             3.000000
        a5                             4.000000
        cn-shift                       1.200000
        cn-exp                         4.000000
        max-rad                        5.000000


          ...................................................
          :                      SETUP                      :
          :.................................................:
          :  # basis functions                  73          :
          :  # atomic orbitals                  71          :
          :  # shells                           39          :
          :  # electrons                        68          :
          :  max. iterations                   250          :
          :  Hamiltonian                  GFN2-xTB          :
          :  restarted?                      false          :
          :  GBSA solvation                  false          :
          :  PC potential                    false          :
          :  electronic temp.          300.0000000     K    :
          :  accuracy                    1.0000000          :
          :  -> integral cutoff          0.2500000E+02      :
          :  -> integral neglect         0.1000000E-07      :
          :  -> SCF convergence          0.1000000E-05 Eh   :
          :  -> wf. convergence          0.1000000E-03 e    :
          :  Broyden damping             0.4000000          :
          :  net charge                          1          :
          :  unpaired electrons                  0          :
          ...................................................

 iter      E             dE          RMSdq      gap      omega  full diag
   1    -37.1144236 -0.371144E+02  0.550E+00    4.30       0.0  T
   2    -37.2579957 -0.143572E+00  0.456E+00    3.01       1.0  T
   3    -37.2615189 -0.352316E-02  0.167E+00    3.33       1.0  T
   4    -37.2616416 -0.122735E-03  0.507E-01    3.22       1.0  T
   5    -37.2621517 -0.510028E-03  0.334E-01    3.19       1.0  T
   6    -37.2626084 -0.456702E-03  0.770E-02    3.21       1.0  T
   7    -37.2626768 -0.684313E-04  0.416E-02    3.18       1.0  T
   8    -37.2626779 -0.113680E-05  0.204E-02    3.19       1.0  T
   9    -37.2626781 -0.190806E-06  0.940E-03    3.19       2.1  T
  10    -37.2626788 -0.660704E-06  0.477E-03    3.19       4.2  T
  11    -37.2626789 -0.109637E-06  0.245E-03    3.19       8.2  T
  12    -37.2626789 -0.115128E-07  0.897E-04    3.19      22.3  T
  13    -37.2626789 -0.137923E-08  0.565E-04    3.19      35.4  T

   *** convergence criteria satisfied after 13 iterations ***

         #    Occupation            Energy/Eh            Energy/eV
      -------------------------------------------------------------
         1        2.0000           -0.9100417             -24.7635
       ...           ...                  ...                  ...
        28        2.0000           -0.5715904             -15.5538
        29        2.0000           -0.5694561             -15.4957
        30        2.0000           -0.5642078             -15.3529
        31        2.0000           -0.5615139             -15.2796
        32        2.0000           -0.5529396             -15.0463
        33        2.0000           -0.5483162             -14.9204
        34        2.0000           -0.5459110             -14.8550 (HOMO)
        35                         -0.4286862             -11.6651 (LUMO)
        36                         -0.4055727             -11.0362
        37                         -0.3845998             -10.4655
        38                         -0.3819062             -10.3922
        39                         -0.2356620              -6.4127
       ...                                ...                  ...
        71                          0.3720901              10.1251
      -------------------------------------------------------------
                  HL-Gap            0.1172248 Eh            3.1898 eV
             Fermi-level           -0.4872986 Eh          -13.2601 eV

 SCC (total)                   0 d,  0 h,  0 min,  0.018 sec
 SCC setup                      ...        0 min,  0.000 sec (  0.645%)
 Dispersion                     ...        0 min,  0.000 sec (  0.989%)
 classical contributions        ...        0 min,  0.000 sec (  0.255%)
 integral evaluation            ...        0 min,  0.002 sec ( 13.947%)
 iterations                     ...        0 min,  0.012 sec ( 65.537%)
 molecular gradient             ...        0 min,  0.003 sec ( 18.087%)
 printout                       ...        0 min,  0.000 sec (  0.456%)

         :::::::::::::::::::::::::::::::::::::::::::::::::::::
         ::                     SUMMARY                     ::
         :::::::::::::::::::::::::::::::::::::::::::::::::::::
         :: total energy             -36.841644137746 Eh    ::
         :: gradient norm              0.055709662047 Eh/a0 ::
         :: HOMO-LUMO gap              3.189847879170 eV    ::
         ::.................................................::
         :: SCC energy               -37.262441239339 Eh    ::
         :: -> isotropic ES            0.082652014555 Eh    ::
         :: -> anisotropic ES         -0.001907875499 Eh    ::
         :: -> anisotropic XC          0.021072202836 Eh    ::
         :: -> dispersion             -0.025714610796 Eh    ::
         :: repulsion energy           0.420797101593 Eh    ::
         :: add. restraining           0.000000000000 Eh    ::
         :: total charge               1.000000000000 e     ::
         :::::::::::::::::::::::::::::::::::::::::::::::::::::

      ----------------------------------------------------------- 
     |                   =====================                   |
     |                        A N C O P T                        |
     |                   =====================                   |
     |               Approximate Normal Coordinate               |
     |                Rational Function Optimizer                |
      ----------------------------------------------------------- 
      ----------------------------------------------------------- 
     |                   =====================                   |
     |                        A N C O P T                        |
     |                   =====================                   |
     |               Approximate Normal Coordinate               |
     |                Rational Function Optimizer                |
      ----------------------------------------------------------- 

          ...................................................
          :                      SETUP                      :
          :.................................................:
          :   optimization level            normal          :
          :   max. optcycles                   200          :
          :   ANC micro-cycles                  20          :
          :   degrees of freedom                69          :
          :.................................................:
          :   RF solver                   davidson          :
          :   write xtbopt.log                true          :
          :   linear?                        false          :
          :   energy convergence         0.5000000E-05 Eh   :
          :   grad. convergence          0.1000000E-02 Eh/α :
          :   maxmium RF displ.          1.0000000          :
          :   Hlow (freq-cutoff)         0.1000000E-01      :
          :   Hmax (freq-cutoff)         5.0000000          :
          :   S6 in model hess.         20.0000000          :
          ...................................................

generating ANC from exact Hessian ...
Using Lindh-Hessian (1995)
 Shifting diagonal of input Hessian by    9.3546554408352293E-003
 Lowest  eigenvalues of input Hessian
    0.000000    0.000000    0.000000    0.000000    0.000000    0.000000
    0.010000    0.010497    0.011138    0.011564    0.014491    0.015566
    0.015700    0.018813    0.019007    0.020400    0.022265    0.023484
 Highest eigenvalues
    1.276568    1.391357    1.661736    1.770376    2.003712    2.089820


........................................................................
.............................. CYCLE    1 ..............................
........................................................................

 iter      E             dE          RMSdq      gap      omega  full diag
   1    -37.2626789 -0.372627E+02  0.280E-04    3.19       0.0  T
   2    -37.2626789 -0.818758E-10  0.191E-04    3.19     104.9  T
   3    -37.2626789  0.343690E-10  0.118E-04    3.19     169.7  T
     SCC iter.                  ...        0 min,  0.003 sec
     gradient                   ...        0 min,  0.003 sec
 * total energy  :   -36.8416441 Eh     change       -0.5547705E-09 Eh
   gradient norm :     0.0557086 Eh/α   predicted     0.0000000E+00 (-100.00%)
   displ. norm   :     0.2159112 α      lambda       -0.6334883E-02
   maximum displ.:     0.0878342 α      in ANC's #8, #9, #46, ...

........................................................................
.............................. CYCLE    2 ..............................
........................................................................

 iter      E             dE          RMSdq      gap      omega  full diag
   1    -37.2770225 -0.372770E+02  0.224E-01    3.32       0.0  T
   2    -37.2771862 -0.163726E-03  0.146E-01    3.26       1.0  T
   3    -37.2771905 -0.425368E-05  0.814E-02    3.27       1.0  T
   4    -37.2771898  0.677505E-06  0.361E-02    3.27       1.0  T
   5    -37.2771967 -0.686211E-05  0.251E-02    3.27       1.0  T
   6    -37.2771982 -0.153619E-05  0.794E-03    3.27       2.5  T
   7    -37.2771985 -0.335761E-06  0.356E-03    3.27       5.6  T
   8    -37.2771986 -0.491557E-08  0.127E-03    3.27      15.7  T
   9    -37.2771986 -0.169740E-07  0.773E-04    3.27      25.9  T
  10    -37.2771986 -0.424934E-08  0.320E-04    3.27      62.6  T
     SCC iter.                  ...        0 min,  0.008 sec
     gradient                   ...        0 min,  0.003 sec
 * total energy  :   -36.8455386 Eh     change       -0.3894504E-02 Eh
   gradient norm :     0.0173194 Eh/α   predicted    -0.3315269E-02 ( -14.87%)
   displ. norm   :     0.1701539 α      lambda       -0.1264192E-02
   maximum displ.:     0.0859863 α      in ANC's #11, #2, #13, ...

........................................................................
.............................. CYCLE    3 ..............................
........................................................................

 iter      E             dE          RMSdq      gap      omega  full diag
   1    -37.2879251 -0.372879E+02  0.169E-01    3.34       0.0  T
   2    -37.2879669 -0.418558E-04  0.104E-01    3.32       1.0  T
   3    -37.2879578  0.912654E-05  0.368E-02    3.31       1.0  T
   4    -37.2879703 -0.125181E-04  0.223E-02    3.32       1.0  T
   5    -37.2879733 -0.299515E-05  0.112E-02    3.31       1.8  T
   6    -37.2879734 -0.126641E-06  0.456E-03    3.31       4.4  T
   7    -37.2879735 -0.510478E-07  0.285E-03    3.31       7.0  T
   8    -37.2879735 -0.245210E-07  0.596E-04    3.31      33.6  T
   9    -37.2879735 -0.970751E-09  0.395E-04    3.31      50.6  T
     SCC iter.                  ...        0 min,  0.007 sec
     gradient                   ...        0 min,  0.003 sec
 * total energy  :   -36.8462063 Eh     change       -0.6676259E-03 Eh
   gradient norm :     0.0049901 Eh/α   predicted    -0.6503999E-03 (  -2.58%)
   displ. norm   :     0.0962094 α      lambda       -0.1491370E-03
   maximum displ.:     0.0612658 α      in ANC's #2, #11, #3, ...

........................................................................
.............................. CYCLE    4 ..............................
........................................................................

 iter      E             dE          RMSdq      gap      omega  full diag
   1    -37.2874874 -0.372875E+02  0.689E-02    3.31       0.0  T
   2    -37.2874884 -0.969250E-06  0.339E-02    3.31       1.0  T
   3    -37.2874881  0.309958E-06  0.809E-03    3.31       2.5  T
   4    -37.2874886 -0.483890E-06  0.375E-03    3.31       5.3  T
   5    -37.2874886 -0.255672E-07  0.201E-03    3.31       9.9  T
   6    -37.2874886 -0.868027E-09  0.945E-04    3.31      21.2  T
   7    -37.2874886 -0.489351E-08  0.583E-04    3.31      34.3  T
     SCC iter.                  ...        0 min,  0.005 sec
     gradient                   ...        0 min,  0.003 sec
 * total energy  :   -36.8463236 Eh     change       -0.1173728E-03 Eh
   gradient norm :     0.0031743 Eh/α   predicted    -0.7535473E-04 ( -35.80%)
   displ. norm   :     0.1626619 α      lambda       -0.1580273E-03
   maximum displ.:     0.1084298 α      in ANC's #2, #11, #7, ...

........................................................................
.............................. CYCLE    5 ..............................
........................................................................

 iter      E             dE          RMSdq      gap      omega  full diag
   1    -37.2861480 -0.372861E+02  0.718E-02    3.30       0.0  T
   2    -37.2861486 -0.565639E-06  0.373E-02    3.30       1.0  T
   3    -37.2861481  0.536928E-06  0.995E-03    3.30       2.0  T
   4    -37.2861489 -0.775578E-06  0.332E-03    3.30       6.0  T
   5    -37.2861488  0.107322E-07  0.129E-03    3.30      15.5  T
   6    -37.2861489 -0.216107E-07  0.342E-04    3.30      58.5  T
   7    -37.2861489 -0.332683E-09  0.254E-04    3.30      78.9  T
     SCC iter.                  ...        0 min,  0.005 sec
     gradient                   ...        0 min,  0.003 sec
 * total energy  :   -36.8464240 Eh     change       -0.1003647E-03 Eh
   gradient norm :     0.0024068 Eh/α   predicted    -0.8110568E-04 ( -19.19%)
   displ. norm   :     0.0891744 α      lambda       -0.4231987E-04
   maximum displ.:     0.0678868 α      in ANC's #2, #7, #4, ...

........................................................................
.............................. CYCLE    6 ..............................
........................................................................

 iter      E             dE          RMSdq      gap      omega  full diag
   1    -37.2860239 -0.372860E+02  0.443E-02    3.30       0.0  T
   2    -37.2860241 -0.182098E-06  0.222E-02    3.30       1.0  T
   3    -37.2860239  0.217646E-06  0.501E-03    3.30       4.0  T
   4    -37.2860242 -0.302734E-06  0.158E-03    3.30      12.7  T
   5    -37.2860242 -0.642295E-09  0.559E-04    3.30      35.8  T
   6    -37.2860242 -0.146425E-08  0.194E-04    3.30     103.2  T
     SCC iter.                  ...        0 min,  0.005 sec
     gradient                   ...        0 min,  0.003 sec
 * total energy  :   -36.8464595 Eh     change       -0.3546849E-04 Eh
   gradient norm :     0.0023926 Eh/α   predicted    -0.2132895E-04 ( -39.87%)
   displ. norm   :     0.1156753 α      lambda       -0.5828127E-04
   maximum displ.:     0.0838998 α      in ANC's #2, #7, #4, ...

........................................................................
.............................. CYCLE    7 ..............................
........................................................................

 iter      E             dE          RMSdq      gap      omega  full diag
   1    -37.2862091 -0.372862E+02  0.496E-02    3.29       0.0  T
   2    -37.2862095 -0.351848E-06  0.251E-02    3.29       1.0  T
   3    -37.2862093  0.192502E-06  0.486E-03    3.30       4.1  T
   4    -37.2862095 -0.278628E-06  0.208E-03    3.29       9.6  T
   5    -37.2862096 -0.135635E-07  0.105E-03    3.29      19.0  T
   6    -37.2862096 -0.296956E-08  0.346E-04    3.29      57.8  T
   7    -37.2862096 -0.659746E-09  0.224E-04    3.29      89.3  T
     SCC iter.                  ...        0 min,  0.005 sec
     gradient                   ...        0 min,  0.003 sec
 * total energy  :   -36.8465107 Eh     change       -0.5118618E-04 Eh
   gradient norm :     0.0018737 Eh/α   predicted    -0.2953211E-04 ( -42.30%)
   displ. norm   :     0.3332920 α      lambda       -0.1015668E-03
   maximum displ.:     0.2341322 α      in ANC's #2, #7, #4, ...

........................................................................
.............................. CYCLE    8 ..............................
........................................................................

 iter      E             dE          RMSdq      gap      omega  full diag
   1    -37.2857212 -0.372857E+02  0.140E-01    3.29       0.0  T
   2    -37.2857235 -0.231419E-05  0.708E-02    3.29       1.0  T
   3    -37.2857232  0.252265E-06  0.100E-02    3.29       2.0  T
   4    -37.2857239 -0.630733E-06  0.570E-03    3.29       3.5  T
   5    -37.2857240 -0.150691E-06  0.253E-03    3.29       7.9  T
   6    -37.2857241 -0.286973E-07  0.677E-04    3.29      29.6  T
   7    -37.2857241 -0.219872E-08  0.445E-04    3.29      44.9  T
     SCC iter.                  ...        0 min,  0.005 sec
     gradient                   ...        0 min,  0.003 sec
 * total energy  :   -36.8466119 Eh     change       -0.1012529E-03 Eh
   gradient norm :     0.0036193 Eh/α   predicted    -0.5329263E-04 ( -47.37%)
   displ. norm   :     0.1276907 α      lambda       -0.5258803E-04
   maximum displ.:     0.0937068 α      in ANC's #2, #7, #4, ...

........................................................................
.............................. CYCLE    9 ..............................
........................................................................

 iter      E             dE          RMSdq      gap      omega  full diag
   1    -37.2862840 -0.372863E+02  0.643E-02    3.29       0.0  T
   2    -37.2862843 -0.341203E-06  0.322E-02    3.29       1.0  T
   3    -37.2862842  0.996185E-07  0.456E-03    3.29       4.4  T
   4    -37.2862844 -0.197235E-06  0.234E-03    3.29       8.6  T
   5    -37.2862844 -0.165514E-07  0.706E-04    3.29      28.3  T
   6    -37.2862844 -0.142634E-08  0.249E-04    3.29      80.4  T
     SCC iter.                  ...        0 min,  0.005 sec
     gradient                   ...        0 min,  0.003 sec
 * total energy  :   -36.8466536 Eh     change       -0.4168517E-04 Eh
   gradient norm :     0.0027525 Eh/α   predicted    -0.2672771E-04 ( -35.88%)
   displ. norm   :     0.2151828 α      lambda       -0.6292864E-04
   maximum displ.:     0.1524972 α      in ANC's #2, #7, #4, ...

........................................................................
.............................. CYCLE   10 ..............................
........................................................................

 iter      E             dE          RMSdq      gap      omega  full diag
   1    -37.2862327 -0.372862E+02  0.861E-02    3.28       0.0  T
   2    -37.2862334 -0.748193E-06  0.438E-02    3.29       1.0  T
   3    -37.2862325  0.951690E-06  0.950E-03    3.28       2.1  T
   4    -37.2862338 -0.130214E-05  0.390E-03    3.29       5.1  T
   5    -37.2862338 -0.199611E-07  0.158E-03    3.29      12.7  T
   6    -37.2862338 -0.142321E-07  0.467E-04    3.28      42.9  T
   7    -37.2862338 -0.960803E-09  0.312E-04    3.28      64.1  T
     SCC iter.                  ...        0 min,  0.005 sec
     gradient                   ...        0 min,  0.003 sec
 * total energy  :   -36.8466949 Eh     change       -0.4129619E-04 Eh
   gradient norm :     0.0020806 Eh/α   predicted    -0.3292275E-04 ( -20.28%)
   displ. norm   :     0.1059623 α      lambda       -0.3176805E-04
   maximum displ.:     0.0691114 α      in ANC's #2, #4, #7, ...

........................................................................
.............................. CYCLE   11 ..............................
........................................................................

 iter      E             dE          RMSdq      gap      omega  full diag
   1    -37.2869928 -0.372870E+02  0.454E-02    3.28       0.0  T
   2    -37.2869933 -0.490225E-06  0.231E-02    3.29       1.0  T
   3    -37.2869926  0.690125E-06  0.748E-03    3.28       2.7  T
   4    -37.2869935 -0.895845E-06  0.218E-03    3.28       9.2  T
   5    -37.2869936 -0.974555E-08  0.113E-03    3.28      17.6  T
   6    -37.2869936 -0.125365E-08  0.353E-04    3.28      56.7  T
   7    -37.2869936 -0.106476E-08  0.179E-04    3.28     111.9  T
     SCC iter.                  ...        0 min,  0.005 sec
     gradient                   ...        0 min,  0.003 sec
 * total energy  :   -36.8467158 Eh     change       -0.2095159E-04 Eh
   gradient norm :     0.0010942 Eh/α   predicted    -0.1606810E-04 ( -23.31%)
   displ. norm   :     0.2444686 α      lambda       -0.2620151E-04
   maximum displ.:     0.1519852 α      in ANC's #2, #7, #4, ...

........................................................................
.............................. CYCLE   12 ..............................
........................................................................

 iter      E             dE          RMSdq      gap      omega  full diag
   1    -37.2858947 -0.372859E+02  0.795E-02    3.28       0.0  T
   2    -37.2858955 -0.804907E-06  0.416E-02    3.28       1.0  T
   3    -37.2858945  0.996520E-06  0.963E-03    3.28       2.1  T
   4    -37.2858959 -0.133138E-05  0.432E-03    3.28       4.6  T
   5    -37.2858959 -0.263240E-07  0.195E-03    3.28      10.3  T
   6    -37.2858959 -0.211758E-07  0.516E-04    3.28      38.7  T
   7    -37.2858959 -0.750717E-09  0.364E-04    3.28      55.0  T
     SCC iter.                  ...        0 min,  0.006 sec
     gradient                   ...        0 min,  0.003 sec
 * total energy  :   -36.8467332 Eh     change       -0.1739648E-04 Eh
   gradient norm :     0.0034154 Eh/α   predicted    -0.1345185E-04 ( -22.67%)
   displ. norm   :     0.0712013 α      lambda       -0.3512981E-04
   maximum displ.:     0.0482454 α      in ANC's #1, #4, #6, ...

........................................................................
.............................. CYCLE   13 ..............................
........................................................................

 iter      E             dE          RMSdq      gap      omega  full diag
   1    -37.2868599 -0.372869E+02  0.221E-02    3.28       0.0  T
   2    -37.2868600 -0.148228E-06  0.118E-02    3.28       1.7  T
   3    -37.2868600  0.423554E-07  0.256E-03    3.28       7.8  T
   4    -37.2868600 -0.556361E-07  0.147E-03    3.28      13.6  T
   5    -37.2868600 -0.122101E-07  0.714E-04    3.28      28.0  T
   6    -37.2868600 -0.531351E-09  0.333E-04    3.28      60.0  T
     SCC iter.                  ...        0 min,  0.005 sec
     gradient                   ...        0 min,  0.003 sec
 * total energy  :   -36.8467598 Eh     change       -0.2653464E-04 Eh
   gradient norm :     0.0025894 Eh/α   predicted    -0.1765487E-04 ( -33.46%)
   displ. norm   :     0.1210821 α      lambda       -0.3906982E-04
   maximum displ.:     0.0763860 α      in ANC's #1, #4, #7, ...

........................................................................
.............................. CYCLE   14 ..............................
........................................................................

 iter      E             dE          RMSdq      gap      omega  full diag
   1    -37.2872699 -0.372873E+02  0.366E-02    3.29       0.0  T
   2    -37.2872700 -0.166139E-06  0.195E-02    3.29       1.0  T
   3    -37.2872698  0.236816E-06  0.485E-03    3.29       4.1  T
   4    -37.2872701 -0.297115E-06  0.207E-03    3.29       9.6  T
   5    -37.2872701 -0.119522E-07  0.800E-04    3.29      25.0  T
   6    -37.2872701 -0.210907E-08  0.392E-04    3.29      51.0  T
     SCC iter.                  ...        0 min,  0.005 sec
     gradient                   ...        0 min,  0.003 sec
 * total energy  :   -36.8467903 Eh     change       -0.3056526E-04 Eh
   gradient norm :     0.0019508 Eh/α   predicted    -0.1982442E-04 ( -35.14%)
   displ. norm   :     0.2687880 α      lambda       -0.3647337E-04
   maximum displ.:     0.1573003 α      in ANC's #1, #4, #7, ...

........................................................................
.............................. CYCLE   15 ..............................
........................................................................

 iter      E             dE          RMSdq      gap      omega  full diag
   1    -37.2862262 -0.372862E+02  0.792E-02    3.29       0.0  T
   2    -37.2862272 -0.952849E-06  0.422E-02    3.29       1.0  T
   3    -37.2862261  0.111469E-05  0.109E-02    3.30       1.8  T
   4    -37.2862274 -0.138632E-05  0.461E-03    3.29       4.3  T
   5    -37.2862275 -0.660585E-07  0.189E-03    3.29      10.6  T
   6    -37.2862275 -0.594493E-08  0.863E-04    3.29      23.2  T
   7    -37.2862275 -0.245630E-08  0.636E-04    3.29      31.4  T
     SCC iter.                  ...        0 min,  0.005 sec
     gradient                   ...        0 min,  0.003 sec
 * total energy  :   -36.8468198 Eh     change       -0.2945504E-04 Eh
   gradient norm :     0.0018983 Eh/α   predicted    -0.1882259E-04 ( -36.10%)
   displ. norm   :     0.0607285 α      lambda       -0.1601994E-04
   maximum displ.:     0.0467973 α      in ANC's #1, #2, #3, ...

........................................................................
.............................. CYCLE   16 ..............................
........................................................................

 iter      E             dE          RMSdq      gap      omega  full diag
   1    -37.2876900 -0.372877E+02  0.325E-02    3.30       0.0  T
   2    -37.2876905 -0.429173E-06  0.165E-02    3.30       1.2  T
   3    -37.2876902  0.267791E-06  0.472E-03    3.30       4.2  T
   4    -37.2876906 -0.361170E-06  0.176E-03    3.30      11.4  T
   5    -37.2876906 -0.121373E-07  0.935E-04    3.30      21.4  T
   6    -37.2876906 -0.523883E-09  0.476E-04    3.30      42.0  T
     SCC iter.                  ...        0 min,  0.005 sec
     gradient                   ...        0 min,  0.003 sec
 * total energy  :   -36.8468276 Eh     change       -0.7824119E-05 Eh
   gradient norm :     0.0021143 Eh/α   predicted    -0.8023639E-05 (   2.55%)
   displ. norm   :     0.0480621 α      lambda       -0.1153709E-04
   maximum displ.:     0.0249873 α      in ANC's #1, #2, #4, ...

........................................................................
.............................. CYCLE   17 ..............................
........................................................................

 iter      E             dE          RMSdq      gap      omega  full diag
   1    -37.2873939 -0.372874E+02  0.159E-02    3.30       0.0  T
   2    -37.2873939 -0.652569E-07  0.853E-03    3.30       2.3  T
   3    -37.2873938  0.100314E-06  0.298E-03    3.30       6.7  T
   4    -37.2873939 -0.127554E-06  0.110E-03    3.30      18.2  T
   5    -37.2873939 -0.203862E-08  0.609E-04    3.30      32.8  T
   6    -37.2873940 -0.598753E-09  0.344E-04    3.30      58.1  T
     SCC iter.                  ...        0 min,  0.005 sec
     gradient                   ...        0 min,  0.003 sec
 * total energy  :   -36.8468372 Eh     change       -0.9580838E-05 Eh
   gradient norm :     0.0012479 Eh/α   predicted    -0.5782315E-05 ( -39.65%)
   displ. norm   :     0.1107262 α      lambda       -0.1449140E-04
   maximum displ.:     0.0596602 α      in ANC's #1, #2, #4, ...

........................................................................
.............................. CYCLE   18 ..............................
........................................................................

 iter      E             dE          RMSdq      gap      omega  full diag
   1    -37.2867168 -0.372867E+02  0.345E-02    3.29       0.0  T
   2    -37.2867172 -0.340091E-06  0.184E-02    3.30       1.1  T
   3    -37.2867166  0.582807E-06  0.697E-03    3.29       2.9  T
   4    -37.2867174 -0.753455E-06  0.253E-03    3.30       7.9  T
   5    -37.2867174 -0.112821E-07  0.142E-03    3.30      14.1  T
   6    -37.2867174 -0.428535E-08  0.764E-04    3.29      26.2  T
   7    -37.2867174 -0.111375E-08  0.523E-04    3.30      38.2  T
     SCC iter.                  ...        0 min,  0.005 sec
     gradient                   ...        0 min,  0.003 sec
 * total energy  :   -36.8468483 Eh     change       -0.1105965E-04 Eh
   gradient norm :     0.0012148 Eh/α   predicted    -0.7287838E-05 ( -34.10%)
   displ. norm   :     0.0312016 α      lambda       -0.4623768E-05
   maximum displ.:     0.0277093 α      in ANC's #1, #5, #11, ...

........................................................................
.............................. CYCLE   19 ..............................
........................................................................

 iter      E             dE          RMSdq      gap      omega  full diag
   1    -37.2869894 -0.372870E+02  0.107E-02    3.30       0.0  T
   2    -37.2869895 -0.227663E-07  0.607E-03    3.30       3.3  T
   3    -37.2869894  0.915995E-07  0.282E-03    3.30       7.1  T
   4    -37.2869895 -0.115479E-06  0.116E-03    3.30      17.3  T
   5    -37.2869895 -0.126330E-08  0.730E-04    3.30      27.4  T
   6    -37.2869895 -0.111837E-08  0.373E-04    3.30      53.6  T
     SCC iter.                  ...        0 min,  0.005 sec
     gradient                   ...        0 min,  0.003 sec
 * total energy  :   -36.8468540 Eh     change       -0.5768925E-05 Eh
   gradient norm :     0.0007365 Eh/α   predicted    -0.2314070E-05 ( -59.89%)
   displ. norm   :     0.0467704 α      lambda       -0.6319186E-05
   maximum displ.:     0.0407479 α      in ANC's #1, #11, #6, ...

........................................................................
.............................. CYCLE   20 ..............................
........................................................................

 iter      E             dE          RMSdq      gap      omega  full diag
   1    -37.2873713 -0.372874E+02  0.173E-02    3.30       0.0  T
   2    -37.2873713 -0.526065E-07  0.894E-03    3.30       2.2  T
   3    -37.2873713  0.591207E-07  0.237E-03    3.30       8.4  T
   4    -37.2873713 -0.767687E-07  0.867E-04    3.30      23.1  T
   5    -37.2873713 -0.133166E-08  0.424E-04    3.30      47.2  T
     SCC iter.                  ...        0 min,  0.004 sec
     gradient                   ...        0 min,  0.003 sec
 * total energy  :   -36.8468611 Eh     change       -0.7062026E-05 Eh
   gradient norm :     0.0005691 Eh/α   predicted    -0.3165031E-05 ( -55.18%)
   displ. norm   :     0.0431086 α      lambda       -0.3944584E-05
   maximum displ.:     0.0382618 α      in ANC's #1, #3, #2, ...
 * RMSD in coord.:     0.3792695 α      energy gain  -0.5216956E-02 Eh

generating ANC from exact Hessian ...
Using Lindh-Hessian (1995)
 Shifting diagonal of input Hessian by    9.3297753107764395E-003
 Lowest  eigenvalues of input Hessian
    0.000000    0.000000    0.000000    0.000000    0.000000    0.000000
    0.010000    0.010506    0.011293    0.011804    0.014478    0.015818
    0.016228    0.018162    0.019149    0.020085    0.023016    0.024833
 Highest eigenvalues
    1.283976    1.428692    1.776174    1.873571    2.111114    2.209402


........................................................................
.............................. CYCLE   21 ..............................
........................................................................

 iter      E             dE          RMSdq      gap      omega  full diag
   1    -37.2874300 -0.372874E+02  0.856E-03    3.30       0.0  T
   2    -37.2874300 -0.148779E-07  0.495E-03    3.30       4.0  T
   3    -37.2874300  0.159074E-07  0.137E-03    3.30      14.6  T
   4    -37.2874300 -0.196859E-07  0.543E-04    3.30      36.9  T
   5    -37.2874300 -0.123638E-08  0.339E-04    3.30      59.0  T
     SCC iter.                  ...        0 min,  0.004 sec
     gradient                   ...        0 min,  0.003 sec
 * total energy  :   -36.8468663 Eh     change       -0.5162324E-05 Eh
   gradient norm :     0.0008084 Eh/α   predicted     0.0000000E+00 (-100.00%)
   displ. norm   :     0.0215735 α      lambda       -0.6806522E-06
   maximum displ.:     0.0186640 α      in ANC's #1, #2, #5, ...

........................................................................
.............................. CYCLE   22 ..............................
........................................................................

 iter      E             dE          RMSdq      gap      omega  full diag
   1    -37.2870259 -0.372870E+02  0.844E-03    3.30       0.0  T
   2    -37.2870259 -0.264599E-07  0.464E-03    3.30       4.3  T
   3    -37.2870259  0.447306E-07  0.213E-03    3.30       9.4  T
   4    -37.2870259 -0.590572E-07  0.961E-04    3.30      20.8  T
   5    -37.2870259 -0.129150E-08  0.630E-04    3.30      31.8  T
     SCC iter.                  ...        0 min,  0.004 sec
     gradient                   ...        0 min,  0.003 sec
 * total energy  :   -36.8468700 Eh     change       -0.3749047E-05 Eh
   gradient norm :     0.0003013 Eh/α   predicted    -0.1659062E-05 ( -55.75%)
   displ. norm   :     0.0342841 α      lambda       -0.3417520E-05
   maximum displ.:     0.0276027 α      in ANC's #1, #2, #5, ...

   *** GEOMETRY OPTIMIZATION CONVERGED AFTER 22 ITERATIONS ***

------------------------------------------------------------------------
 total energy gain   :        -0.0052259 Eh       -3.2793 kcal/mol
 total RMSD          :         0.3800185 a0        0.2011 Å
 total power (kW/mol):        -0.6236597 (step)  -57.1356 (real)
------------------------------------------------------------------------

 ANCopt (total)                0 d,  0 h,  0 min,  0.240 sec
 optimizer setup                ...        0 min,  0.000 sec (  0.038%)
 model hessian                  ...        0 min,  0.020 sec (  8.471%)
 ANC generation                 ...        0 min,  0.001 sec (  0.326%)
 coordinate transformation      ...        0 min,  0.000 sec (  0.068%)
 single point calculation       ...        0 min,  0.215 sec ( 89.325%)
 optimization log               ...        0 min,  0.002 sec (  0.636%)
 hessian update                 ...        0 min,  0.000 sec (  0.123%)
 rational function              ...        0 min,  0.002 sec (  0.681%)

================
 final structure:
================
25
 xtb: 6.7.1 (edcfbbe)
C            1.31808348573582        0.09120870579237       -0.22001575638724
C            0.41703181800022       -1.12801514965959       -0.37159314823487
C            0.77336744501526       -2.25611470605872        0.59906526161463
C            0.31214309910849       -1.99758603158853        2.03784035296994
N           -1.13355865484411       -1.99996912162927        2.13243550348644
C           -1.89874189993383       -3.08270464436061        1.99271266706518
N           -3.18521258989733       -2.74984687452321        2.06770859885822
C           -4.31003692814806       -3.63904125634087        1.96286400605744
C           -3.25525109562278       -1.39766504899351        2.26251916096941
I           -5.02711468157945       -0.33367745528703        2.44861721688044
C           -1.96167875966703       -0.92398052289467        2.30154815622797
I           -1.36423138084957        1.04083728005092        2.59931405228001
H            1.25179826922116        0.52653243829650        0.77403877388387
H            1.03263594674669        0.85435564664878       -0.93817068861389
H            2.35377303018130       -0.17938319718124       -0.40702110578489
H           -0.62930105819770       -0.83643353421561       -0.24271285978840
H            0.52071129601724       -1.51021845050099       -1.38771628743007
H            0.33922887616338       -3.19549638470902        0.25102706589329
H            1.85633652494307       -2.37952594246458        0.61754149531949
H            0.69796075914595       -2.77709478388279        2.69877510090862
H            0.67678600508543       -1.03017782342880        2.38507202147370
H           -1.52791453691348       -4.07957142186089        1.84973013938287
H           -3.95806252264400       -4.65879190052812        1.82598110683466
H           -4.91698537687796       -3.58378182765890        2.86803421360285
H           -4.93354707018876       -3.35410799302108        1.11354495253070

 Bond Distances (Angstroems)
 ---------------------------
C1-C2=1.5236         C1-H13=1.0872        C1-H14=1.0861        C1-H15=1.0867        C2-C1=1.5236         C2-C3=1.5303         
C2-H16=1.0938        C2-H17=1.0906        C3-C2=1.5303         C3-C4=1.5329         C3-H18=1.0918        C3-H19=1.0901        
C4-C3=1.5329         C4-N5=1.4488         C4-H20=1.0924        C4-H21=1.0906        N5-C4=1.4488         N5-C6=1.3332         
N5-C11=1.3683        C6-N5=1.3332         C6-N7=1.3309         C6-H22=1.0732        N7-C6=1.3309         N7-C8=1.4377         
N7-C9=1.3679         C8-N7=1.4377         C8-H23=1.0874        C8-H24=1.0912        C8-H25=1.0915        C9-N7=1.3679         
C9-I10=2.0751        C9-C11=1.3781        I10-C9=2.0751        C11-N5=1.3683        C11-C9=1.3781        C11-I12=2.0751       
I12-C11=2.0751       H13-C1=1.0872        H14-C1=1.0861        H15-C1=1.0867        H16-C2=1.0938        H17-C2=1.0906        
H18-C3=1.0918        H19-C3=1.0901        H20-C4=1.0924        H21-C4=1.0906        H22-C6=1.0732        H23-C8=1.0874        
H24-C8=1.0912        H25-C8=1.0915        
 C  H  Rav=1.0887 sigma=0.0050  Rmin=1.0732  Rmax=1.0938    13
 C  C  Rav=1.4912 sigma=0.0654  Rmin=1.3781  Rmax=1.5329     4
 N  C  Rav=1.3811 sigma=0.0464  Rmin=1.3309  Rmax=1.4488     6
 I  C  Rav=2.0751 sigma=0.0000  Rmin=2.0751  Rmax=2.0751     2

 selected bond angles (degree)
 --------------------
H13-C1-C2=112.04               H14-C1-C2=109.94               H14-C1-H13=107.89              H15-C1-C2=110.32               
H15-C1-H13=108.37              H15-C1-H14=108.16              C3-C2-C1=112.90                H16-C2-C1=109.92               
H16-C2-C3=110.15               H17-C2-C1=108.48               H17-C2-C3=108.09               H17-C2-H16=107.11              
C4-C3-C2=113.64                H18-C3-C2=109.85               H18-C3-C4=108.95               H19-C3-C2=109.00               
H19-C3-C4=107.58               H19-C3-H18=107.64              N5-C4-C3=111.18                H20-C4-C3=109.95               
H20-C4-N5=108.16               H21-C4-C3=110.36               H21-C4-N5=108.32               H21-C4-H20=108.80              
C6-N5-C4=124.56                C11-N5-C4=127.64               C11-N5-C6=107.71               N7-C6-N5=110.23                
H22-C6-N5=124.75               H22-C6-N7=125.02               C8-N7-C6=126.69                C9-N7-C6=107.74                
C9-N7-C8=125.57                H23-C8-N7=109.63               H24-C8-N7=110.08               H24-C8-H23=109.39              
H25-C8-N7=110.01               H25-C8-H23=109.38              H25-C8-H24=108.33              I10-C9-N7=124.29               
C11-C9-N7=107.20               C11-C9-I10=128.51              

 selected dihedral angles (degree)
 ---------------------------------
C3-C2-C1-H13=299.20           C3-C2-C1-H14=179.24           C3-C2-C1-H15= 60.04           H16-C2-C1-H13= 62.63          
H16-C2-C1-H14=302.66          H16-C2-C1-H15=183.46          H17-C2-C1-H13=179.43          H17-C2-C1-H14= 59.47          
H17-C2-C1-H15=300.27          C4-C3-C2-C1= 75.84            C4-C3-C2-H16=312.55           C4-C3-C2-H17=195.83           
H18-C3-C2-C1=198.17           H18-C3-C2-H16= 74.87          H18-C3-C2-H17=318.16          H19-C3-C2-C1=315.88           
H19-C3-C2-H16=192.58          H19-C3-C2-H17= 75.87          N5-C4-C3-C2= 66.94            N5-C4-C3-H18=304.12           
N5-C4-C3-H19=187.70           H20-C4-C3-C2=186.70           H20-C4-C3-H18= 63.88          H20-C4-C3-H19=307.46          
H21-C4-C3-C2=306.72           H21-C4-C3-H18=183.90          H21-C4-C3-H19= 67.49          C6-N5-C4-C3= 69.61            
C6-N5-C4-H20=308.79           C6-N5-C4-H21=191.02           C11-N5-C4-C3=253.47           C11-N5-C4-H20=132.65          
C11-N5-C4-H21= 14.88          N7-C6-N5-C4=183.07            N7-C6-N5-C11=359.86           H22-C6-N5-C4=  3.60           
H22-C6-N5-C11=180.40          C8-N7-C6-N5=179.97            C8-N7-C6-H22=359.44           C9-N7-C6-N5=  0.06            
C9-N7-C6-H22=179.52           H23-C8-N7-C6=  0.98           H23-C8-N7-C9=180.88           H24-C8-N7-C6=121.35           
H24-C8-N7-C9=301.26           H25-C8-N7-C6=240.67           H25-C8-N7-C9= 60.57           I10-C9-N7-C6=179.88           
I10-C9-N7-C8=359.96           C11-C9-N7-C6=  0.05           C11-C9-N7-C8=180.13           
           -------------------------------------------------
          |                Final Singlepoint                |
           -------------------------------------------------

          ...................................................
          :                      SETUP                      :
          :.................................................:
          :  # basis functions                  73          :
          :  # atomic orbitals                  71          :
          :  # shells                           39          :
          :  # electrons                        68          :
          :  max. iterations                   250          :
          :  Hamiltonian                  GFN2-xTB          :
          :  restarted?                      false          :
          :  GBSA solvation                  false          :
          :  PC potential                    false          :
          :  electronic temp.          300.0000000     K    :
          :  accuracy                    1.0000000          :
          :  -> integral cutoff          0.2500000E+02      :
          :  -> integral neglect         0.1000000E-07      :
          :  -> SCF convergence          0.1000000E-05 Eh   :
          :  -> wf. convergence          0.1000000E-03 e    :
          :  Broyden damping             0.4000000          :
          :  net charge                          1          :
          :  unpaired electrons                  0          :
          ...................................................

 iter      E             dE          RMSdq      gap      omega  full diag
   1    -37.2870259 -0.372870E+02  0.313E-04    3.30       0.0  T
   2    -37.2870259 -0.143622E-09  0.233E-04    3.30      85.9  T
   3    -37.2870259 -0.668976E-10  0.202E-04    3.30      98.9  T

   *** convergence criteria satisfied after 3 iterations ***

         #    Occupation            Energy/Eh            Energy/eV
      -------------------------------------------------------------
         1        2.0000           -0.9158355             -24.9212
       ...           ...                  ...                  ...
        28        2.0000           -0.5696320             -15.5005
        29        2.0000           -0.5675094             -15.4427
        30        2.0000           -0.5652375             -15.3809
        31        2.0000           -0.5603231             -15.2472
        32        2.0000           -0.5540996             -15.0778
        33        2.0000           -0.5492615             -14.9462
        34        2.0000           -0.5464767             -14.8704 (HOMO)
        35                         -0.4253441             -11.5742 (LUMO)
        36                         -0.4011678             -10.9163
        37                         -0.3882091             -10.5637
        38                         -0.3872971             -10.5389
        39                         -0.2123150              -5.7774
       ...                                ...                  ...
        71                          0.3601168               9.7993
      -------------------------------------------------------------
                  HL-Gap            0.1211327 Eh            3.2962 eV
             Fermi-level           -0.4859104 Eh          -13.2223 eV

 SCC (total)                   0 d,  0 h,  0 min,  0.007 sec
 SCC setup                      ...        0 min,  0.000 sec (  0.815%)
 Dispersion                     ...        0 min,  0.000 sec (  1.370%)
 classical contributions        ...        0 min,  0.000 sec (  0.207%)
 integral evaluation            ...        0 min,  0.001 sec ( 18.024%)
 iterations                     ...        0 min,  0.002 sec ( 33.721%)
 molecular gradient             ...        0 min,  0.003 sec ( 44.617%)
 printout                       ...        0 min,  0.000 sec (  1.047%)

         :::::::::::::::::::::::::::::::::::::::::::::::::::::
         ::                     SUMMARY                     ::
         :::::::::::::::::::::::::::::::::::::::::::::::::::::
         :: total energy             -36.846870005776 Eh    ::
         :: gradient norm              0.000299888878 Eh/a0 ::
         :: HOMO-LUMO gap              3.296187472971 eV    ::
         ::.................................................::
         :: SCC energy               -37.286791044793 Eh    ::
         :: -> isotropic ES            0.083161162145 Eh    ::
         :: -> anisotropic ES         -0.002252907850 Eh    ::
         :: -> anisotropic XC          0.020736159974 Eh    ::
         :: -> dispersion             -0.026274461398 Eh    ::
         :: repulsion energy           0.439921039018 Eh    ::
         :: add. restraining           0.000000000000 Eh    ::
         :: total charge               1.000000000000 e     ::
         :::::::::::::::::::::::::::::::::::::::::::::::::::::

           -------------------------------------------------
          |                Property Printout                |
           -------------------------------------------------

    * Orbital Energies and Occupations

         #    Occupation            Energy/Eh            Energy/eV
      -------------------------------------------------------------
         1        2.0000           -0.9158355             -24.9212
       ...           ...                  ...                  ...
        22        2.0000           -0.6467152             -17.5980
        23        2.0000           -0.6272248             -17.0677
        24        2.0000           -0.6230824             -16.9549
        25        2.0000           -0.6180443             -16.8178
        26        2.0000           -0.6021576             -16.3855
        27        2.0000           -0.5946972             -16.1825
        28        2.0000           -0.5696320             -15.5005
        29        2.0000           -0.5675094             -15.4427
        30        2.0000           -0.5652375             -15.3809
        31        2.0000           -0.5603231             -15.2472
        32        2.0000           -0.5540996             -15.0778
        33        2.0000           -0.5492615             -14.9462
        34        2.0000           -0.5464767             -14.8704 (HOMO)
        35                         -0.4253441             -11.5742 (LUMO)
        36                         -0.4011678             -10.9163
        37                         -0.3882091             -10.5637
        38                         -0.3872971             -10.5389
        39                         -0.2123150              -5.7774
        40                         -0.1647663              -4.4835
        41                         -0.1538739              -4.1871
        42                         -0.1492321              -4.0608
        43                         -0.1402878              -3.8174
        44                         -0.1356249              -3.6905
        45                         -0.1280975              -3.4857
       ...                                ...                  ...
        71                          0.3601168               9.7993
      -------------------------------------------------------------
                  HL-Gap            0.1211327 Eh            3.2962 eV
             Fermi-level           -0.4859104 Eh          -13.2223 eV

     #   Z          covCN         q      C6AA      α(0)
     1   6 C        3.752    -0.117    22.806     6.810
     2   6 C        3.800    -0.059    21.631     6.622
     3   6 C        3.802    -0.073    21.885     6.660
     4   6 C        3.743    -0.027    21.134     6.558
     5   7 N        2.913     0.049    20.374     6.704
     6   6 C        3.090     0.047    26.845     8.493
     7   7 N        2.922     0.056    20.254     6.684
     8   6 C        3.697    -0.085    22.298     6.754
     9   6 C        3.181     0.058    26.278     8.368
    10  53 I        1.234     0.027   369.971    33.204
    11   6 C        3.164     0.063    26.267     8.376
    12  53 I        1.231     0.028   369.907    33.201
    13   1 H        0.925     0.042     2.417     2.431
    14   1 H        0.925     0.058     2.228     2.334
    15   1 H        0.925     0.054     2.271     2.357
    16   1 H        0.924     0.025     2.656     2.549
    17   1 H        0.924     0.059     2.212     2.326
    18   1 H        0.924     0.049     2.334     2.389
    19   1 H        0.925     0.084     1.942     2.179
    20   1 H        0.924     0.089     1.887     2.148
    21   1 H        0.925     0.107     1.721     2.052
    22   1 H        0.926     0.125     1.575     1.962
    23   1 H        0.925     0.107     1.726     2.054
    24   1 H        0.924     0.117     1.638     2.002
    25   1 H        0.924     0.117     1.639     2.002

 Mol. C6AA /au·bohr⁶  :      10913.406420
 Mol. C8AA /au·bohr⁸  :     465367.392219
 Mol. α(0) /au        :        167.220484


Wiberg/Mayer (AO) data.
largest (>0.10) Wiberg bond orders for each atom

 ---------------------------------------------------------------------------
     #   Z sym  total        # sym  WBO       # sym  WBO       # sym  WBO
 ---------------------------------------------------------------------------
     1   6 C    3.992 --     2 C    1.021    15 H    0.985    14 H    0.984
                            13 H    0.980
     2   6 C    3.994 --     1 C    1.021     3 C    1.007    16 H    0.975
                            17 H    0.973
     3   6 C    3.981 --     2 C    1.007     4 C    0.982    18 H    0.974
                            19 H    0.965
     4   6 C    3.920 --     3 C    0.982    20 H    0.958     5 N    0.957
                            21 H    0.953
     5   7 N    3.701 --     6 C    1.345    11 C    1.204     4 C    0.957
     6   6 C    3.940 --     7 N    1.347     5 N    1.345    22 H    0.949
     7   7 N    3.706 --     6 C    1.347     9 C    1.200     8 C    0.986
     8   6 C    3.921 --     7 N    0.986    23 H    0.972    24 H    0.957
                            25 H    0.957
     9   6 C    3.941 --    11 C    1.472     7 N    1.200    10 I    1.057
    10  53 I    1.230 --     9 C    1.057
    11   6 C    3.945 --     9 C    1.472     5 N    1.204    12 I    1.056
    12  53 I    1.254 --    11 C    1.056
    13   1 H    0.998 --     1 C    0.980
    14   1 H    0.997 --     1 C    0.984
    15   1 H    0.997 --     1 C    0.985
    16   1 H    0.999 --     2 C    0.975
    17   1 H    0.997 --     2 C    0.973
    18   1 H    0.998 --     3 C    0.974
    19   1 H    0.992 --     3 C    0.965
    20   1 H    0.991 --     4 C    0.958
    21   1 H    0.988 --     4 C    0.953
    22   1 H    0.984 --     6 C    0.949
    23   1 H    0.988 --     8 C    0.972
    24   1 H    0.986 --     8 C    0.957
    25   1 H    0.986 --     8 C    0.957
 ---------------------------------------------------------------------------

Topologies differ in total number of bonds
Writing topology from bond orders to xtbtopo.mol

molecular dipole:
                 x           y           z       tot (Debye)
 q only:       -3.575      -4.750       3.463
   full:       -3.675      -4.874       3.576      17.981
molecular quadrupole (traceless):
                xx          xy          yy          xz          yz          zz
 q only:        8.469      33.110       7.136     -22.384     -25.543     -15.605
  q+dip:        5.171      31.214       8.297     -22.945     -26.397     -13.468
   full:        5.201      31.245       8.985     -23.031     -26.281     -14.186

           -------------------------------------------------
          |                Geometry Summary                 |
           -------------------------------------------------

      molecular mass/u    :      391.0114672
   center of mass at/Å    :       -2.5120226      -0.4484778       2.1427165
  moments of inertia/u·Å² :        0.9319884E+03   0.1901073E+04   0.2569984E+04
rotational constants/cm⁻¹ :        0.1808781E-01   0.8867428E-02   0.6559432E-02

 * 25 selected distances

     #   Z          #   Z                                           value/Å
     1   6 C        2   6 C                                       1.5236066
     2   6 C        3   6 C                                       1.5302816
     3   6 C        4   6 C                                       1.5328533
     4   6 C        5   7 N                                       1.4487953
     5   7 N        6   6 C                                       1.3331708
     6   6 C        7   7 N                                       1.3309492
     7   7 N        8   6 C                                       1.4376680
     7   7 N        9   6 C                                       1.3679373
     9   6 C       10  53 I                                       2.0751394 (max)
     5   7 N       11   6 C                                       1.3682594
     9   6 C       11   6 C                                       1.3781256
    11   6 C       12  53 I                                       2.0751187
     1   6 C       13   1 H                                       1.0872190
     1   6 C       14   1 H                                       1.0861033
     1   6 C       15   1 H                                       1.0866665
     2   6 C       16   1 H                                       1.0938202
     2   6 C       17   1 H                                       1.0905665
     3   6 C       18   1 H                                       1.0918082
     3   6 C       19   1 H                                       1.0901348
     4   6 C       20   1 H                                       1.0923938
     4   6 C       21   1 H                                       1.0906022
     6   6 C       22   1 H                                       1.0731731 (min)
     8   6 C       23   1 H                                       1.0874348
     8   6 C       24   1 H                                       1.0912256
     8   6 C       25   1 H                                       1.0914646

 * 4 distinct bonds (by element types)

   Z      Z             #   av. dist./Å        max./Å        min./Å
   1 H    6 C          13     1.0886625     1.0938202     1.0731731
   6 C    6 C           4     1.4912168     1.5328533     1.3781256
   6 C    7 N           6     1.3811300     1.4487953     1.3309492
   6 C   53 I           2     2.0751291     2.0751394     2.0751187


optimized geometry written to: xtbopt.xyz


           -------------------------------------------------
          | TOTAL ENERGY              -36.846870005776 Eh   |
          | GRADIENT NORM               0.000299888878 Eh/α |
          | HOMO-LUMO GAP               3.296187472971 eV   |
           -------------------------------------------------

------------------------------------------------------------------------
 * finished run on 2024/12/20 at 07:06:08.841     
------------------------------------------------------------------------
 total:
 * wall-time:     0 d,  0 h,  0 min,  0.283 sec
 *  cpu-time:     0 d,  0 h,  0 min,  2.241 sec
 * ratio c/w:     7.929 speedup
 SCF:
 * wall-time:     0 d,  0 h,  0 min,  0.018 sec
 *  cpu-time:     0 d,  0 h,  0 min,  0.142 sec
 * ratio c/w:     7.909 speedup
 ANC optimizer:
 * wall-time:     0 d,  0 h,  0 min,  0.248 sec
 *  cpu-time:     0 d,  0 h,  0 min,  1.981 sec
 * ratio c/w:     7.983 speedup

