25
 energy: -36.846870005776 gnorm: 0.000299888878 xtb: 6.7.1 (edcfbbe)
C            1.31808348573582        0.09120870579237       -0.22001575638724
C            0.41703181800022       -1.12801514965959       -0.37159314823487
C            0.77336744501526       -2.25611470605872        0.59906526161463
C            0.31214309910849       -1.99758603158853        2.03784035296994
N           -1.13355865484411       -1.99996912162927        2.13243550348644
C           -1.89874189993383       -3.08270464436061        1.99271266706518
N           -3.18521258989733       -2.74984687452321        2.06770859885822
C           -4.31003692814806       -3.63904125634087        1.96286400605744
C           -3.25525109562278       -1.39766504899351        2.26251916096941
I           -5.02711468157945       -0.33367745528703        2.44861721688044
C           -1.96167875966703       -0.92398052289467        2.30154815622797
I           -1.36423138084957        1.04083728005092        2.59931405228001
H            1.25179826922116        0.52653243829650        0.77403877388387
H            1.03263594674669        0.85435564664878       -0.93817068861389
H            2.35377303018130       -0.17938319718124       -0.40702110578489
H           -0.62930105819770       -0.83643353421561       -0.24271285978840
H            0.52071129601724       -1.51021845050099       -1.38771628743007
H            0.33922887616338       -3.19549638470902        0.25102706589329
H            1.85633652494307       -2.37952594246458        0.61754149531949
H            0.69796075914595       -2.77709478388279        2.69877510090862
H            0.67678600508543       -1.03017782342880        2.38507202147370
H           -1.52791453691348       -4.07957142186089        1.84973013938287
H           -3.95806252264400       -4.65879190052812        1.82598110683466
H           -4.91698537687796       -3.58378182765890        2.86803421360285
H           -4.93354707018876       -3.35410799302108        1.11354495253070
