      -----------------------------------------------------------      
     |                   =====================                   |     
     |                           x T B                           |     
     |                   =====================                   |     
     |                         S. Grimme                         |     
     |          Mulliken Center for Theoretical Chemistry        |     
     |                    University of Bonn                     |     
      -----------------------------------------------------------      

   * xtb version 6.7.1 (edcfbbe) compiled by 'conda@3ef47c1a292c' on 2024-11-25

   xtb is free software: you can redistribute it and/or modify it under
   the terms of the GNU Lesser General Public License as published by
   the Free Software Foundation, either version 3 of the License, or
   (at your option) any later version.
   
   xtb is distributed in the hope that it will be useful,
   but WITHOUT ANY WARRANTY; without even the implied warranty of
   MERCHANTABILITY or FITNESS FOR A PARTICULAR PURPOSE.  See the
   GNU Lesser General Public License for more details.
   
   Cite this work as:
   * C. Bannwarth, E. Caldeweyher, S. Ehlert, A. Hansen, P. Pracht,
     J. Seibert, S. Spicher, S. Grimme, WIREs Comput. Mol. Sci., 2020, 11,
     e01493. DOI: 10.1002/wcms.1493
   
   for GFN2-xTB:
   * C. Bannwarth, S. Ehlert and S. Grimme., J. Chem. Theory Comput., 2019,
     15, 1652-1671. DOI: 10.1021/acs.jctc.8b01176
   for GFN1-xTB:
   * S. Grimme, C. Bannwarth, P. Shushkov, J. Chem. Theory Comput., 2017,
     13, 1989-2009. DOI: 10.1021/acs.jctc.7b00118
   for GFN0-xTB:
   * P. Pracht, E. Caldeweyher, S. Ehlert, S. Grimme, ChemRxiv, 2019, preprint.
     DOI: 10.26434/chemrxiv.8326202.v1
   for GFN-FF:
   * S. Spicher and S. Grimme, Angew. Chem. Int. Ed., 2020, 59, 15665-15673.
     DOI: 10.1002/anie.202004239
   
   for ALPB and GBSA implicit solvation:
   * S. Ehlert, M. Stahn, S. Spicher, S. Grimme, J. Chem. Theory Comput.,
     2021, 17, 4250-4261. DOI: 10.1021/acs.jctc.1c00471
   
   for ddCOSMO and CPCM-X implicit solvation:
   * M. Stahn, S. Ehlert, S. Grimme, J. Phys. Chem. A,
     2023, XX, XXXX-XXXX. DOI: 10.1021/acs.jpca.3c04382
   
   for DFT-D4:
   * E. Caldeweyher, C. Bannwarth and S. Grimme, J. Chem. Phys., 2017,
     147, 034112. DOI: 10.1063/1.4993215
   * E. Caldeweyher, S. Ehlert, A. Hansen, H. Neugebauer, S. Spicher,
     C. Bannwarth and S. Grimme, J. Chem. Phys., 2019, 150, 154122.
     DOI: 10.1063/1.5090222
   * E. Caldeweyher, J.-M. Mewes, S. Ehlert and S. Grimme, Phys. Chem. Chem. Phys.
     2020, 22, 8499-8512. DOI: 10.1039/D0CP00502A
   
   for sTDA-xTB:
   * S. Grimme and C. Bannwarth, J. Chem. Phys., 2016, 145, 054103.
     DOI: 10.1063/1.4959605
   
   in the mass-spec context:
   * V. Asgeirsson, C. Bauer and S. Grimme, Chem. Sci., 2017, 8, 4879.
     DOI: 10.1039/c7sc00601b
   * J. Koopman and S. Grimme, ACS Omega 2019, 4, 12, 15120-15133.
     DOI: 10.1021/acsomega.9b02011
   
   for metadynamics refer to:
   * S. Grimme, J. Chem. Theory Comput., 2019, 155, 2847-2862
     DOI: 10.1021/acs.jctc.9b00143
   
   for SPH calculations refer to:
   * S. Spicher and S. Grimme, J. Chem. Theory Comput., 2021, 17, 1701-1714
     DOI: 10.1021/acs.jctc.0c01306
   
   for ONIOM refer to:
   * C. Plett, A. Katbashev, S. Ehlert, S. Grimme, M. Bursch,
     Phys. Chem. Chem. Phys., 2023, 25, 17860-17868. DOI: 10.1039/D3CP02178E
   
   for DIPRO refer to:
   * J. Kohn, N. Gildemeister, S. Grimme, D. Fazzi, A. Hansen,
     J. Chem. Phys., 2023, just accepted.
   
   for PTB refer to:
   * S. Grimme, M. Mueller, A. Hansen, J. Chem. Phys., 2023, 158, 124111.
     DOI: 10.1063/5.0137838
   
   with help from (in alphabetical order)
   P. Atkinson, C. Bannwarth, F. Bohle, G. Brandenburg, E. Caldeweyher
   M. Checinski, S. Dohm, S. Ehlert, S. Ehrlich, I. Gerasimov, C. Hölzer
   A. Katbashev, J. Kohn, J. Koopman, C. Lavigne, S. Lehtola, F. März, M. Müller,
   F. Musil, H. Neugebauer, J. Pisarek, C. Plett, P. Pracht, F. Pultar,
   J. Seibert, P. Shushkov, S. Spicher, M. Stahn, M. Steiner, T. Strunk,
   J. Stückrath, T. Rose, and J. Unsleber
   
 * started run on 2024/12/20 at 07:07:53.596     
   ID    Z sym.   atoms
    1   17 Cl     1
    2   16 S      2
    3    8 O      3, 4
    4    6 C      5-8, 10-27
    5   15 P      9
    6    1 H      28-50

           -------------------------------------------------
          |                Calculation Setup                |
           -------------------------------------------------

          program call               : xtb C0994.xyz --opt --namespace C0994 --charge +1
          calculation namespace      : C0994
          coordinate file            : C0994.xyz
          omp threads                :                     8


           -------------------------------------------------
          |                 G F N 2 - x T B                 |
           -------------------------------------------------

        Reference                      10.1021/acs.jctc.8b01176
      * Hamiltonian:
        H0-scaling (s, p, d)           1.850000    2.230000    2.230000
        zeta-weighting                 0.500000
      * Dispersion:
        s8                             2.700000
        a1                             0.520000
        a2                             5.000000
        s9                             5.000000
      * Repulsion:
        kExp                           1.500000    1.000000
        rExp                           1.000000
      * Coulomb:
        alpha                          2.000000
        third order                    shell-resolved
        anisotropic                    true
        a3                             3.000000
        a5                             4.000000
        cn-shift                       1.200000
        cn-exp                         4.000000
        max-rad                        5.000000


          ...................................................
          :                      SETUP                      :
          :.................................................:
          :  # basis functions                 149          :
          :  # atomic orbitals                 146          :
          :  # shells                           80          :
          :  # electrons                       140          :
          :  max. iterations                   250          :
          :  Hamiltonian                  GFN2-xTB          :
          :  restarted?                      false          :
          :  GBSA solvation                  false          :
          :  PC potential                    false          :
          :  electronic temp.          300.0000000     K    :
          :  accuracy                    1.0000000          :
          :  -> integral cutoff          0.2500000E+02      :
          :  -> integral neglect         0.1000000E-07      :
          :  -> SCF convergence          0.1000000E-05 Eh   :
          :  -> wf. convergence          0.1000000E-03 e    :
          :  Broyden damping             0.4000000          :
          :  net charge                          1          :
          :  unpaired electrons                  0          :
          ...................................................

 iter      E             dE          RMSdq      gap      omega  full diag
   1    -77.8842253 -0.778842E+02  0.490E+00    4.04       0.0  T
   2    -77.9527094 -0.684841E-01  0.294E+00    3.68       1.0  T
   3    -77.9257027  0.270066E-01  0.115E+00    3.82       1.0  T
   4    -77.9641986 -0.384958E-01  0.499E-01    3.77       1.0  T
   5    -77.9700588 -0.586022E-02  0.268E-01    3.91       1.0  T
   6    -77.9716594 -0.160063E-02  0.136E-01    3.92       1.0  T
   7    -77.9717818 -0.122360E-03  0.881E-02    3.92       1.0  T
   8    -77.9718636 -0.817908E-04  0.546E-02    3.91       1.0  T
   9    -77.9719303 -0.667817E-04  0.318E-02    3.92       1.0  T
  10    -77.9719450 -0.146125E-04  0.208E-02    3.93       1.0  T
  11    -77.9719500 -0.502585E-05  0.132E-02    3.93       1.1  T
  12    -77.9719531 -0.309112E-05  0.702E-03    3.93       2.0  T
  13    -77.9719538 -0.744455E-06  0.420E-03    3.93       3.4  T
  14    -77.9719540 -0.228887E-06  0.272E-03    3.93       5.2  T
  15    -77.9719542 -0.134813E-06  0.165E-03    3.93       8.6  T
  16    -77.9719542 -0.417772E-07  0.101E-03    3.93      14.0  T
  17    -77.9719542 -0.146943E-07  0.487E-04    3.93      29.1  T
  18    -77.9719542 -0.567151E-08  0.208E-04    3.93      68.1  T

   *** convergence criteria satisfied after 18 iterations ***

         #    Occupation            Energy/Eh            Energy/eV
      -------------------------------------------------------------
         1        2.0000           -1.1586145             -31.5275
       ...           ...                  ...                  ...
        64        2.0000           -0.5427539             -14.7691
        65        2.0000           -0.5420475             -14.7499
        66        2.0000           -0.5405309             -14.7086
        67        2.0000           -0.5391747             -14.6717
        68        2.0000           -0.5384082             -14.6508
        69        2.0000           -0.5376057             -14.6290
        70        2.0000           -0.5368605             -14.6087 (HOMO)
        71                         -0.3923247             -10.6757 (LUMO)
        72                         -0.3882120             -10.5638
        73                         -0.3717022             -10.1145
        74                         -0.3679550             -10.0126
        75                         -0.3641878              -9.9101
       ...                                ...                  ...
       146                          1.0242254              27.8706
      -------------------------------------------------------------
                  HL-Gap            0.1445358 Eh            3.9330 eV
             Fermi-level           -0.4645926 Eh          -12.6422 eV

 SCC (total)                   0 d,  0 h,  0 min,  0.068 sec
 SCC setup                      ...        0 min,  0.000 sec (  0.273%)
 Dispersion                     ...        0 min,  0.001 sec (  1.137%)
 classical contributions        ...        0 min,  0.000 sec (  0.101%)
 integral evaluation            ...        0 min,  0.006 sec (  8.687%)
 iterations                     ...        0 min,  0.051 sec ( 74.587%)
 molecular gradient             ...        0 min,  0.010 sec ( 14.932%)
 printout                       ...        0 min,  0.000 sec (  0.258%)

         :::::::::::::::::::::::::::::::::::::::::::::::::::::
         ::                     SUMMARY                     ::
         :::::::::::::::::::::::::::::::::::::::::::::::::::::
         :: total energy             -76.854817252160 Eh    ::
         :: gradient norm              0.082691659619 Eh/a0 ::
         :: HOMO-LUMO gap              3.933018260543 eV    ::
         ::.................................................::
         :: SCC energy               -77.970284068372 Eh    ::
         :: -> isotropic ES            0.132894233714 Eh    ::
         :: -> anisotropic ES         -0.020983738597 Eh    ::
         :: -> anisotropic XC          0.035127262733 Eh    ::
         :: -> dispersion             -0.064819091627 Eh    ::
         :: repulsion energy           1.115466816212 Eh    ::
         :: add. restraining           0.000000000000 Eh    ::
         :: total charge               1.000000000000 e     ::
         :::::::::::::::::::::::::::::::::::::::::::::::::::::

      ----------------------------------------------------------- 
     |                   =====================                   |
     |                        A N C O P T                        |
     |                   =====================                   |
     |               Approximate Normal Coordinate               |
     |                Rational Function Optimizer                |
      ----------------------------------------------------------- 
      ----------------------------------------------------------- 
     |                   =====================                   |
     |                        A N C O P T                        |
     |                   =====================                   |
     |               Approximate Normal Coordinate               |
     |                Rational Function Optimizer                |
      ----------------------------------------------------------- 

          ...................................................
          :                      SETUP                      :
          :.................................................:
          :   optimization level            normal          :
          :   max. optcycles                   200          :
          :   ANC micro-cycles                  20          :
          :   degrees of freedom               144          :
          :.................................................:
          :   RF solver                   davidson          :
          :   write xtbopt.log                true          :
          :   linear?                        false          :
          :   energy convergence         0.5000000E-05 Eh   :
          :   grad. convergence          0.1000000E-02 Eh/α :
          :   maxmium RF displ.          1.0000000          :
          :   Hlow (freq-cutoff)         0.1000000E-01      :
          :   Hmax (freq-cutoff)         5.0000000          :
          :   S6 in model hess.         20.0000000          :
          ...................................................

generating ANC from exact Hessian ...
Using Lindh-Hessian (1995)
 Shifting diagonal of input Hessian by    9.7478088599726575E-003
 Lowest  eigenvalues of input Hessian
    0.000000    0.000000    0.000000    0.000000    0.000000    0.000000
    0.010000    0.010054    0.010338    0.010458    0.010570    0.010771
    0.010957    0.011052    0.011182    0.011901    0.012090    0.014109
 Highest eigenvalues
    1.930397    1.938563    1.951502    1.956274    2.307796    3.277208


........................................................................
.............................. CYCLE    1 ..............................
........................................................................

 iter      E             dE          RMSdq      gap      omega  full diag
   1    -77.9719542 -0.779720E+02  0.979E-05    3.93       0.0  T
   2    -77.9719542 -0.646168E-10  0.612E-05    3.93     231.1  T
   3    -77.9719542 -0.403020E-10  0.429E-05    3.93     329.9  T
     SCC iter.                  ...        0 min,  0.010 sec
     gradient                   ...        0 min,  0.010 sec
 * total energy  :   -76.8548173 Eh     change       -0.6412222E-09 Eh
   gradient norm :     0.0826916 Eh/α   predicted     0.0000000E+00 (-100.00%)
   displ. norm   :     0.3517921 α      lambda       -0.1096110E-01
   maximum displ.:     0.1383776 α      in ANC's #23, #12, #17, ...

........................................................................
.............................. CYCLE    2 ..............................
........................................................................

 iter      E             dE          RMSdq      gap      omega  full diag
   1    -78.0172931 -0.780173E+02  0.220E-01    3.93       0.0  T
   2    -78.0174090 -0.115892E-03  0.124E-01    3.94       1.0  T
   3    -78.0174101 -0.111434E-05  0.446E-02    3.95       1.0  T
   4    -78.0174143 -0.414465E-05  0.179E-02    3.95       1.0  T
   5    -78.0174207 -0.637296E-05  0.673E-03    3.95       2.1  T
   6    -78.0174213 -0.611966E-06  0.380E-03    3.95       3.7  T
   7    -78.0174217 -0.416412E-06  0.116E-03    3.95      12.2  T
   8    -78.0174217 -0.913853E-08  0.753E-04    3.95      18.8  T
   9    -78.0174217 -0.101455E-07  0.404E-04    3.95      35.0  T
     SCC iter.                  ...        0 min,  0.026 sec
     gradient                   ...        0 min,  0.010 sec
 * total energy  :   -76.8624831 Eh     change       -0.7665862E-02 Eh
   gradient norm :     0.0392067 Eh/α   predicted    -0.6170652E-02 ( -19.50%)
   displ. norm   :     0.3409609 α      lambda       -0.4058499E-02
   maximum displ.:     0.1739197 α      in ANC's #12, #10, #13, ...

........................................................................
.............................. CYCLE    3 ..............................
........................................................................

 iter      E             dE          RMSdq      gap      omega  full diag
   1    -78.0418413 -0.780418E+02  0.149E-01    3.94       0.0  T
   2    -78.0418827 -0.414450E-04  0.842E-02    3.94       1.0  T
   3    -78.0418805  0.220689E-05  0.284E-02    3.95       1.0  T
   4    -78.0418816 -0.101649E-05  0.142E-02    3.95       1.0  T
   5    -78.0418884 -0.687329E-05  0.607E-03    3.95       2.3  T
   6    -78.0418890 -0.531662E-06  0.417E-03    3.95       3.4  T
   7    -78.0418892 -0.226262E-06  0.293E-03    3.95       4.8  T
   8    -78.0418893 -0.119742E-06  0.206E-03    3.95       6.9  T
   9    -78.0418894 -0.100328E-06  0.890E-04    3.95      15.9  T
  10    -78.0418894 -0.151942E-07  0.486E-04    3.95      29.1  T
     SCC iter.                  ...        0 min,  0.028 sec
     gradient                   ...        0 min,  0.011 sec
 * total energy  :   -76.8650120 Eh     change       -0.2528891E-02 Eh
   gradient norm :     0.0095045 Eh/α   predicted    -0.2265159E-02 ( -10.43%)
   displ. norm   :     0.2925125 α      lambda       -0.1051297E-02
   maximum displ.:     0.1592970 α      in ANC's #12, #10, #8, ...

........................................................................
.............................. CYCLE    4 ..............................
........................................................................

 iter      E             dE          RMSdq      gap      omega  full diag
   1    -78.0436887 -0.780437E+02  0.841E-02    3.95       0.0  T
   2    -78.0436974 -0.869814E-05  0.470E-02    3.95       1.0  T
   3    -78.0436965  0.883969E-06  0.131E-02    3.95       1.1  T
   4    -78.0436978 -0.127164E-05  0.640E-03    3.95       2.2  T
   5    -78.0436989 -0.112104E-05  0.331E-03    3.95       4.3  T
   6    -78.0436990 -0.116754E-06  0.216E-03    3.95       6.5  T
   7    -78.0436991 -0.483876E-07  0.157E-03    3.95       9.0  T
   8    -78.0436991 -0.278241E-07  0.100E-03    3.95      14.1  T
   9    -78.0436991 -0.252732E-07  0.287E-04    3.95      49.2  T
  10    -78.0436991 -0.748784E-09  0.158E-04    3.95      89.8  T
     SCC iter.                  ...        0 min,  0.028 sec
     gradient                   ...        0 min,  0.010 sec
 * total energy  :   -76.8658192 Eh     change       -0.8072264E-03 Eh
   gradient norm :     0.0076704 Eh/α   predicted    -0.5706582E-03 ( -29.31%)
   displ. norm   :     0.4508598 α      lambda       -0.1095216E-02
   maximum displ.:     0.2391070 α      in ANC's #10, #12, #8, ...

........................................................................
.............................. CYCLE    5 ..............................
........................................................................

 iter      E             dE          RMSdq      gap      omega  full diag
   1    -78.0412438 -0.780412E+02  0.125E-01    3.96       0.0  T
   2    -78.0412551 -0.113169E-04  0.685E-02    3.96       1.0  T
   3    -78.0412538  0.126395E-05  0.181E-02    3.96       1.0  T
   4    -78.0412574 -0.356906E-05  0.931E-03    3.96       1.5  T
   5    -78.0412587 -0.128417E-05  0.525E-03    3.96       2.7  T
   6    -78.0412591 -0.433787E-06  0.360E-03    3.96       3.9  T
   7    -78.0412593 -0.142532E-06  0.235E-03    3.96       6.0  T
   8    -78.0412594 -0.101783E-06  0.704E-04    3.96      20.1  T
   9    -78.0412594 -0.654670E-08  0.348E-04    3.96      40.6  T
     SCC iter.                  ...        0 min,  0.025 sec
     gradient                   ...        0 min,  0.010 sec
 * total energy  :   -76.8666498 Eh     change       -0.8305610E-03 Eh
   gradient norm :     0.0089294 Eh/α   predicted    -0.6589269E-03 ( -20.66%)
   displ. norm   :     0.4818914 α      lambda       -0.8661762E-03
   maximum displ.:     0.2429548 α      in ANC's #10, #8, #12, ...

........................................................................
.............................. CYCLE    6 ..............................
........................................................................

 iter      E             dE          RMSdq      gap      omega  full diag
   1    -78.0380455 -0.780380E+02  0.147E-01    3.97       0.0  T
   2    -78.0380597 -0.141843E-04  0.785E-02    3.97       1.0  T
   3    -78.0380596  0.970998E-07  0.221E-02    3.97       1.0  T
   4    -78.0380627 -0.309243E-05  0.113E-02    3.97       1.3  T
   5    -78.0380646 -0.195325E-05  0.651E-03    3.97       2.2  T
   6    -78.0380653 -0.677684E-06  0.449E-03    3.97       3.2  T
   7    -78.0380655 -0.244788E-06  0.291E-03    3.97       4.9  T
   8    -78.0380657 -0.147236E-06  0.844E-04    3.97      16.8  T
   9    -78.0380657 -0.215071E-07  0.451E-04    3.97      31.3  T
     SCC iter.                  ...        0 min,  0.026 sec
     gradient                   ...        0 min,  0.010 sec
 * total energy  :   -76.8673166 Eh     change       -0.6667787E-03 Eh
   gradient norm :     0.0101712 Eh/α   predicted    -0.5336603E-03 ( -19.96%)
   displ. norm   :     0.4563063 α      lambda       -0.7431885E-03
   maximum displ.:     0.2359264 α      in ANC's #8, #10, #12, ...

........................................................................
.............................. CYCLE    7 ..............................
........................................................................

 iter      E             dE          RMSdq      gap      omega  full diag
   1    -78.0374380 -0.780374E+02  0.151E-01    3.97       0.0  T
   2    -78.0374529 -0.148498E-04  0.798E-02    3.97       1.0  T
   3    -78.0374532 -0.358539E-06  0.223E-02    3.97       1.0  T
   4    -78.0374550 -0.182991E-05  0.112E-02    3.97       1.3  T
   5    -78.0374572 -0.219787E-05  0.626E-03    3.97       2.3  T
   6    -78.0374579 -0.623360E-06  0.419E-03    3.97       3.4  T
   7    -78.0374581 -0.189118E-06  0.298E-03    3.97       4.7  T
   8    -78.0374582 -0.142930E-06  0.104E-03    3.97      13.6  T
   9    -78.0374582 -0.361864E-07  0.454E-04    3.97      31.2  T
  10    -78.0374582 -0.497543E-08  0.268E-04    3.97      52.9  T
     SCC iter.                  ...        0 min,  0.028 sec
     gradient                   ...        0 min,  0.010 sec
 * total energy  :   -76.8678626 Eh     change       -0.5460588E-03 Eh
   gradient norm :     0.0133646 Eh/α   predicted    -0.4489699E-03 ( -17.78%)
   displ. norm   :     0.3390608 α      lambda       -0.6274984E-03
   maximum displ.:     0.1988232 α      in ANC's #8, #10, #13, ...

........................................................................
.............................. CYCLE    8 ..............................
........................................................................

 iter      E             dE          RMSdq      gap      omega  full diag
   1    -78.0410251 -0.780410E+02  0.120E-01    3.96       0.0  T
   2    -78.0410328 -0.770449E-05  0.651E-02    3.96       1.0  T
   3    -78.0410320  0.831719E-06  0.154E-02    3.96       1.0  T
   4    -78.0410333 -0.127433E-05  0.755E-03    3.96       1.9  T
   5    -78.0410347 -0.139691E-05  0.356E-03    3.96       4.0  T
   6    -78.0410349 -0.204738E-06  0.221E-03    3.96       6.4  T
   7    -78.0410349 -0.464647E-07  0.166E-03    3.96       8.5  T
   8    -78.0410350 -0.356288E-07  0.782E-04    3.96      18.1  T
   9    -78.0410350 -0.175160E-07  0.297E-04    3.96      47.6  T
     SCC iter.                  ...        0 min,  0.027 sec
     gradient                   ...        0 min,  0.010 sec
 * total energy  :   -76.8683153 Eh     change       -0.4526702E-03 Eh
   gradient norm :     0.0106302 Eh/α   predicted    -0.3498223E-03 ( -22.72%)
   displ. norm   :     0.3166201 α      lambda       -0.4112718E-03
   maximum displ.:     0.1981895 α      in ANC's #8, #11, #2, ...

........................................................................
.............................. CYCLE    9 ..............................
........................................................................

 iter      E             dE          RMSdq      gap      omega  full diag
   1    -78.0432454 -0.780432E+02  0.124E-01    3.96       0.0  T
   2    -78.0432527 -0.736288E-05  0.669E-02    3.96       1.0  T
   3    -78.0432530 -0.267838E-06  0.148E-02    3.96       1.0  T
   4    -78.0432537 -0.668737E-06  0.748E-03    3.96       1.9  T
   5    -78.0432547 -0.102699E-05  0.367E-03    3.96       3.9  T
   6    -78.0432549 -0.202795E-06  0.237E-03    3.96       6.0  T
   7    -78.0432550 -0.517834E-07  0.176E-03    3.96       8.0  T
   8    -78.0432550 -0.542218E-07  0.532E-04    3.96      26.6  T
   9    -78.0432550 -0.762992E-08  0.229E-04    3.96      61.7  T
     SCC iter.                  ...        0 min,  0.047 sec
     gradient                   ...        0 min,  0.031 sec
 * total energy  :   -76.8686143 Eh     change       -0.2989543E-03 Eh
   gradient norm :     0.0103183 Eh/α   predicted    -0.2262520E-03 ( -24.32%)
   displ. norm   :     0.2809592 α      lambda       -0.3203981E-03
   maximum displ.:     0.1812486 α      in ANC's #8, #11, #9, ...

........................................................................
.............................. CYCLE   10 ..............................
........................................................................

 iter      E             dE          RMSdq      gap      omega  full diag
   1    -78.0461652 -0.780462E+02  0.107E-01    3.96       0.0  T
   2    -78.0461686 -0.336996E-05  0.597E-02    3.96       1.0  T
   3    -78.0461687 -0.152264E-06  0.105E-02    3.96       1.3  T
   4    -78.0461690 -0.251319E-06  0.592E-03    3.96       2.4  T
   5    -78.0461699 -0.962094E-06  0.260E-03    3.96       5.4  T
   6    -78.0461700 -0.703878E-07  0.215E-03    3.96       6.6  T
   7    -78.0461701 -0.719613E-07  0.127E-03    3.96      11.1  T
   8    -78.0461701 -0.435809E-07  0.576E-04    3.96      24.6  T
   9    -78.0461701 -0.679461E-08  0.326E-04    3.96      43.4  T
     SCC iter.                  ...        0 min,  0.026 sec
     gradient                   ...        0 min,  0.010 sec
 * total energy  :   -76.8688369 Eh     change       -0.2226390E-03 Eh
   gradient norm :     0.0061548 Eh/α   predicted    -0.1728536E-03 ( -22.36%)
   displ. norm   :     0.4062918 α      lambda       -0.3025965E-03
   maximum displ.:     0.2511986 α      in ANC's #8, #11, #4, ...

........................................................................
.............................. CYCLE   11 ..............................
........................................................................

 iter      E             dE          RMSdq      gap      omega  full diag
   1    -78.0433196 -0.780433E+02  0.162E-01    3.96       0.0  T
   2    -78.0433312 -0.116519E-04  0.878E-02    3.96       1.0  T
   3    -78.0433322 -0.954654E-06  0.189E-02    3.96       1.0  T
   4    -78.0433336 -0.146098E-05  0.107E-02    3.96       1.3  T
   5    -78.0433353 -0.163554E-05  0.556E-03    3.96       2.5  T
   6    -78.0433357 -0.428708E-06  0.410E-03    3.96       3.4  T
   7    -78.0433359 -0.208655E-06  0.293E-03    3.96       4.8  T
   8    -78.0433361 -0.156475E-06  0.127E-03    3.96      11.2  T
   9    -78.0433361 -0.570782E-07  0.518E-04    3.96      27.3  T
  10    -78.0433361 -0.286612E-08  0.393E-04    3.96      36.0  T
     SCC iter.                  ...        0 min,  0.028 sec
     gradient                   ...        0 min,  0.010 sec
 * total energy  :   -76.8690186 Eh     change       -0.1817202E-03 Eh
   gradient norm :     0.0082123 Eh/α   predicted    -0.1762740E-03 (  -3.00%)
   displ. norm   :     0.2591421 α      lambda       -0.2350804E-03
   maximum displ.:     0.1531127 α      in ANC's #8, #4, #9, ...

........................................................................
.............................. CYCLE   12 ..............................
........................................................................

 iter      E             dE          RMSdq      gap      omega  full diag
   1    -78.0443105 -0.780443E+02  0.876E-02    3.96       0.0  T
   2    -78.0443134 -0.295032E-05  0.501E-02    3.96       1.0  T
   3    -78.0443130  0.409988E-06  0.865E-03    3.96       1.6  T
   4    -78.0443137 -0.682313E-06  0.430E-03    3.96       3.3  T
   5    -78.0443139 -0.142150E-06  0.223E-03    3.96       6.3  T
   6    -78.0443141 -0.189321E-06  0.944E-04    3.96      15.0  T
   7    -78.0443141 -0.797057E-08  0.741E-04    3.96      19.1  T
     SCC iter.                  ...        0 min,  0.020 sec
     gradient                   ...        0 min,  0.011 sec
 * total energy  :   -76.8691821 Eh     change       -0.1634474E-03 Eh
   gradient norm :     0.0035908 Eh/α   predicted    -0.1254342E-03 ( -23.26%)
   displ. norm   :     0.2816823 α      lambda       -0.1464440E-03
   maximum displ.:     0.1649509 α      in ANC's #8, #4, #9, ...

........................................................................
.............................. CYCLE   13 ..............................
........................................................................

 iter      E             dE          RMSdq      gap      omega  full diag
   1    -78.0437394 -0.780437E+02  0.988E-02    3.96       0.0  T
   2    -78.0437425 -0.308646E-05  0.532E-02    3.96       1.0  T
   3    -78.0437426 -0.174116E-06  0.105E-02    3.96       1.3  T
   4    -78.0437431 -0.440960E-06  0.557E-03    3.96       2.5  T
   5    -78.0437435 -0.473521E-06  0.225E-03    3.96       6.3  T
   6    -78.0437436 -0.704220E-07  0.174E-03    3.96       8.1  T
   7    -78.0437437 -0.433321E-07  0.901E-04    3.96      15.7  T
   8    -78.0437437 -0.159110E-07  0.392E-04    3.96      36.0  T
     SCC iter.                  ...        0 min,  0.023 sec
     gradient                   ...        0 min,  0.010 sec
 * total energy  :   -76.8692871 Eh     change       -0.1049980E-03 Eh
   gradient norm :     0.0035145 Eh/α   predicted    -0.7903286E-04 ( -24.73%)
   displ. norm   :     0.2412256 α      lambda       -0.1032307E-03
   maximum displ.:     0.1280847 α      in ANC's #8, #4, #5, ...

........................................................................
.............................. CYCLE   14 ..............................
........................................................................

 iter      E             dE          RMSdq      gap      omega  full diag
   1    -78.0443829 -0.780444E+02  0.725E-02    3.96       0.0  T
   2    -78.0443847 -0.180209E-05  0.404E-02    3.96       1.0  T
   3    -78.0443848 -0.576625E-07  0.696E-03    3.96       2.0  T
   4    -78.0443849 -0.130125E-06  0.377E-03    3.96       3.8  T
   5    -78.0443852 -0.303966E-06  0.194E-03    3.96       7.3  T
   6    -78.0443853 -0.502051E-07  0.133E-03    3.96      10.7  T
   7    -78.0443853 -0.172910E-07  0.990E-04    3.96      14.3  T
   8    -78.0443853 -0.214067E-07  0.404E-04    3.96      35.0  T
     SCC iter.                  ...        0 min,  0.023 sec
     gradient                   ...        0 min,  0.010 sec
 * total energy  :   -76.8693560 Eh     change       -0.6894715E-04 Eh
   gradient norm :     0.0033778 Eh/α   predicted    -0.5462553E-04 ( -20.77%)
   displ. norm   :     0.1729038 α      lambda       -0.4966542E-04
   maximum displ.:     0.0888131 α      in ANC's #8, #5, #4, ...

........................................................................
.............................. CYCLE   15 ..............................
........................................................................

 iter      E             dE          RMSdq      gap      omega  full diag
   1    -78.0444740 -0.780445E+02  0.502E-02    3.96       0.0  T
   2    -78.0444750 -0.103473E-05  0.271E-02    3.96       1.0  T
   3    -78.0444749  0.798910E-07  0.598E-03    3.96       2.4  T
   4    -78.0444751 -0.123935E-06  0.303E-03    3.96       4.7  T
   5    -78.0444753 -0.211599E-06  0.138E-03    3.96      10.3  T
   6    -78.0444753 -0.257256E-07  0.834E-04    3.96      17.0  T
   7    -78.0444753 -0.576351E-08  0.635E-04    3.96      22.3  T
     SCC iter.                  ...        0 min,  0.048 sec
     gradient                   ...        0 min,  0.018 sec
 * total energy  :   -76.8693896 Eh     change       -0.3361600E-04 Eh
   gradient norm :     0.0019687 Eh/α   predicted    -0.2557866E-04 ( -23.91%)
   displ. norm   :     0.1282287 α      lambda       -0.2741812E-04
   maximum displ.:     0.0789819 α      in ANC's #5, #4, #1, ...

........................................................................
.............................. CYCLE   16 ..............................
........................................................................

 iter      E             dE          RMSdq      gap      omega  full diag
   1    -78.0460160 -0.780460E+02  0.244E-02    3.95       0.0  T
   2    -78.0460163 -0.311463E-06  0.139E-02    3.95       1.0  T
   3    -78.0460160  0.306487E-06  0.352E-03    3.95       4.0  T
   4    -78.0460163 -0.384586E-06  0.120E-03    3.95      11.8  T
   5    -78.0460164 -0.170440E-07  0.587E-04    3.95      24.1  T
   6    -78.0460164 -0.932458E-08  0.221E-04    3.95      64.0  T
     SCC iter.                  ...        0 min,  0.025 sec
     gradient                   ...        0 min,  0.010 sec
 * total energy  :   -76.8694128 Eh     change       -0.2316800E-04 Eh
   gradient norm :     0.0023966 Eh/α   predicted    -0.1380965E-04 ( -40.39%)
   displ. norm   :     0.0593537 α      lambda       -0.1620695E-04
   maximum displ.:     0.0325505 α      in ANC's #5, #8, #4, ...

........................................................................
.............................. CYCLE   17 ..............................
........................................................................

 iter      E             dE          RMSdq      gap      omega  full diag
   1    -78.0451315 -0.780451E+02  0.182E-02    3.95       0.0  T
   2    -78.0451317 -0.203360E-06  0.103E-02    3.95       1.4  T
   3    -78.0451317  0.344154E-08  0.277E-03    3.95       5.1  T
   4    -78.0451318 -0.689721E-07  0.125E-03    3.95      11.3  T
   5    -78.0451318 -0.168292E-07  0.953E-04    3.95      14.8  T
   6    -78.0451318 -0.124664E-07  0.689E-04    3.95      20.5  T
     SCC iter.                  ...        0 min,  0.026 sec
     gradient                   ...        0 min,  0.014 sec
 * total energy  :   -76.8694240 Eh     change       -0.1122326E-04 Eh
   gradient norm :     0.0015515 Eh/α   predicted    -0.8132766E-05 ( -27.54%)
   displ. norm   :     0.1087202 α      lambda       -0.2000322E-04
   maximum displ.:     0.0614232 α      in ANC's #5, #2, #11, ...

........................................................................
.............................. CYCLE   18 ..............................
........................................................................

 iter      E             dE          RMSdq      gap      omega  full diag
   1    -78.0451737 -0.780452E+02  0.309E-02    3.95       0.0  T
   2    -78.0451745 -0.828407E-06  0.172E-02    3.95       1.0  T
   3    -78.0451745  0.825584E-08  0.403E-03    3.95       3.5  T
   4    -78.0451746 -0.688605E-07  0.180E-03    3.95       7.9  T
   5    -78.0451746 -0.408524E-07  0.968E-04    3.95      14.6  T
   6    -78.0451746 -0.106314E-07  0.550E-04    3.95      25.7  T
     SCC iter.                  ...        0 min,  0.018 sec
     gradient                   ...        0 min,  0.010 sec
 * total energy  :   -76.8694418 Eh     change       -0.1781744E-04 Eh
   gradient norm :     0.0016345 Eh/α   predicted    -0.1005612E-04 ( -43.56%)
   displ. norm   :     0.0995547 α      lambda       -0.1342400E-04
   maximum displ.:     0.0609795 α      in ANC's #5, #2, #4, ...

........................................................................
.............................. CYCLE   19 ..............................
........................................................................

 iter      E             dE          RMSdq      gap      omega  full diag
   1    -78.0446744 -0.780447E+02  0.235E-02    3.95       0.0  T
   2    -78.0446747 -0.300384E-06  0.133E-02    3.95       1.1  T
   3    -78.0446747  0.291098E-07  0.293E-03    3.95       4.8  T
   4    -78.0446748 -0.890117E-07  0.164E-03    3.95       8.6  T
   5    -78.0446749 -0.489837E-07  0.106E-03    3.95      13.3  T
   6    -78.0446749 -0.127842E-07  0.778E-04    3.95      18.2  T
   7    -78.0446749 -0.882304E-08  0.564E-04    3.95      25.1  T
     SCC iter.                  ...        0 min,  0.020 sec
     gradient                   ...        0 min,  0.010 sec
 * total energy  :   -76.8694563 Eh     change       -0.1450875E-04 Eh
   gradient norm :     0.0012687 Eh/α   predicted    -0.6744379E-05 ( -53.52%)
   displ. norm   :     0.1753437 α      lambda       -0.1883196E-04
   maximum displ.:     0.1032376 α      in ANC's #5, #2, #1, ...

........................................................................
.............................. CYCLE   20 ..............................
........................................................................

 iter      E             dE          RMSdq      gap      omega  full diag
   1    -78.0445405 -0.780445E+02  0.377E-02    3.95       0.0  T
   2    -78.0445410 -0.438854E-06  0.214E-02    3.95       1.0  T
   3    -78.0445408  0.185004E-06  0.360E-03    3.95       3.9  T
   4    -78.0445410 -0.244223E-06  0.175E-03    3.95       8.1  T
   5    -78.0445411 -0.592095E-07  0.716E-04    3.95      19.8  T
   6    -78.0445411 -0.974266E-08  0.402E-04    3.95      35.2  T
     SCC iter.                  ...        0 min,  0.017 sec
     gradient                   ...        0 min,  0.014 sec
 * total energy  :   -76.8694758 Eh     change       -0.1950050E-04 Eh
   gradient norm :     0.0013509 Eh/α   predicted    -0.9545734E-05 ( -51.05%)
   displ. norm   :     0.1417071 α      lambda       -0.1163476E-04
   maximum displ.:     0.0735714 α      in ANC's #5, #2, #1, ...
 * RMSD in coord.:     0.5465419 α      energy gain  -0.1465859E-01 Eh

generating ANC from exact Hessian ...
Using Lindh-Hessian (1995)
 Shifting diagonal of input Hessian by    9.9273452116497001E-003
 Lowest  eigenvalues of input Hessian
    0.000000    0.000000    0.000000    0.000000    0.000000    0.000000
    0.010000    0.010154    0.010430    0.010532    0.010742    0.010879
    0.011055    0.011208    0.011399    0.011713    0.012194    0.013901
 Highest eigenvalues
    1.990862    1.998239    2.006058    2.007719    2.552331    3.512319


........................................................................
.............................. CYCLE   21 ..............................
........................................................................

 iter      E             dE          RMSdq      gap      omega  full diag
   1    -78.0445004 -0.780445E+02  0.317E-02    3.95       0.0  T
   2    -78.0445006 -0.206613E-06  0.181E-02    3.95       1.0  T
   3    -78.0445005  0.149711E-06  0.295E-03    3.95       4.8  T
   4    -78.0445007 -0.196894E-06  0.146E-03    3.95       9.7  T
   5    -78.0445007 -0.433168E-07  0.576E-04    3.95      24.6  T
   6    -78.0445007 -0.415068E-08  0.425E-04    3.95      33.3  T
     SCC iter.                  ...        0 min,  0.017 sec
     gradient                   ...        0 min,  0.010 sec
 * total energy  :   -76.8694898 Eh     change       -0.1398361E-04 Eh
   gradient norm :     0.0010792 Eh/α   predicted     0.0000000E+00 (-100.00%)
   displ. norm   :     0.0283124 α      lambda       -0.6421290E-05
   maximum displ.:     0.0190644 α      in ANC's #1, #10, #11, ...

........................................................................
.............................. CYCLE   22 ..............................
........................................................................

 iter      E             dE          RMSdq      gap      omega  full diag
   1    -78.0453159 -0.780453E+02  0.790E-03    3.95       0.0  T
   2    -78.0453159 -0.413796E-07  0.425E-03    3.95       3.3  T
   3    -78.0453159  0.185428E-07  0.117E-03    3.95      12.1  T
   4    -78.0453159 -0.251303E-07  0.550E-04    3.95      25.7  T
   5    -78.0453159 -0.674879E-08  0.265E-04    3.95      53.5  T
     SCC iter.                  ...        0 min,  0.015 sec
     gradient                   ...        0 min,  0.011 sec
 * total energy  :   -76.8694973 Eh     change       -0.7481048E-05 Eh
   gradient norm :     0.0005374 Eh/α   predicted    -0.3219140E-05 ( -56.97%)
   displ. norm   :     0.0657609 α      lambda       -0.9161379E-05
   maximum displ.:     0.0443620 α      in ANC's #1, #10, #11, ...

........................................................................
.............................. CYCLE   23 ..............................
........................................................................

 iter      E             dE          RMSdq      gap      omega  full diag
   1    -78.0457917 -0.780458E+02  0.141E-02    3.95       0.0  T
   2    -78.0457919 -0.178571E-06  0.735E-03    3.95       1.9  T
   3    -78.0457919  0.465074E-07  0.231E-03    3.95       6.1  T
   4    -78.0457919 -0.571437E-07  0.102E-03    3.95      13.9  T
   5    -78.0457919 -0.302544E-07  0.400E-04    3.95      35.4  T
   6    -78.0457920 -0.253200E-08  0.201E-04    3.95      70.5  T
     SCC iter.                  ...        0 min,  0.018 sec
     gradient                   ...        0 min,  0.010 sec
 * total energy  :   -76.8695076 Eh     change       -0.1027452E-04 Eh
   gradient norm :     0.0007583 Eh/α   predicted    -0.4589934E-05 ( -55.33%)
   displ. norm   :     0.0760635 α      lambda       -0.7426554E-05
   maximum displ.:     0.0535180 α      in ANC's #1, #11, #10, ...

........................................................................
.............................. CYCLE   24 ..............................
........................................................................

 iter      E             dE          RMSdq      gap      omega  full diag
   1    -78.0456681 -0.780457E+02  0.148E-02    3.95       0.0  T
   2    -78.0456683 -0.149782E-06  0.781E-03    3.95       1.8  T
   3    -78.0456682  0.548414E-07  0.233E-03    3.95       6.1  T
   4    -78.0456683 -0.705887E-07  0.107E-03    3.95      13.2  T
   5    -78.0456683 -0.275886E-07  0.406E-04    3.95      34.9  T
   6    -78.0456683 -0.289259E-08  0.215E-04    3.95      65.6  T
     SCC iter.                  ...        0 min,  0.017 sec
     gradient                   ...        0 min,  0.010 sec
 * total energy  :   -76.8695166 Eh     change       -0.9015342E-05 Eh
   gradient norm :     0.0008943 Eh/α   predicted    -0.3728176E-05 ( -58.65%)
   displ. norm   :     0.0725984 α      lambda       -0.6648678E-05
   maximum displ.:     0.0518324 α      in ANC's #1, #2, #11, ...

........................................................................
.............................. CYCLE   25 ..............................
........................................................................

 iter      E             dE          RMSdq      gap      omega  full diag
   1    -78.0455240 -0.780455E+02  0.141E-02    3.95       0.0  T
   2    -78.0455241 -0.911091E-07  0.751E-03    3.95       1.9  T
   3    -78.0455241  0.311480E-07  0.188E-03    3.95       7.5  T
   4    -78.0455241 -0.419552E-07  0.993E-04    3.95      14.2  T
   5    -78.0455241 -0.221500E-07  0.358E-04    3.95      39.5  T
     SCC iter.                  ...        0 min,  0.016 sec
     gradient                   ...        0 min,  0.010 sec
 * total energy  :   -76.8695254 Eh     change       -0.8769951E-05 Eh
   gradient norm :     0.0007437 Eh/α   predicted    -0.3332414E-05 ( -62.00%)
   displ. norm   :     0.0781918 α      lambda       -0.7377376E-05
   maximum displ.:     0.0562289 α      in ANC's #1, #2, #9, ...

........................................................................
.............................. CYCLE   26 ..............................
........................................................................

 iter      E             dE          RMSdq      gap      omega  full diag
   1    -78.0452234 -0.780452E+02  0.153E-02    3.95       0.0  T
   2    -78.0452235 -0.107033E-06  0.817E-03    3.95       1.7  T
   3    -78.0452235  0.406034E-08  0.180E-03    3.95       7.9  T
   4    -78.0452236 -0.116006E-07  0.101E-03    3.95      14.0  T
   5    -78.0452236 -0.264688E-07  0.371E-04    3.95      38.1  T
   6    -78.0452236 -0.248505E-08  0.255E-04    3.95      55.4  T
     SCC iter.                  ...        0 min,  0.018 sec
     gradient                   ...        0 min,  0.010 sec
 * total energy  :   -76.8695353 Eh     change       -0.9951739E-05 Eh
   gradient norm :     0.0005809 Eh/α   predicted    -0.3701829E-05 ( -62.80%)
   displ. norm   :     0.1018606 α      lambda       -0.9316156E-05
   maximum displ.:     0.0715328 α      in ANC's #1, #2, #9, ...

........................................................................
.............................. CYCLE   27 ..............................
........................................................................

 iter      E             dE          RMSdq      gap      omega  full diag
   1    -78.0449430 -0.780449E+02  0.211E-02    3.95       0.0  T
   2    -78.0449432 -0.199603E-06  0.109E-02    3.95       1.3  T
   3    -78.0449432 -0.753508E-08  0.240E-03    3.95       5.9  T
   4    -78.0449432  0.369562E-07  0.144E-03    3.95       9.8  T
   5    -78.0449433 -0.883960E-07  0.315E-04    3.95      44.9  T
   6    -78.0449433 -0.151441E-08  0.228E-04    3.95      62.0  T
     SCC iter.                  ...        0 min,  0.017 sec
     gradient                   ...        0 min,  0.011 sec
 * total energy  :   -76.8695480 Eh     change       -0.1269853E-04 Eh
   gradient norm :     0.0007582 Eh/α   predicted    -0.4680842E-05 ( -63.14%)
   displ. norm   :     0.1477305 α      lambda       -0.1350013E-04
   maximum displ.:     0.1034877 α      in ANC's #1, #2, #9, ...

........................................................................
.............................. CYCLE   28 ..............................
........................................................................

 iter      E             dE          RMSdq      gap      omega  full diag
   1    -78.0447087 -0.780447E+02  0.298E-02    3.95       0.0  T
   2    -78.0447092 -0.538883E-06  0.156E-02    3.95       1.0  T
   3    -78.0447093 -0.407921E-07  0.343E-03    3.95       4.1  T
   4    -78.0447093 -0.189091E-07  0.185E-03    3.95       7.7  T
   5    -78.0447093 -0.502878E-07  0.629E-04    3.95      22.5  T
   6    -78.0447094 -0.145163E-07  0.282E-04    3.95      50.2  T
     SCC iter.                  ...        0 min,  0.018 sec
     gradient                   ...        0 min,  0.010 sec
 * total energy  :   -76.8695665 Eh     change       -0.1844435E-04 Eh
   gradient norm :     0.0010103 Eh/α   predicted    -0.6820320E-05 ( -63.02%)
   displ. norm   :     0.2131974 α      lambda       -0.1939378E-04
   maximum displ.:     0.1467120 α      in ANC's #1, #2, #9, ...

........................................................................
.............................. CYCLE   29 ..............................
........................................................................

 iter      E             dE          RMSdq      gap      omega  full diag
   1    -78.0443189 -0.780443E+02  0.438E-02    3.96       0.0  T
   2    -78.0443199 -0.987317E-06  0.222E-02    3.96       1.0  T
   3    -78.0443200 -0.131908E-06  0.491E-03    3.96       2.9  T
   4    -78.0443199  0.703628E-07  0.267E-03    3.96       5.3  T
   5    -78.0443201 -0.188011E-06  0.575E-04    3.96      24.6  T
   6    -78.0443201 -0.127576E-07  0.334E-04    3.96      42.4  T
     SCC iter.                  ...        0 min,  0.017 sec
     gradient                   ...        0 min,  0.010 sec
 * total energy  :   -76.8695940 Eh     change       -0.2754707E-04 Eh
   gradient norm :     0.0015055 Eh/α   predicted    -0.9894403E-05 ( -64.08%)
   displ. norm   :     0.3540671 α      lambda       -0.3314817E-04
   maximum displ.:     0.2446304 α      in ANC's #1, #2, #6, ...

........................................................................
.............................. CYCLE   30 ..............................
........................................................................

 iter      E             dE          RMSdq      gap      omega  full diag
   1    -78.0436725 -0.780437E+02  0.707E-02    3.96       0.0  T
   2    -78.0436752 -0.272189E-05  0.359E-02    3.96       1.0  T
   3    -78.0436756 -0.391193E-06  0.796E-03    3.96       1.8  T
   4    -78.0436755  0.690059E-07  0.417E-03    3.96       3.4  T
   5    -78.0436759 -0.344806E-06  0.960E-04    3.96      14.7  T
   6    -78.0436759 -0.386771E-07  0.510E-04    3.96      27.7  T
     SCC iter.                  ...        0 min,  0.018 sec
     gradient                   ...        0 min,  0.010 sec
 * total energy  :   -76.8696409 Eh     change       -0.4687301E-04 Eh
   gradient norm :     0.0025025 Eh/α   predicted    -0.1749961E-04 ( -62.67%)
   displ. norm   :     0.3534859 α      lambda       -0.5143117E-04
   maximum displ.:     0.2448285 α      in ANC's #1, #2, #6, ...

........................................................................
.............................. CYCLE   31 ..............................
........................................................................

 iter      E             dE          RMSdq      gap      omega  full diag
   1    -78.0430239 -0.780430E+02  0.680E-02    3.96       0.0  T
   2    -78.0430265 -0.256958E-05  0.347E-02    3.96       1.0  T
   3    -78.0430269 -0.374092E-06  0.770E-03    3.96       1.8  T
   4    -78.0430268  0.457664E-07  0.401E-03    3.96       3.5  T
   5    -78.0430271 -0.305810E-06  0.948E-04    3.96      14.9  T
   6    -78.0430272 -0.365239E-07  0.517E-04    3.96      27.3  T
     SCC iter.                  ...        0 min,  0.018 sec
     gradient                   ...        0 min,  0.010 sec
 * total energy  :   -76.8696888 Eh     change       -0.4790637E-04 Eh
   gradient norm :     0.0036314 Eh/α   predicted    -0.2893108E-04 ( -39.61%)
   displ. norm   :     0.5509357 α      lambda       -0.8217322E-04
   maximum displ.:     0.3828316 α      in ANC's #1, #2, #7, ...

........................................................................
.............................. CYCLE   32 ..............................
........................................................................

 iter      E             dE          RMSdq      gap      omega  full diag
   1    -78.0414402 -0.780414E+02  0.102E-01    3.96       0.0  T
   2    -78.0414462 -0.593254E-05  0.523E-02    3.96       1.0  T
   3    -78.0414470 -0.840043E-06  0.116E-02    3.96       1.2  T
   4    -78.0414470 -0.204821E-08  0.597E-03    3.96       2.4  T
   5    -78.0414476 -0.621167E-06  0.140E-03    3.96      10.1  T
   6    -78.0414477 -0.757675E-07  0.768E-04    3.96      18.4  T
   7    -78.0414477 -0.585973E-08  0.605E-04    3.96      23.4  T
     SCC iter.                  ...        0 min,  0.022 sec
     gradient                   ...        0 min,  0.010 sec
 * total energy  :   -76.8697561 Eh     change       -0.6728071E-04 Eh
   gradient norm :     0.0060111 Eh/α   predicted    -0.5356159E-04 ( -20.39%)
   displ. norm   :     0.5283232 α      lambda       -0.8530428E-04
   maximum displ.:     0.3709451 α      in ANC's #1, #2, #7, ...

........................................................................
.............................. CYCLE   33 ..............................
........................................................................

 iter      E             dE          RMSdq      gap      omega  full diag
   1    -78.0403109 -0.780403E+02  0.917E-02    3.96       0.0  T
   2    -78.0403156 -0.463594E-05  0.473E-02    3.96       1.0  T
   3    -78.0403161 -0.563899E-06  0.105E-02    3.96       1.4  T
   4    -78.0403162 -0.497997E-07  0.537E-03    3.96       2.6  T
   5    -78.0403167 -0.551483E-06  0.114E-03    3.96      12.4  T
   6    -78.0403168 -0.474853E-07  0.556E-04    3.96      25.4  T
   7    -78.0403168 -0.268892E-08  0.427E-04    3.96      33.1  T
     SCC iter.                  ...        0 min,  0.020 sec
     gradient                   ...        0 min,  0.012 sec
 * total energy  :   -76.8698231 Eh     change       -0.6700226E-04 Eh
   gradient norm :     0.0076807 Eh/α   predicted    -0.5455784E-04 ( -18.57%)
   displ. norm   :     0.4319529 α      lambda       -0.1439836E-03
   maximum displ.:     0.3066255 α      in ANC's #1, #2, #7, ...

........................................................................
.............................. CYCLE   34 ..............................
........................................................................

 iter      E             dE          RMSdq      gap      omega  full diag
   1    -78.0429138 -0.780429E+02  0.658E-02    3.96       0.0  T
   2    -78.0429162 -0.231825E-05  0.343E-02    3.96       1.0  T
   3    -78.0429162 -0.527505E-07  0.837E-03    3.96       1.7  T
   4    -78.0429165 -0.324829E-06  0.423E-03    3.96       3.3  T
   5    -78.0429168 -0.244684E-06  0.122E-03    3.96      11.6  T
   6    -78.0429168 -0.471487E-07  0.699E-04    3.96      20.2  T
   7    -78.0429168 -0.457945E-08  0.568E-04    3.96      24.9  T
     SCC iter.                  ...        0 min,  0.020 sec
     gradient                   ...        0 min,  0.010 sec
 * total energy  :   -76.8699380 Eh     change       -0.1149558E-03 Eh
   gradient norm :     0.0046126 Eh/α   predicted    -0.8542733E-04 ( -25.69%)
   displ. norm   :     0.6283174 α      lambda       -0.1454115E-03
   maximum displ.:     0.4475356 α      in ANC's #1, #2, #7, ...

........................................................................
.............................. CYCLE   35 ..............................
........................................................................

 iter      E             dE          RMSdq      gap      omega  full diag
   1    -78.0434015 -0.780434E+02  0.990E-02    3.96       0.0  T
   2    -78.0434070 -0.547053E-05  0.513E-02    3.96       1.0  T
   3    -78.0434074 -0.453877E-06  0.117E-02    3.96       1.2  T
   4    -78.0434075 -0.111437E-06  0.621E-03    3.96       2.3  T
   5    -78.0434084 -0.867110E-06  0.123E-03    3.96      11.5  T
   6    -78.0434085 -0.424239E-07  0.466E-04    3.96      30.3  T
   7    -78.0434085 -0.211500E-08  0.329E-04    3.96      43.0  T
     SCC iter.                  ...        0 min,  0.025 sec
     gradient                   ...        0 min,  0.010 sec
 * total energy  :   -76.8700643 Eh     change       -0.1262655E-03 Eh
   gradient norm :     0.0037288 Eh/α   predicted    -0.1014095E-03 ( -19.69%)
   displ. norm   :     0.5669512 α      lambda       -0.1849444E-03
   maximum displ.:     0.4021486 α      in ANC's #1, #2, #7, ...

........................................................................
.............................. CYCLE   36 ..............................
........................................................................

 iter      E             dE          RMSdq      gap      omega  full diag
   1    -78.0481219 -0.780481E+02  0.859E-02    3.96       0.0  T
   2    -78.0481271 -0.519446E-05  0.449E-02    3.96       1.0  T
   3    -78.0481271  0.203866E-07  0.117E-02    3.96       1.2  T
   4    -78.0481278 -0.706138E-06  0.620E-03    3.96       2.3  T
   5    -78.0481284 -0.589899E-06  0.197E-03    3.96       7.2  T
   6    -78.0481285 -0.921352E-07  0.922E-04    3.96      15.3  T
   7    -78.0481285 -0.100257E-07  0.706E-04    3.96      20.0  T
     SCC iter.                  ...        0 min,  0.021 sec
     gradient                   ...        0 min,  0.010 sec
 * total energy  :   -76.8701926 Eh     change       -0.1282598E-03 Eh
   gradient norm :     0.0027242 Eh/α   predicted    -0.1221973E-03 (  -4.73%)
   displ. norm   :     0.8678531 α      lambda       -0.1890289E-03
   maximum displ.:     0.6219864 α      in ANC's #1, #2, #7, ...

........................................................................
.............................. CYCLE   37 ..............................
........................................................................

 iter      E             dE          RMSdq      gap      omega  full diag
   1    -78.0416697 -0.780417E+02  0.140E-01    3.96       0.0  T
   2    -78.0416828 -0.131362E-04  0.721E-02    3.96       1.0  T
   3    -78.0416840 -0.118364E-05  0.169E-02    3.96       1.0  T
   4    -78.0416846 -0.624010E-06  0.878E-03    3.96       1.6  T
   5    -78.0416859 -0.129763E-05  0.264E-03    3.96       5.4  T
   6    -78.0416861 -0.190957E-06  0.102E-03    3.96      13.9  T
   7    -78.0416861 -0.940997E-08  0.804E-04    3.96      17.6  T
   8    -78.0416861 -0.740367E-08  0.513E-04    3.96      27.6  T
     SCC iter.                  ...        0 min,  0.023 sec
     gradient                   ...        0 min,  0.010 sec
 * total energy  :   -76.8702939 Eh     change       -0.1013162E-03 Eh
   gradient norm :     0.0067040 Eh/α   predicted    -0.1657073E-03 (  63.55%)
   displ. norm   :     0.1761062 α      lambda       -0.9601698E-04
   maximum displ.:     0.1238872 α      in ANC's #1, #2, #3, ...

........................................................................
.............................. CYCLE   38 ..............................
........................................................................

 iter      E             dE          RMSdq      gap      omega  full diag
   1    -78.0440003 -0.780440E+02  0.272E-02    3.96       0.0  T
   2    -78.0440011 -0.801857E-06  0.148E-02    3.96       1.0  T
   3    -78.0440011  0.615248E-08  0.482E-03    3.96       2.9  T
   4    -78.0440012 -0.102411E-06  0.174E-03    3.96       8.1  T
   5    -78.0440012 -0.448903E-07  0.870E-04    3.96      16.2  T
   6    -78.0440012 -0.108722E-07  0.489E-04    3.96      28.9  T
     SCC iter.                  ...        0 min,  0.018 sec
     gradient                   ...        0 min,  0.010 sec
 * total energy  :   -76.8703717 Eh     change       -0.7784195E-04 Eh
   gradient norm :     0.0034558 Eh/α   predicted    -0.4949960E-04 ( -36.41%)
   displ. norm   :     0.5775344 α      lambda       -0.1395721E-03
   maximum displ.:     0.4180652 α      in ANC's #1, #2, #3, ...

........................................................................
.............................. CYCLE   39 ..............................
........................................................................

 iter      E             dE          RMSdq      gap      omega  full diag
   1    -78.0450250 -0.780450E+02  0.854E-02    3.97       0.0  T
   2    -78.0450292 -0.424387E-05  0.452E-02    3.97       1.0  T
   3    -78.0450292  0.679096E-07  0.115E-02    3.97       1.2  T
   4    -78.0450296 -0.433930E-06  0.590E-03    3.97       2.4  T
   5    -78.0450303 -0.678370E-06  0.229E-03    3.97       6.2  T
   6    -78.0450304 -0.878382E-07  0.101E-03    3.97      14.0  T
   7    -78.0450304 -0.844771E-08  0.772E-04    3.97      18.3  T
   8    -78.0450304 -0.734636E-08  0.421E-04    3.97      33.6  T
     SCC iter.                  ...        0 min,  0.023 sec
     gradient                   ...        0 min,  0.010 sec
 * total energy  :   -76.8704856 Eh     change       -0.1139153E-03 Eh
   gradient norm :     0.0025611 Eh/α   predicted    -0.9306336E-04 ( -18.30%)
   displ. norm   :     0.6100986 α      lambda       -0.1211892E-03
   maximum displ.:     0.4443873 α      in ANC's #1, #2, #3, ...

........................................................................
.............................. CYCLE   40 ..............................
........................................................................

 iter      E             dE          RMSdq      gap      omega  full diag
   1    -78.0449164 -0.780449E+02  0.901E-02    3.97       0.0  T
   2    -78.0449205 -0.413052E-05  0.482E-02    3.97       1.0  T
   3    -78.0449202  0.249817E-06  0.114E-02    3.97       1.2  T
   4    -78.0449207 -0.506267E-06  0.623E-03    3.97       2.3  T
   5    -78.0449216 -0.878137E-06  0.227E-03    3.97       6.2  T
   6    -78.0449217 -0.803698E-07  0.107E-03    3.97      13.2  T
   7    -78.0449217 -0.896816E-08  0.826E-04    3.97      17.1  T
   8    -78.0449217 -0.964869E-08  0.370E-04    3.97      38.3  T
     SCC iter.                  ...        0 min,  0.023 sec
     gradient                   ...        0 min,  0.010 sec
 * total energy  :   -76.8705890 Eh     change       -0.1034159E-03 Eh
   gradient norm :     0.0026202 Eh/α   predicted    -0.8314976E-04 ( -19.60%)
   displ. norm   :     0.5739728 α      lambda       -0.1370478E-03
   maximum displ.:     0.4123610 α      in ANC's #1, #3, #2, ...

........................................................................
.............................. CYCLE   41 ..............................
........................................................................

 iter      E             dE          RMSdq      gap      omega  full diag
   1    -78.0478649 -0.780479E+02  0.877E-02    3.98       0.0  T
   2    -78.0478681 -0.320606E-05  0.485E-02    3.98       1.0  T
   3    -78.0478672  0.973389E-06  0.111E-02    3.98       1.3  T
   4    -78.0478685 -0.139111E-05  0.589E-03    3.98       2.4  T
   5    -78.0478692 -0.680968E-06  0.232E-03    3.98       6.1  T
   6    -78.0478693 -0.879198E-07  0.128E-03    3.98      11.0  T
   7    -78.0478693 -0.150293E-07  0.905E-04    3.98      15.6  T
   8    -78.0478693 -0.135700E-07  0.373E-04    3.98      37.9  T
     SCC iter.                  ...        0 min,  0.023 sec
     gradient                   ...        0 min,  0.010 sec
 * total energy  :   -76.8706821 Eh     change       -0.9310187E-04 Eh
   gradient norm :     0.0032394 Eh/α   predicted    -0.9109955E-04 (  -2.15%)
   displ. norm   :     0.8261431 α      lambda       -0.1491039E-03
   maximum displ.:     0.6082267 α      in ANC's #1, #2, #3, ...

........................................................................
.............................. CYCLE   42 ..............................
........................................................................

 iter      E             dE          RMSdq      gap      omega  full diag
   1    -78.0407236 -0.780407E+02  0.122E-01    3.98       0.0  T
   2    -78.0407323 -0.863884E-05  0.656E-02    3.98       1.0  T
   3    -78.0407320  0.274244E-06  0.151E-02    3.98       1.0  T
   4    -78.0407332 -0.117280E-05  0.808E-03    3.98       1.7  T
   5    -78.0407344 -0.125113E-05  0.292E-03    3.98       4.9  T
   6    -78.0407346 -0.177563E-06  0.135E-03    3.98      10.5  T
   7    -78.0407346 -0.151411E-07  0.107E-03    3.98      13.2  T
   8    -78.0407346 -0.142885E-07  0.554E-04    3.98      25.5  T
   9    -78.0407346 -0.769271E-08  0.294E-04    3.98      48.2  T
     SCC iter.                  ...        0 min,  0.068 sec
     gradient                   ...        0 min,  0.010 sec
 * total energy  :   -76.8707541 Eh     change       -0.7194835E-04 Eh
   gradient norm :     0.0053558 Eh/α   predicted    -0.1254340E-03 (  74.34%)
   displ. norm   :     0.1260859 α      lambda       -0.8018412E-04
   maximum displ.:     0.0844490 α      in ANC's #1, #3, #7, ...
 * RMSD in coord.:     1.0038050 α      energy gain  -0.1278249E-02 Eh

generating ANC from exact Hessian ...
Using Lindh-Hessian (1995)
 Shifting diagonal of input Hessian by    9.8468675463813209E-003
 Lowest  eigenvalues of input Hessian
    0.000000    0.000000    0.000000    0.000000    0.000000    0.000000
    0.010000    0.010155    0.010291    0.010483    0.010689    0.010717
    0.010975    0.011080    0.011265    0.011610    0.012439    0.013548
 Highest eigenvalues
    1.990210    1.996562    2.005605    2.006852    2.550863    3.507322


........................................................................
.............................. CYCLE   43 ..............................
........................................................................

 iter      E             dE          RMSdq      gap      omega  full diag
   1    -78.0435225 -0.780435E+02  0.212E-02    3.98       0.0  T
   2    -78.0435228 -0.284362E-06  0.118E-02    3.98       1.2  T
   3    -78.0435228  0.706220E-07  0.329E-03    3.98       4.3  T
   4    -78.0435229 -0.136646E-06  0.116E-03    3.98      12.2  T
   5    -78.0435229 -0.774716E-08  0.609E-04    3.98      23.2  T
   6    -78.0435229 -0.950178E-08  0.310E-04    3.98      45.6  T
     SCC iter.                  ...        0 min,  0.017 sec
     gradient                   ...        0 min,  0.010 sec
 * total energy  :   -76.8708169 Eh     change       -0.6282924E-04 Eh
   gradient norm :     0.0028936 Eh/α   predicted     0.0000000E+00 (-100.00%)
   displ. norm   :     0.0429364 α      lambda       -0.3765130E-04
   maximum displ.:     0.0193536 α      in ANC's #6, #1, #10, ...

........................................................................
.............................. CYCLE   44 ..............................
........................................................................

 iter      E             dE          RMSdq      gap      omega  full diag
   1    -78.0457761 -0.780458E+02  0.129E-02    3.98       0.0  T
   2    -78.0457764 -0.285056E-06  0.652E-03    3.98       2.2  T
   3    -78.0457764  0.122009E-07  0.277E-03    3.98       5.1  T
   4    -78.0457765 -0.637141E-07  0.134E-03    3.98      10.5  T
   5    -78.0457765 -0.236130E-07  0.871E-04    3.98      16.2  T
   6    -78.0457765 -0.120110E-07  0.596E-04    3.98      23.7  T
     SCC iter.                  ...        0 min,  0.017 sec
     gradient                   ...        0 min,  0.010 sec
 * total energy  :   -76.8708502 Eh     change       -0.3323172E-04 Eh
   gradient norm :     0.0013907 Eh/α   predicted    -0.2135968E-04 ( -35.73%)
   displ. norm   :     0.1633991 α      lambda       -0.5914598E-04
   maximum displ.:     0.0846800 α      in ANC's #10, #6, #1, ...

........................................................................
.............................. CYCLE   45 ..............................
........................................................................

 iter      E             dE          RMSdq      gap      omega  full diag
   1    -78.0497120 -0.780497E+02  0.410E-02    3.99       0.0  T
   2    -78.0497138 -0.186819E-05  0.210E-02    3.99       1.0  T
   3    -78.0497139 -0.246504E-07  0.763E-03    3.99       1.9  T
   4    -78.0497142 -0.354554E-06  0.375E-03    3.99       3.8  T
   5    -78.0497144 -0.184251E-06  0.240E-03    3.99       5.9  T
   6    -78.0497145 -0.802725E-07  0.168E-03    3.99       8.4  T
   7    -78.0497145 -0.403045E-07  0.123E-03    3.99      11.5  T
   8    -78.0497146 -0.333533E-07  0.498E-04    3.99      28.4  T
   9    -78.0497146 -0.773844E-08  0.228E-04    3.99      62.1  T
     SCC iter.                  ...        0 min,  0.025 sec
     gradient                   ...        0 min,  0.010 sec
 * total energy  :   -76.8709011 Eh     change       -0.5094244E-04 Eh
   gradient norm :     0.0027904 Eh/α   predicted    -0.2992503E-04 ( -41.26%)
   displ. norm   :     0.0863982 α      lambda       -0.3376205E-04
   maximum displ.:     0.0448394 α      in ANC's #10, #1, #6, ...

........................................................................
.............................. CYCLE   46 ..............................
........................................................................

 iter      E             dE          RMSdq      gap      omega  full diag
   1    -78.0491228 -0.780491E+02  0.194E-02    3.99       0.0  T
   2    -78.0491231 -0.311331E-06  0.968E-03    3.99       1.5  T
   3    -78.0491231 -0.177649E-07  0.283E-03    3.98       5.0  T
   4    -78.0491231 -0.438927E-07  0.147E-03    3.99       9.6  T
   5    -78.0491232 -0.274550E-07  0.696E-04    3.99      20.3  T
   6    -78.0491232 -0.694462E-08  0.497E-04    3.99      28.5  T
     SCC iter.                  ...        0 min,  0.017 sec
     gradient                   ...        0 min,  0.010 sec
 * total energy  :   -76.8709308 Eh     change       -0.2972164E-04 Eh
   gradient norm :     0.0024019 Eh/α   predicted    -0.1700895E-04 ( -42.77%)
   displ. norm   :     0.2094820 α      lambda       -0.7558202E-04
   maximum displ.:     0.1080882 α      in ANC's #1, #10, #6, ...

........................................................................
.............................. CYCLE   47 ..............................
........................................................................

 iter      E             dE          RMSdq      gap      omega  full diag
   1    -78.0468097 -0.780468E+02  0.441E-02    3.98       0.0  T
   2    -78.0468108 -0.111917E-05  0.232E-02    3.98       1.0  T
   3    -78.0468108 -0.144855E-07  0.547E-03    3.98       2.6  T
   4    -78.0468110 -0.209306E-06  0.300E-03    3.98       4.7  T
   5    -78.0468112 -0.156740E-06  0.135E-03    3.98      10.5  T
   6    -78.0468112 -0.268216E-07  0.974E-04    3.98      14.5  T
   7    -78.0468112 -0.108026E-07  0.674E-04    3.98      21.0  T
     SCC iter.                  ...        0 min,  0.025 sec
     gradient                   ...        0 min,  0.010 sec
 * total energy  :   -76.8709843 Eh     change       -0.5348726E-04 Eh
   gradient norm :     0.0012927 Eh/α   predicted    -0.3945260E-04 ( -26.24%)
   displ. norm   :     0.2297588 α      lambda       -0.2998890E-04
   maximum displ.:     0.1319302 α      in ANC's #1, #6, #10, ...

........................................................................
.............................. CYCLE   48 ..............................
........................................................................

 iter      E             dE          RMSdq      gap      omega  full diag
   1    -78.0450328 -0.780450E+02  0.455E-02    3.98       0.0  T
   2    -78.0450341 -0.129101E-05  0.240E-02    3.98       1.0  T
   3    -78.0450341  0.420823E-08  0.580E-03    3.98       2.4  T
   4    -78.0450343 -0.237941E-06  0.290E-03    3.98       4.9  T
   5    -78.0450344 -0.109475E-06  0.120E-03    3.98      11.8  T
   6    -78.0450345 -0.212651E-07  0.809E-04    3.98      17.5  T
   7    -78.0450345 -0.828899E-08  0.605E-04    3.98      23.4  T
     SCC iter.                  ...        0 min,  0.020 sec
     gradient                   ...        0 min,  0.010 sec
 * total energy  :   -76.8710112 Eh     change       -0.2693440E-04 Eh
   gradient norm :     0.0017031 Eh/α   predicted    -0.1534754E-04 ( -43.02%)
   displ. norm   :     0.0852972 α      lambda       -0.1696609E-04
   maximum displ.:     0.0582349 α      in ANC's #1, #6, #3, ...

........................................................................
.............................. CYCLE   49 ..............................
........................................................................

 iter      E             dE          RMSdq      gap      omega  full diag
   1    -78.0457155 -0.780457E+02  0.157E-02    3.98       0.0  T
   2    -78.0457156 -0.128954E-06  0.844E-03    3.98       1.7  T
   3    -78.0457156  0.559665E-07  0.248E-03    3.98       5.7  T
   4    -78.0457157 -0.797772E-07  0.996E-04    3.98      14.2  T
   5    -78.0457157 -0.180202E-07  0.484E-04    3.98      29.2  T
     SCC iter.                  ...        0 min,  0.015 sec
     gradient                   ...        0 min,  0.010 sec
 * total energy  :   -76.8710345 Eh     change       -0.2321668E-04 Eh
   gradient norm :     0.0013039 Eh/α   predicted    -0.8511659E-05 ( -63.34%)
   displ. norm   :     0.1979762 α      lambda       -0.4443508E-04
   maximum displ.:     0.1299497 α      in ANC's #1, #6, #3, ...

........................................................................
.............................. CYCLE   50 ..............................
........................................................................

 iter      E             dE          RMSdq      gap      omega  full diag
   1    -78.0472856 -0.780473E+02  0.390E-02    3.99       0.0  T
   2    -78.0472862 -0.659910E-06  0.216E-02    3.99       1.0  T
   3    -78.0472856  0.608958E-06  0.638E-03    3.99       2.2  T
   4    -78.0472864 -0.808058E-06  0.261E-03    3.99       5.4  T
   5    -78.0472865 -0.122907E-06  0.140E-03    3.99      10.1  T
   6    -78.0472866 -0.312502E-07  0.910E-04    3.99      15.5  T
   7    -78.0472866 -0.812389E-08  0.606E-04    3.99      23.3  T
     SCC iter.                  ...        0 min,  0.020 sec
     gradient                   ...        0 min,  0.010 sec
 * total energy  :   -76.8710885 Eh     change       -0.5408215E-04 Eh
   gradient norm :     0.0014995 Eh/α   predicted    -0.2260916E-04 ( -58.19%)
   displ. norm   :     0.3066798 α      lambda       -0.4727495E-04
   maximum displ.:     0.2065712 α      in ANC's #1, #6, #3, ...

........................................................................
.............................. CYCLE   51 ..............................
........................................................................

 iter      E             dE          RMSdq      gap      omega  full diag
   1    -78.0474689 -0.780475E+02  0.576E-02    3.99       0.0  T
   2    -78.0474703 -0.135968E-05  0.321E-02    3.99       1.0  T
   3    -78.0474692  0.109918E-05  0.863E-03    3.99       1.6  T
   4    -78.0474707 -0.149856E-05  0.368E-03    3.99       3.8  T
   5    -78.0474709 -0.218733E-06  0.197E-03    3.99       7.2  T
   6    -78.0474710 -0.673297E-07  0.127E-03    3.99      11.1  T
   7    -78.0474710 -0.157376E-07  0.831E-04    3.99      17.0  T
   8    -78.0474710 -0.116030E-07  0.354E-04    3.99      39.9  T
     SCC iter.                  ...        0 min,  0.023 sec
     gradient                   ...        0 min,  0.010 sec
 * total energy  :   -76.8711461 Eh     change       -0.5754129E-04 Eh
   gradient norm :     0.0016480 Eh/α   predicted    -0.2462588E-04 ( -57.20%)
   displ. norm   :     0.2606241 α      lambda       -0.3320112E-04
   maximum displ.:     0.1807607 α      in ANC's #1, #6, #3, ...

........................................................................
.............................. CYCLE   52 ..............................
........................................................................

 iter      E             dE          RMSdq      gap      omega  full diag
   1    -78.0470898 -0.780471E+02  0.473E-02    3.99       0.0  T
   2    -78.0470905 -0.720861E-06  0.266E-02    3.99       1.0  T
   3    -78.0470899  0.596628E-06  0.665E-03    3.99       2.1  T
   4    -78.0470907 -0.814190E-06  0.269E-03    3.99       5.2  T
   5    -78.0470908 -0.109328E-06  0.142E-03    3.99       9.9  T
   6    -78.0470908 -0.364191E-07  0.913E-04    3.99      15.5  T
   7    -78.0470909 -0.850004E-08  0.595E-04    3.99      23.8  T
     SCC iter.                  ...        0 min,  0.020 sec
     gradient                   ...        0 min,  0.010 sec
 * total energy  :   -76.8711890 Eh     change       -0.4295721E-04 Eh
   gradient norm :     0.0011330 Eh/α   predicted    -0.1710399E-04 ( -60.18%)
   displ. norm   :     0.1811717 α      lambda       -0.2543561E-04
   maximum displ.:     0.1306987 α      in ANC's #1, #3, #7, ...

........................................................................
.............................. CYCLE   53 ..............................
........................................................................

 iter      E             dE          RMSdq      gap      omega  full diag
   1    -78.0468017 -0.780468E+02  0.305E-02    3.99       0.0  T
   2    -78.0468020 -0.325718E-06  0.173E-02    3.99       1.0  T
   3    -78.0468019  0.144057E-06  0.410E-03    3.99       3.5  T
   4    -78.0468021 -0.254727E-06  0.164E-03    3.99       8.6  T
   5    -78.0468022 -0.198235E-07  0.928E-04    3.99      15.2  T
   6    -78.0468022 -0.172793E-07  0.601E-04    3.99      23.5  T
     SCC iter.                  ...        0 min,  0.017 sec
     gradient                   ...        0 min,  0.010 sec
 * total energy  :   -76.8712241 Eh     change       -0.3508993E-04 Eh
   gradient norm :     0.0008339 Eh/α   predicted    -0.1290404E-04 ( -63.23%)
   displ. norm   :     0.1650933 α      lambda       -0.2756140E-04
   maximum displ.:     0.1198439 α      in ANC's #1, #2, #3, ...

........................................................................
.............................. CYCLE   54 ..............................
........................................................................

 iter      E             dE          RMSdq      gap      omega  full diag
   1    -78.0468108 -0.780468E+02  0.273E-02    3.99       0.0  T
   2    -78.0468110 -0.243502E-06  0.154E-02    3.99       1.0  T
   3    -78.0468110  0.285304E-07  0.351E-03    3.98       4.0  T
   4    -78.0468111 -0.108620E-06  0.144E-03    3.99       9.8  T
   5    -78.0468111 -0.119141E-07  0.728E-04    3.99      19.4  T
   6    -78.0468111 -0.757289E-08  0.524E-04    3.99      27.0  T
     SCC iter.                  ...        0 min,  0.017 sec
     gradient                   ...        0 min,  0.010 sec
 * total energy  :   -76.8712631 Eh     change       -0.3901329E-04 Eh
   gradient norm :     0.0011389 Eh/α   predicted    -0.1395154E-04 ( -64.24%)
   displ. norm   :     0.2304709 α      lambda       -0.4093738E-04
   maximum displ.:     0.1644055 α      in ANC's #1, #2, #7, ...

........................................................................
.............................. CYCLE   55 ..............................
........................................................................

 iter      E             dE          RMSdq      gap      omega  full diag
   1    -78.0466030 -0.780466E+02  0.384E-02    3.98       0.0  T
   2    -78.0466035 -0.474866E-06  0.216E-02    3.98       1.0  T
   3    -78.0466035  0.191993E-07  0.459E-03    3.98       3.1  T
   4    -78.0466037 -0.170183E-06  0.203E-03    3.98       7.0  T
   5    -78.0466037 -0.219315E-07  0.931E-04    3.98      15.2  T
   6    -78.0466037 -0.118816E-07  0.696E-04    3.98      20.3  T
     SCC iter.                  ...        0 min,  0.017 sec
     gradient                   ...        0 min,  0.010 sec
 * total energy  :   -76.8713213 Eh     change       -0.5814040E-04 Eh
   gradient norm :     0.0017401 Eh/α   predicted    -0.2095671E-04 ( -63.95%)
   displ. norm   :     0.3485634 α      lambda       -0.6172091E-04
   maximum displ.:     0.2451415 α      in ANC's #1, #2, #7, ...

........................................................................
.............................. CYCLE   56 ..............................
........................................................................

 iter      E             dE          RMSdq      gap      omega  full diag
   1    -78.0460702 -0.780461E+02  0.586E-02    3.98       0.0  T
[...]
          :  net charge                          1          :
          :  unpaired electrons                  0          :
          ...................................................

 iter      E             dE          RMSdq      gap      omega  full diag
   1    -78.0518435 -0.780518E+02  0.160E-04    3.94       0.0  T
   2    -78.0518435 -0.253536E-09  0.101E-04    3.94     140.7  T
   3    -78.0518435 -0.315552E-09  0.553E-05    3.94     255.9  T

   *** convergence criteria satisfied after 3 iterations ***

         #    Occupation            Energy/Eh            Energy/eV
      -------------------------------------------------------------
         1        2.0000           -1.1734636             -31.9316
       ...           ...                  ...                  ...
        64        2.0000           -0.5412775             -14.7289
        65        2.0000           -0.5390197             -14.6675
        66        2.0000           -0.5387035             -14.6589
        67        2.0000           -0.5348294             -14.5534
        68        2.0000           -0.5345261             -14.5452
        69        2.0000           -0.5309807             -14.4487
        70        2.0000           -0.5284387             -14.3795 (HOMO)
        71                         -0.3836303             -10.4391 (LUMO)
        72                         -0.3742788             -10.1846
        73                         -0.3629851              -9.8773
        74                         -0.3569006              -9.7118
        75                         -0.3517434              -9.5714
       ...                                ...                  ...
       146                          1.1630448              31.6481
      -------------------------------------------------------------
                  HL-Gap            0.1448084 Eh            3.9404 eV
             Fermi-level           -0.4560345 Eh          -12.4093 eV

 SCC (total)                   0 d,  0 h,  0 min,  0.023 sec
 SCC setup                      ...        0 min,  0.000 sec (  0.499%)
 Dispersion                     ...        0 min,  0.000 sec (  1.400%)
 classical contributions        ...        0 min,  0.000 sec (  0.212%)
 integral evaluation            ...        0 min,  0.003 sec ( 12.665%)
 iterations                     ...        0 min,  0.009 sec ( 40.146%)
 molecular gradient             ...        0 min,  0.010 sec ( 43.965%)
 printout                       ...        0 min,  0.000 sec (  1.044%)

         :::::::::::::::::::::::::::::::::::::::::::::::::::::
         ::                     SUMMARY                     ::
         :::::::::::::::::::::::::::::::::::::::::::::::::::::
         :: total energy             -76.876108329854 Eh    ::
         :: gradient norm              0.000453426217 Eh/a0 ::
         :: HOMO-LUMO gap              3.940437566905 eV    ::
         ::.................................................::
         :: SCC energy               -78.050245152826 Eh    ::
         :: -> isotropic ES            0.123646600561 Eh    ::
         :: -> anisotropic ES         -0.029004577255 Eh    ::
         :: -> anisotropic XC          0.028794440654 Eh    ::
         :: -> dispersion             -0.065865226216 Eh    ::
         :: repulsion energy           1.174136822972 Eh    ::
         :: add. restraining           0.000000000000 Eh    ::
         :: total charge               1.000000000000 e     ::
         :::::::::::::::::::::::::::::::::::::::::::::::::::::

           -------------------------------------------------
          |                Property Printout                |
           -------------------------------------------------

    * Orbital Energies and Occupations

         #    Occupation            Energy/Eh            Energy/eV
      -------------------------------------------------------------
         1        2.0000           -1.1734636             -31.9316
       ...           ...                  ...                  ...
        58        2.0000           -0.5550851             -15.1046
        59        2.0000           -0.5528986             -15.0451
        60        2.0000           -0.5506367             -14.9836
        61        2.0000           -0.5487222             -14.9315
        62        2.0000           -0.5467489             -14.8778
        63        2.0000           -0.5442490             -14.8098
        64        2.0000           -0.5412775             -14.7289
        65        2.0000           -0.5390197             -14.6675
        66        2.0000           -0.5387035             -14.6589
        67        2.0000           -0.5348294             -14.5534
        68        2.0000           -0.5345261             -14.5452
        69        2.0000           -0.5309807             -14.4487
        70        2.0000           -0.5284387             -14.3795 (HOMO)
        71                         -0.3836303             -10.4391 (LUMO)
        72                         -0.3742788             -10.1846
        73                         -0.3629851              -9.8773
        74                         -0.3569006              -9.7118
        75                         -0.3517434              -9.5714
        76                         -0.3486454              -9.4871
        77                         -0.3403655              -9.2618
        78                         -0.2730451              -7.4299
        79                         -0.2643703              -7.1939
        80                         -0.2592172              -7.0537
        81                         -0.2517171              -6.8496
       ...                                ...                  ...
       146                          1.1630448              31.6481
      -------------------------------------------------------------
                  HL-Gap            0.1448084 Eh            3.9404 eV
             Fermi-level           -0.4560345 Eh          -12.4093 eV

     #   Z          covCN         q      C6AA      α(0)
     1  17 Cl       0.895    -0.276   107.912    15.892
     2  16 S        3.634     1.225   100.432    16.867
     3   8 O        0.861    -0.532    24.509     6.638
     4   8 O        0.860    -0.540    24.694     6.663
     5   6 C        3.799    -0.156    23.526     6.906
     6   6 C        3.852    -0.075    21.900     6.656
     7   6 C        3.881    -0.080    21.973     6.665
     8   6 C        3.750    -0.079    22.076     6.701
     9  15 P        4.333     0.151   153.704    22.271
    10   6 C        2.922     0.002    27.986     8.675
    11   6 C        2.982    -0.028    28.692     8.787
    12   6 C        2.920    -0.017    28.425     8.743
    13   6 C        2.919    -0.012    28.315     8.726
    14   6 C        2.918    -0.019    28.481     8.752
    15   6 C        3.037    -0.023    28.537     8.762
    16   6 C        2.921    -0.003    28.101     8.693
    17   6 C        3.016    -0.026    28.619     8.775
    18   6 C        2.919    -0.018    28.449     8.747
    19   6 C        2.920    -0.013    28.329     8.728
    20   6 C        2.919    -0.019    28.475     8.751
    21   6 C        2.991    -0.023    28.561     8.767
    22   6 C        2.921    -0.002    28.073     8.689
    23   6 C        2.990    -0.024    28.594     8.772
    24   6 C        2.919    -0.019    28.476     8.751
    25   6 C        2.920    -0.013    28.337     8.729
    26   6 C        2.918    -0.020    28.497     8.754
    27   6 C        3.018    -0.025    28.597     8.772
    28   1 H        0.925     0.097     1.817     2.108
    29   1 H        0.926     0.106     1.727     2.055
    30   1 H        0.924     0.078     1.998     2.210
    31   1 H        0.924     0.083     1.950     2.183
    32   1 H        0.924     0.069     2.099     2.266
    33   1 H        0.925     0.079     1.994     2.208
    34   1 H        0.926     0.105     1.739     2.062
    35   1 H        0.927     0.091     1.866     2.136
    36   1 H        0.926     0.072     2.067     2.248
    37   1 H        0.926     0.069     2.096     2.264
    38   1 H        0.926     0.070     2.090     2.261
    39   1 H        0.926     0.065     2.139     2.287
    40   1 H        0.925     0.053     2.285     2.364
    41   1 H        0.926     0.057     2.232     2.336
    42   1 H        0.926     0.067     2.114     2.274
    43   1 H        0.926     0.070     2.090     2.261
    44   1 H        0.926     0.066     2.130     2.282
    45   1 H        0.926     0.053     2.280     2.361
    46   1 H        0.926     0.057     2.231     2.336
    47   1 H        0.926     0.067     2.119     2.276
    48   1 H        0.926     0.069     2.092     2.262
    49   1 H        0.926     0.065     2.136     2.286
    50   1 H        0.925     0.053     2.284     2.363

 Mol. C6AA /au·bohr⁶  :      36195.863355
 Mol. C8AA /au·bohr⁸  :    1009089.830475
 Mol. α(0) /au        :        304.319555


Wiberg/Mayer (AO) data.
largest (>0.10) Wiberg bond orders for each atom

 ---------------------------------------------------------------------------
     #   Z sym  total        # sym  WBO       # sym  WBO       # sym  WBO
 ---------------------------------------------------------------------------
     1  17 Cl   1.065 --     2 S    0.760
     2  16 S    4.839 --     3 O    1.675     4 O    1.650     1 Cl   0.760
                             5 C    0.718
     3   8 O    1.993 --     2 S    1.675     4 O    0.118
     4   8 O    1.979 --     2 S    1.650     3 O    0.118     5 C    0.104
     5   6 C    3.966 --     6 C    1.019    28 H    0.964    29 H    0.960
                             2 S    0.718     4 O    0.104
     6   6 C    3.983 --     5 C    1.019     7 C    1.004    31 H    0.967
                            30 H    0.962
     7   6 C    3.986 --     6 C    1.004     8 C    0.989    33 H    0.964
                            32 H    0.961
     8   6 C    3.982 --     9 P    1.010     7 C    0.989    35 H    0.929
                            34 H    0.922
     9  15 P    4.603 --     8 C    1.010    10 C    0.995    22 C    0.992
                            16 C    0.988
    10   6 C    3.971 --    11 C    1.384    15 C    1.361     9 P    0.995
                            13 C    0.101
    11   6 C    3.985 --    12 C    1.439    10 C    1.384    36 H    0.950
                            14 C    0.104
    12   6 C    3.988 --    13 C    1.441    11 C    1.439    37 H    0.966
                            15 C    0.108
    13   6 C    3.978 --    12 C    1.441    14 C    1.425    38 H    0.967
                            10 C    0.101
    14   6 C    3.987 --    15 C    1.458    13 C    1.425    39 H    0.966
                            11 C    0.104
    15   6 C    3.990 --    14 C    1.458    10 C    1.361    40 H    0.954
                            12 C    0.108
    16   6 C    3.971 --    21 C    1.381    17 C    1.372     9 P    0.988
                            19 C    0.102
    17   6 C    3.989 --    18 C    1.453    16 C    1.372    41 H    0.956
                            20 C    0.107
    18   6 C    3.987 --    17 C    1.453    19 C    1.430    42 H    0.966
                            21 C    0.106
    19   6 C    3.978 --    20 C    1.437    18 C    1.430    43 H    0.968
                            16 C    0.102
    20   6 C    3.988 --    21 C    1.444    19 C    1.437    44 H    0.966
                            17 C    0.107
    21   6 C    3.988 --    20 C    1.444    16 C    1.381    45 H    0.957
                            18 C    0.106
    22   6 C    3.976 --    23 C    1.383    27 C    1.370     9 P    0.992
                            25 C    0.103
    23   6 C    3.989 --    24 C    1.443    22 C    1.383    46 H    0.957
                            26 C    0.105
    24   6 C    3.988 --    23 C    1.443    25 C    1.439    47 H    0.966
                            27 C    0.108
    25   6 C    3.980 --    24 C    1.439    26 C    1.428    48 H    0.968
                            22 C    0.103
    26   6 C    3.987 --    27 C    1.454    25 C    1.428    49 H    0.966
                            23 C    0.105
    27   6 C    3.989 --    26 C    1.454    22 C    1.370    50 H    0.956
                            24 C    0.108
    28   1 H    0.991 --     5 C    0.964
    29   1 H    0.988 --     5 C    0.960
    30   1 H    0.994 --     6 C    0.962
    31   1 H    0.993 --     6 C    0.967
    32   1 H    0.995 --     7 C    0.961
    33   1 H    0.994 --     7 C    0.964
    34   1 H    0.988 --     8 C    0.922
    35   1 H    0.991 --     8 C    0.929
    36   1 H    0.995 --    11 C    0.950
    37   1 H    0.994 --    12 C    0.966
    38   1 H    0.994 --    13 C    0.967
    39   1 H    0.995 --    14 C    0.966
    40   1 H    0.997 --    15 C    0.954
    41   1 H    0.996 --    17 C    0.956
    42   1 H    0.995 --    18 C    0.966
    43   1 H    0.994 --    19 C    0.968
    44   1 H    0.995 --    20 C    0.966
    45   1 H    0.997 --    21 C    0.957
    46   1 H    0.997 --    23 C    0.957
    47   1 H    0.995 --    24 C    0.966
    48   1 H    0.994 --    25 C    0.968
    49   1 H    0.995 --    26 C    0.966
    50   1 H    0.997 --    27 C    0.956
 ---------------------------------------------------------------------------

Topologies differ in total number of bonds
Writing topology from bond orders to xtbtopo.mol

molecular dipole:
                 x           y           z       tot (Debye)
 q only:        5.644      -9.928      -3.831
   full:        5.611      -9.279      -3.505      28.965
molecular quadrupole (traceless):
                xx          xy          yy          xz          yz          zz
 q only:      -13.800     -66.582      70.492     -24.208      37.668     -56.692
  q+dip:      -12.590     -67.818      66.307     -26.416      36.470     -53.716
   full:      -12.186     -64.595      66.793     -24.821      36.971     -54.607

           -------------------------------------------------
          |                Geometry Summary                 |
           -------------------------------------------------

      molecular mass/u    :      417.9091239
   center of mass at/Å    :        2.1099703      -3.9612832      -0.7532738
  moments of inertia/u·Å² :        0.2609279E+04   0.4537761E+04   0.4887998E+04
rotational constants/cm⁻¹ :        0.6460647E-02   0.3714967E-02   0.3448780E-02

 * 52 selected distances

     #   Z          #   Z                                           value/Å
     1  17 Cl       2  16 S                                       2.0496317 (max)
     2  16 S        3   8 O                                       1.4185491
     2  16 S        4   8 O                                       1.4239276
     2  16 S        5   6 C                                       1.8096415
     5   6 C        6   6 C                                       1.5111572
     6   6 C        7   6 C                                       1.5306322
     7   6 C        8   6 C                                       1.5316589
     8   6 C        9  15 P                                       1.8287557
     9  15 P       10   6 C                                       1.8006188
    10   6 C       11   6 C                                       1.3903301
    11   6 C       12   6 C                                       1.3849647
    12   6 C       13   6 C                                       1.3853689
    13   6 C       14   6 C                                       1.3878148
    10   6 C       15   6 C                                       1.3961542
    14   6 C       15   6 C                                       1.3811689
     9  15 P       16   6 C                                       1.8056266
    16   6 C       17   6 C                                       1.3939530
    17   6 C       18   6 C                                       1.3824614
    18   6 C       19   6 C                                       1.3869996
    19   6 C       20   6 C                                       1.3858095
    16   6 C       21   6 C                                       1.3918423
    20   6 C       21   6 C                                       1.3837644
     9  15 P       22   6 C                                       1.8040138
    22   6 C       23   6 C                                       1.3916314
    23   6 C       24   6 C                                       1.3842484
    24   6 C       25   6 C                                       1.3859591
    25   6 C       26   6 C                                       1.3873562
    22   6 C       27   6 C                                       1.3946821
    26   6 C       27   6 C                                       1.3822240
     5   6 C       28   1 H                                       1.0850073
     5   6 C       29   1 H                                       1.0865087
     6   6 C       30   1 H                                       1.0936632
     6   6 C       31   1 H                                       1.0909947
     7   6 C       32   1 H                                       1.0941768
     7   6 C       33   1 H                                       1.0887801
     8   6 C       34   1 H                                       1.0927312
     8   6 C       35   1 H                                       1.0962997
    11   6 C       36   1 H                                       1.0786690
    12   6 C       37   1 H                                       1.0786524 (min)
    13   6 C       38   1 H                                       1.0788220
    14   6 C       39   1 H                                       1.0789405
    15   6 C       40   1 H                                       1.0823738
    17   6 C       41   1 H                                       1.0809433
    18   6 C       42   1 H                                       1.0788111
    19   6 C       43   1 H                                       1.0787548
    20   6 C       44   1 H                                       1.0789443
    21   6 C       45   1 H                                       1.0809897
    23   6 C       46   1 H                                       1.0806760
    24   6 C       47   1 H                                       1.0787879
    25   6 C       48   1 H                                       1.0787159
    26   6 C       49   1 H                                       1.0789159
    27   6 C       50   1 H                                       1.0819217

 * 6 distinct bonds (by element types)

   Z      Z             #   av. dist./Å        max./Å        min./Å
   1 H    6 C          23     1.0836122     1.0962997     1.0786524
   6 C    6 C          21     1.4071515     1.5316589     1.3811689
   6 C   15 P           4     1.8097537     1.8287557     1.8006188
   6 C   16 S           1     1.8096415     1.8096415     1.8096415
   8 O   16 S           2     1.4212384     1.4239276     1.4185491
  16 S   17 Cl          1     2.0496317     2.0496317     2.0496317


optimized geometry written to: xtbopt.xyz


           -------------------------------------------------
          | TOTAL ENERGY              -76.876108329854 Eh   |
          | GRADIENT NORM               0.000453426217 Eh/α |
          | HOMO-LUMO GAP               3.940437566905 eV   |
           -------------------------------------------------

------------------------------------------------------------------------
 * finished run on 2024/12/20 at 07:07:57.375     
------------------------------------------------------------------------
 total:
 * wall-time:     0 d,  0 h,  0 min,  3.780 sec
 *  cpu-time:     0 d,  0 h,  0 min, 29.718 sec
 * ratio c/w:     7.863 speedup
 SCF:
 * wall-time:     0 d,  0 h,  0 min,  0.068 sec
 *  cpu-time:     0 d,  0 h,  0 min,  0.543 sec
 * ratio c/w:     7.948 speedup
 ANC optimizer:
 * wall-time:     0 d,  0 h,  0 min,  3.691 sec
 *  cpu-time:     0 d,  0 h,  0 min, 29.028 sec
 * ratio c/w:     7.864 speedup

