      -----------------------------------------------------------      
     |                   =====================                   |     
     |                           x T B                           |     
     |                   =====================                   |     
     |                         S. Grimme                         |     
     |          Mulliken Center for Theoretical Chemistry        |     
     |                    University of Bonn                     |     
      -----------------------------------------------------------      

   * xtb version 6.7.1 (edcfbbe) compiled by 'conda@3ef47c1a292c' on 2024-11-25

   xtb is free software: you can redistribute it and/or modify it under
   the terms of the GNU Lesser General Public License as published by
   the Free Software Foundation, either version 3 of the License, or
   (at your option) any later version.
   
   xtb is distributed in the hope that it will be useful,
   but WITHOUT ANY WARRANTY; without even the implied warranty of
   MERCHANTABILITY or FITNESS FOR A PARTICULAR PURPOSE.  See the
   GNU Lesser General Public License for more details.
   
   Cite this work as:
   * C. Bannwarth, E. Caldeweyher, S. Ehlert, A. Hansen, P. Pracht,
     J. Seibert, S. Spicher, S. Grimme, WIREs Comput. Mol. Sci., 2020, 11,
     e01493. DOI: 10.1002/wcms.1493
   
   for GFN2-xTB:
   * C. Bannwarth, S. Ehlert and S. Grimme., J. Chem. Theory Comput., 2019,
     15, 1652-1671. DOI: 10.1021/acs.jctc.8b01176
   for GFN1-xTB:
   * S. Grimme, C. Bannwarth, P. Shushkov, J. Chem. Theory Comput., 2017,
     13, 1989-2009. DOI: 10.1021/acs.jctc.7b00118
   for GFN0-xTB:
   * P. Pracht, E. Caldeweyher, S. Ehlert, S. Grimme, ChemRxiv, 2019, preprint.
     DOI: 10.26434/chemrxiv.8326202.v1
   for GFN-FF:
   * S. Spicher and S. Grimme, Angew. Chem. Int. Ed., 2020, 59, 15665-15673.
     DOI: 10.1002/anie.202004239
   
   for ALPB and GBSA implicit solvation:
   * S. Ehlert, M. Stahn, S. Spicher, S. Grimme, J. Chem. Theory Comput.,
     2021, 17, 4250-4261. DOI: 10.1021/acs.jctc.1c00471
   
   for ddCOSMO and CPCM-X implicit solvation:
   * M. Stahn, S. Ehlert, S. Grimme, J. Phys. Chem. A,
     2023, XX, XXXX-XXXX. DOI: 10.1021/acs.jpca.3c04382
   
   for DFT-D4:
   * E. Caldeweyher, C. Bannwarth and S. Grimme, J. Chem. Phys., 2017,
     147, 034112. DOI: 10.1063/1.4993215
   * E. Caldeweyher, S. Ehlert, A. Hansen, H. Neugebauer, S. Spicher,
     C. Bannwarth and S. Grimme, J. Chem. Phys., 2019, 150, 154122.
     DOI: 10.1063/1.5090222
   * E. Caldeweyher, J.-M. Mewes, S. Ehlert and S. Grimme, Phys. Chem. Chem. Phys.
     2020, 22, 8499-8512. DOI: 10.1039/D0CP00502A
   
   for sTDA-xTB:
   * S. Grimme and C. Bannwarth, J. Chem. Phys., 2016, 145, 054103.
     DOI: 10.1063/1.4959605
   
   in the mass-spec context:
   * V. Asgeirsson, C. Bauer and S. Grimme, Chem. Sci., 2017, 8, 4879.
     DOI: 10.1039/c7sc00601b
   * J. Koopman and S. Grimme, ACS Omega 2019, 4, 12, 15120-15133.
     DOI: 10.1021/acsomega.9b02011
   
   for metadynamics refer to:
   * S. Grimme, J. Chem. Theory Comput., 2019, 155, 2847-2862
     DOI: 10.1021/acs.jctc.9b00143
   
   for SPH calculations refer to:
   * S. Spicher and S. Grimme, J. Chem. Theory Comput., 2021, 17, 1701-1714
     DOI: 10.1021/acs.jctc.0c01306
   
   for ONIOM refer to:
   * C. Plett, A. Katbashev, S. Ehlert, S. Grimme, M. Bursch,
     Phys. Chem. Chem. Phys., 2023, 25, 17860-17868. DOI: 10.1039/D3CP02178E
   
   for DIPRO refer to:
   * J. Kohn, N. Gildemeister, S. Grimme, D. Fazzi, A. Hansen,
     J. Chem. Phys., 2023, just accepted.
   
   for PTB refer to:
   * S. Grimme, M. Mueller, A. Hansen, J. Chem. Phys., 2023, 158, 124111.
     DOI: 10.1063/5.0137838
   
   with help from (in alphabetical order)
   P. Atkinson, C. Bannwarth, F. Bohle, G. Brandenburg, E. Caldeweyher
   M. Checinski, S. Dohm, S. Ehlert, S. Ehrlich, I. Gerasimov, C. Hölzer
   A. Katbashev, J. Kohn, J. Koopman, C. Lavigne, S. Lehtola, F. März, M. Müller,
   F. Musil, H. Neugebauer, J. Pisarek, C. Plett, P. Pracht, F. Pultar,
   J. Seibert, P. Shushkov, S. Spicher, M. Stahn, M. Steiner, T. Strunk,
   J. Stückrath, T. Rose, and J. Unsleber
   
 * started run on 2024/12/20 at 07:07:35.029     
   ID    Z sym.   atoms
    1    6 C      1, 2, 4-9
    2   15 P      3
    3    1 H      10-29

           -------------------------------------------------
          |                Calculation Setup                |
           -------------------------------------------------

          program call               : xtb C0991.xyz --opt --namespace C0991 --charge +1
          calculation namespace      : C0991
          coordinate file            : C0991.xyz
          omp threads                :                     8


           -------------------------------------------------
          |                 G F N 2 - x T B                 |
           -------------------------------------------------

        Reference                      10.1021/acs.jctc.8b01176
      * Hamiltonian:
        H0-scaling (s, p, d)           1.850000    2.230000    2.230000
        zeta-weighting                 0.500000
      * Dispersion:
        s8                             2.700000
        a1                             0.520000
        a2                             5.000000
        s9                             5.000000
      * Repulsion:
        kExp                           1.500000    1.000000
        rExp                           1.000000
      * Coulomb:
        alpha                          2.000000
        third order                    shell-resolved
        anisotropic                    true
        a3                             3.000000
        a5                             4.000000
        cn-shift                       1.200000
        cn-exp                         4.000000
        max-rad                        5.000000


          ...................................................
          :                      SETUP                      :
          :.................................................:
          :  # basis functions                  62          :
          :  # atomic orbitals                  61          :
          :  # shells                           39          :
          :  # electrons                        56          :
          :  max. iterations                   250          :
          :  Hamiltonian                  GFN2-xTB          :
          :  restarted?                      false          :
          :  GBSA solvation                  false          :
          :  PC potential                    false          :
          :  electronic temp.          300.0000000     K    :
          :  accuracy                    1.0000000          :
          :  -> integral cutoff          0.2500000E+02      :
          :  -> integral neglect         0.1000000E-07      :
          :  -> SCF convergence          0.1000000E-05 Eh   :
          :  -> wf. convergence          0.1000000E-03 e    :
          :  Broyden damping             0.4000000          :
          :  net charge                          1          :
          :  unpaired electrons                  0          :
          ...................................................

 iter      E             dE          RMSdq      gap      omega  full diag
   1    -29.8400954 -0.298401E+02  0.304E+00    8.68       0.0  T
   2    -29.8973066 -0.572112E-01  0.182E+00    8.30       1.0  T
   3    -29.9012155 -0.390888E-02  0.677E-01    8.10       1.0  T
   4    -29.9015379 -0.322437E-03  0.239E-01    8.01       1.0  T
   5    -29.9016227 -0.848104E-04  0.666E-02    8.03       1.0  T
   6    -29.9016299 -0.713747E-05  0.326E-02    8.02       1.0  T
   7    -29.9016302 -0.389465E-06  0.891E-03    8.02       2.1  T
   8    -29.9016307 -0.492958E-06  0.298E-03    8.02       6.2  T
   9    -29.9016307 -0.130275E-07  0.874E-04    8.02      21.2  T
  10    -29.9016307 -0.127334E-08  0.349E-04    8.02      53.2  T

   *** convergence criteria satisfied after 10 iterations ***

         #    Occupation            Energy/Eh            Energy/eV
      -------------------------------------------------------------
         1        2.0000           -0.8632569             -23.4904
       ...           ...                  ...                  ...
        22        2.0000           -0.6043610             -16.4455
        23        2.0000           -0.5979018             -16.2697
        24        2.0000           -0.5906624             -16.0727
        25        2.0000           -0.5894918             -16.0409
        26        2.0000           -0.5831890             -15.8694
        27        2.0000           -0.5806618             -15.8006
        28        2.0000           -0.5759605             -15.6727 (HOMO)
        29                         -0.2812343              -7.6528 (LUMO)
        30                         -0.2622885              -7.1372
        31                         -0.2534006              -6.8954
        32                         -0.1442469              -3.9252
        33                         -0.1224085              -3.3309
       ...                                ...                  ...
        61                          0.8644091              23.5218
      -------------------------------------------------------------
                  HL-Gap            0.2947262 Eh            8.0199 eV
             Fermi-level           -0.4285974 Eh          -11.6627 eV

 SCC (total)                   0 d,  0 h,  0 min,  0.018 sec
 SCC setup                      ...        0 min,  0.000 sec (  0.618%)
 Dispersion                     ...        0 min,  0.000 sec (  1.166%)
 classical contributions        ...        0 min,  0.000 sec (  0.276%)
 integral evaluation            ...        0 min,  0.002 sec ( 11.104%)
 iterations                     ...        0 min,  0.013 sec ( 69.870%)
 molecular gradient             ...        0 min,  0.003 sec ( 16.219%)
 printout                       ...        0 min,  0.000 sec (  0.651%)

         :::::::::::::::::::::::::::::::::::::::::::::::::::::
         ::                     SUMMARY                     ::
         :::::::::::::::::::::::::::::::::::::::::::::::::::::
         :: total energy             -29.450959911029 Eh    ::
         :: gradient norm              0.061874917436 Eh/a0 ::
         :: HOMO-LUMO gap              8.019907083058 eV    ::
         ::.................................................::
         :: SCC energy               -29.901302907881 Eh    ::
         :: -> isotropic ES            0.084089362223 Eh    ::
         :: -> anisotropic ES         -0.006138271152 Eh    ::
         :: -> anisotropic XC          0.019124165217 Eh    ::
         :: -> dispersion             -0.022022961286 Eh    ::
         :: repulsion energy           0.450342996853 Eh    ::
         :: add. restraining           0.000000000000 Eh    ::
         :: total charge               1.000000000000 e     ::
         :::::::::::::::::::::::::::::::::::::::::::::::::::::

      ----------------------------------------------------------- 
     |                   =====================                   |
     |                        A N C O P T                        |
     |                   =====================                   |
     |               Approximate Normal Coordinate               |
     |                Rational Function Optimizer                |
      ----------------------------------------------------------- 
      ----------------------------------------------------------- 
     |                   =====================                   |
     |                        A N C O P T                        |
     |                   =====================                   |
     |               Approximate Normal Coordinate               |
     |                Rational Function Optimizer                |
      ----------------------------------------------------------- 

          ...................................................
          :                      SETUP                      :
          :.................................................:
          :   optimization level            normal          :
          :   max. optcycles                   200          :
          :   ANC micro-cycles                  20          :
          :   degrees of freedom                81          :
          :.................................................:
          :   RF solver                   davidson          :
          :   write xtbopt.log                true          :
          :   linear?                        false          :
          :   energy convergence         0.5000000E-05 Eh   :
          :   grad. convergence          0.1000000E-02 Eh/α :
          :   maxmium RF displ.          1.0000000          :
          :   Hlow (freq-cutoff)         0.1000000E-01      :
          :   Hmax (freq-cutoff)         5.0000000          :
          :   S6 in model hess.         20.0000000          :
          ...................................................

generating ANC from exact Hessian ...
Using Lindh-Hessian (1995)
 Shifting diagonal of input Hessian by    7.9543790652515239E-003
 Lowest  eigenvalues of input Hessian
    0.000000    0.000000    0.000000    0.000000    0.000000    0.000000
    0.010000    0.010188    0.010576    0.010912    0.011505    0.012696
    0.012963    0.013187    0.014015    0.018257    0.018782    0.019625
 Highest eigenvalues
    1.207188    1.227529    1.246568    1.353912    1.383418    1.390781


........................................................................
.............................. CYCLE    1 ..............................
........................................................................

 iter      E             dE          RMSdq      gap      omega  full diag
   1    -29.9016307 -0.299016E+02  0.764E-05    8.02       0.0  T
   2    -29.9016307 -0.267377E-10  0.273E-05    8.02     681.3  T
   3    -29.9016307 -0.230216E-11  0.138E-05    8.02    1345.2  T
     SCC iter.                  ...        0 min,  0.002 sec
     gradient                   ...        0 min,  0.003 sec
 * total energy  :   -29.4509599 Eh     change       -0.5093241E-09 Eh
   gradient norm :     0.0618737 Eh/α   predicted     0.0000000E+00 (-100.00%)
   displ. norm   :     0.1761148 α      lambda       -0.7227133E-02
   maximum displ.:     0.0873837 α      in ANC's #34, #54, #58, ...

........................................................................
.............................. CYCLE    2 ..............................
........................................................................

 iter      E             dE          RMSdq      gap      omega  full diag
   1    -29.8999811 -0.299000E+02  0.181E-01    7.90       0.0  T
   2    -29.9000025 -0.214265E-04  0.101E-01    7.91       1.0  T
   3    -29.9000044 -0.192500E-05  0.202E-02    7.93       1.0  T
   4    -29.9000051 -0.645388E-06  0.584E-03    7.93       3.2  T
   5    -29.9000052 -0.163177E-06  0.201E-03    7.93       9.2  T
   6    -29.9000052 -0.613046E-08  0.986E-04    7.93      18.8  T
   7    -29.9000052 -0.149265E-08  0.182E-04    7.93     102.0  T
     SCC iter.                  ...        0 min,  0.005 sec
     gradient                   ...        0 min,  0.003 sec
 * total energy  :   -29.4557973 Eh     change       -0.4837434E-02 Eh
   gradient norm :     0.0263972 Eh/α   predicted    -0.3725670E-02 ( -22.98%)
   displ. norm   :     0.1344596 α      lambda       -0.2071574E-02
   maximum displ.:     0.0877863 α      in ANC's #22, #54, #58, ...

........................................................................
.............................. CYCLE    3 ..............................
........................................................................

 iter      E             dE          RMSdq      gap      omega  full diag
   1    -29.8974511 -0.298975E+02  0.861E-02    7.75       0.0  T
   2    -29.8974643 -0.132366E-04  0.460E-02    7.76       1.0  T
   3    -29.8974655 -0.116847E-05  0.159E-02    7.77       1.2  T
   4    -29.8974656 -0.114328E-06  0.440E-03    7.77       4.2  T
   5    -29.8974657 -0.107371E-06  0.174E-03    7.77      10.7  T
   6    -29.8974657 -0.198128E-08  0.860E-04    7.77      21.6  T
   7    -29.8974657 -0.121513E-08  0.160E-04    7.77     116.0  T
     SCC iter.                  ...        0 min,  0.005 sec
     gradient                   ...        0 min,  0.003 sec
 * total energy  :   -29.4570187 Eh     change       -0.1221394E-02 Eh
   gradient norm :     0.0073115 Eh/α   predicted    -0.1054515E-02 ( -13.66%)
   displ. norm   :     0.0642380 α      lambda       -0.1726989E-03
   maximum displ.:     0.0334390 α      in ANC's #22, #5, #6, ...

........................................................................
.............................. CYCLE    4 ..............................
........................................................................

 iter      E             dE          RMSdq      gap      omega  full diag
   1    -29.8963836 -0.298964E+02  0.277E-02    7.71       0.0  T
   2    -29.8963850 -0.137175E-05  0.151E-02    7.71       1.2  T
   3    -29.8963851 -0.938230E-07  0.560E-03    7.71       3.3  T
   4    -29.8963851 -0.254425E-07  0.187E-03    7.71       9.9  T
   5    -29.8963851 -0.221528E-07  0.687E-04    7.71      27.0  T
   6    -29.8963851 -0.277510E-09  0.292E-04    7.71      63.5  T
     SCC iter.                  ...        0 min,  0.004 sec
     gradient                   ...        0 min,  0.003 sec
 * total energy  :   -29.4571271 Eh     change       -0.1083375E-03 Eh
   gradient norm :     0.0028923 Eh/α   predicted    -0.8689272E-04 ( -19.79%)
   displ. norm   :     0.0554880 α      lambda       -0.3774211E-04
   maximum displ.:     0.0335464 α      in ANC's #5, #6, #3, ...

........................................................................
.............................. CYCLE    5 ..............................
........................................................................

 iter      E             dE          RMSdq      gap      omega  full diag
   1    -29.8959538 -0.298960E+02  0.142E-02    7.69       0.0  T
   2    -29.8959541 -0.220476E-06  0.792E-03    7.69       2.3  T
   3    -29.8959541 -0.367892E-08  0.259E-03    7.69       7.2  T
   4    -29.8959541 -0.160498E-07  0.774E-04    7.69      24.0  T
   5    -29.8959541 -0.328964E-08  0.284E-04    7.69      65.4  T
     SCC iter.                  ...        0 min,  0.003 sec
     gradient                   ...        0 min,  0.003 sec
 * total energy  :   -29.4571548 Eh     change       -0.2770637E-04 Eh
   gradient norm :     0.0010873 Eh/α   predicted    -0.1893761E-04 ( -31.65%)
   displ. norm   :     0.1407706 α      lambda       -0.3674572E-04
   maximum displ.:     0.0867042 α      in ANC's #5, #6, #1, ...

........................................................................
.............................. CYCLE    6 ..............................
........................................................................

 iter      E             dE          RMSdq      gap      omega  full diag
   1    -29.8953014 -0.298953E+02  0.292E-02    7.68       0.0  T
   2    -29.8953018 -0.362978E-06  0.167E-02    7.68       1.1  T
   3    -29.8953018  0.457020E-07  0.419E-03    7.68       4.4  T
   4    -29.8953018 -0.913620E-07  0.895E-04    7.68      20.7  T
   5    -29.8953019 -0.316852E-08  0.350E-04    7.68      53.0  T
     SCC iter.                  ...        0 min,  0.003 sec
     gradient                   ...        0 min,  0.003 sec
 * total energy  :   -29.4571919 Eh     change       -0.3709593E-04 Eh
   gradient norm :     0.0034344 Eh/α   predicted    -0.1853536E-04 ( -50.03%)
   displ. norm   :     0.0925959 α      lambda        0.5029858E-05
   maximum displ.:     0.0570356 α      in ANC's #5, #6, #1, ...

........................................................................
.............................. CYCLE    7 ..............................
........................................................................

 iter      E             dE          RMSdq      gap      omega  full diag
   1    -29.8946458 -0.298946E+02  0.192E-02    7.67       0.0  T
   2    -29.8946460 -0.169567E-06  0.110E-02    7.67       1.7  T
   3    -29.8946460  0.174398E-07  0.264E-03    7.67       7.0  T
   4    -29.8946460 -0.358517E-07  0.613E-04    7.67      30.3  T
   5    -29.8946460 -0.167116E-08  0.231E-04    7.67      80.3  T
     SCC iter.                  ...        0 min,  0.003 sec
     gradient                   ...        0 min,  0.003 sec
 * total energy  :   -29.4571957 Eh     change       -0.3870393E-05 Eh
   gradient norm :     0.0058560 Eh/α   predicted     0.2534591E-05 (-165.49%)
   displ. norm   :     0.0440761 α      lambda       -0.3260240E-04
   maximum displ.:     0.0246690 α      in ANC's #5, #6, #1, ...

........................................................................
.............................. CYCLE    8 ..............................
........................................................................

 iter      E             dE          RMSdq      gap      omega  full diag
   1    -29.8950596 -0.298951E+02  0.962E-03    7.69       0.0  T
   2    -29.8950596 -0.742886E-07  0.543E-03    7.68       3.4  T
   3    -29.8950596 -0.503086E-09  0.170E-03    7.68      10.9  T
   4    -29.8950597 -0.616353E-08  0.371E-04    7.68      50.1  T
   5    -29.8950597 -0.547239E-09  0.157E-04    7.68     118.3  T
     SCC iter.                  ...        0 min,  0.003 sec
     gradient                   ...        0 min,  0.003 sec
 * total energy  :   -29.4572256 Eh     change       -0.2980681E-04 Eh
   gradient norm :     0.0046185 Eh/α   predicted    -0.1634870E-04 ( -45.15%)
   displ. norm   :     0.2263453 α      lambda       -0.1193217E-03
   maximum displ.:     0.1287611 α      in ANC's #5, #6, #1, ...

........................................................................
.............................. CYCLE    9 ..............................
........................................................................

 iter      E             dE          RMSdq      gap      omega  full diag
   1    -29.8957878 -0.298958E+02  0.465E-02    7.73       0.0  T
   2    -29.8957887 -0.909826E-06  0.267E-02    7.73       1.0  T
   3    -29.8957887  0.183678E-07  0.623E-03    7.73       3.0  T
   4    -29.8957888 -0.126215E-06  0.152E-03    7.73      12.2  T
   5    -29.8957888 -0.738457E-08  0.622E-04    7.73      29.8  T
   6    -29.8957888 -0.229125E-09  0.238E-04    7.73      77.9  T
     SCC iter.                  ...        0 min,  0.004 sec
     gradient                   ...        0 min,  0.003 sec
 * total energy  :   -29.4573061 Eh     change       -0.8055729E-04 Eh
   gradient norm :     0.0014989 Eh/α   predicted    -0.6271796E-04 ( -22.14%)
   displ. norm   :     0.3064305 α      lambda       -0.4530528E-04
   maximum displ.:     0.1826476 α      in ANC's #5, #6, #1, ...

........................................................................
.............................. CYCLE   10 ..............................
........................................................................

 iter      E             dE          RMSdq      gap      omega  full diag
   1    -29.8947447 -0.298947E+02  0.598E-02    7.75       0.0  T
   2    -29.8947451 -0.425347E-06  0.349E-02    7.75       1.0  T
   3    -29.8947450  0.626539E-07  0.543E-03    7.75       3.4  T
   4    -29.8947452 -0.174355E-06  0.133E-03    7.75      13.9  T
   5    -29.8947452 -0.234578E-08  0.502E-04    7.75      37.0  T
   6    -29.8947452 -0.258702E-09  0.154E-04    7.75     120.9  T
     SCC iter.                  ...        0 min,  0.004 sec
     gradient                   ...        0 min,  0.003 sec
 * total energy  :   -29.4573416 Eh     change       -0.3550741E-04 Eh
   gradient norm :     0.0037551 Eh/α   predicted    -0.2360457E-04 ( -33.52%)
   displ. norm   :     0.0620842 α      lambda       -0.3122886E-04
   maximum displ.:     0.0402833 α      in ANC's #5, #6, #1, ...

........................................................................
.............................. CYCLE   11 ..............................
........................................................................

 iter      E             dE          RMSdq      gap      omega  full diag
   1    -29.8957678 -0.298958E+02  0.150E-02    7.74       0.0  T
   2    -29.8957679 -0.105489E-06  0.836E-03    7.74       2.2  T
   3    -29.8957679  0.921842E-08  0.333E-03    7.74       5.6  T
   4    -29.8957680 -0.281270E-07  0.582E-04    7.74      31.9  T
   5    -29.8957680 -0.104333E-09  0.322E-04    7.74      57.7  T
     SCC iter.                  ...        0 min,  0.003 sec
     gradient                   ...        0 min,  0.003 sec
 * total energy  :   -29.4573659 Eh     change       -0.2425156E-04 Eh
   gradient norm :     0.0022554 Eh/α   predicted    -0.1567511E-04 ( -35.36%)
   displ. norm   :     0.1475695 α      lambda       -0.3462218E-04
   maximum displ.:     0.0970171 α      in ANC's #5, #6, #1, ...

........................................................................
.............................. CYCLE   12 ..............................
........................................................................

 iter      E             dE          RMSdq      gap      omega  full diag
   1    -29.8962591 -0.298963E+02  0.318E-02    7.73       0.0  T
   2    -29.8962592 -0.139382E-06  0.184E-02    7.73       1.0  T
   3    -29.8962592  0.219204E-07  0.361E-03    7.73       5.1  T
   4    -29.8962592 -0.575468E-07  0.786E-04    7.73      23.6  T
   5    -29.8962592 -0.667679E-09  0.300E-04    7.73      61.8  T
     SCC iter.                  ...        0 min,  0.003 sec
     gradient                   ...        0 min,  0.003 sec
 * total energy  :   -29.4573876 Eh     change       -0.2168105E-04 Eh
   gradient norm :     0.0006654 Eh/α   predicted    -0.1769066E-04 ( -18.40%)
   displ. norm   :     0.1077632 α      lambda       -0.7027137E-05
   maximum displ.:     0.0718621 α      in ANC's #5, #6, #1, ...

........................................................................
.............................. CYCLE   13 ..............................
........................................................................

 iter      E             dE          RMSdq      gap      omega  full diag
   1    -29.8962858 -0.298963E+02  0.227E-02    7.72       0.0  T
   2    -29.8962858 -0.514937E-07  0.131E-02    7.72       1.4  T
   3    -29.8962858  0.162828E-07  0.232E-03    7.72       8.0  T
   4    -29.8962859 -0.315431E-07  0.529E-04    7.72      35.1  T
   5    -29.8962859 -0.254055E-09  0.144E-04    7.72     129.2  T
     SCC iter.                  ...        0 min,  0.003 sec
     gradient                   ...        0 min,  0.003 sec
 * total energy  :   -29.4573934 Eh     change       -0.5843094E-05 Eh
   gradient norm :     0.0007068 Eh/α   predicted    -0.3532647E-05 ( -39.54%)
   displ. norm   :     0.0257180 α      lambda       -0.2733928E-05
   maximum displ.:     0.0136719 α      in ANC's #3, #11, #12, ...

........................................................................
.............................. CYCLE   14 ..............................
........................................................................

 iter      E             dE          RMSdq      gap      omega  full diag
   1    -29.8966469 -0.298966E+02  0.589E-03    7.72       0.0  T
   2    -29.8966469 -0.150048E-07  0.321E-03    7.72       5.8  T
   3    -29.8966469  0.164387E-08  0.111E-03    7.72      16.7  T
   4    -29.8966469 -0.420402E-08  0.164E-04    7.72     113.2  T
   5    -29.8966469 -0.742411E-10  0.745E-05    7.72     249.2  T
     SCC iter.                  ...        0 min,  0.003 sec
     gradient                   ...        0 min,  0.003 sec
 * total energy  :   -29.4573962 Eh     change       -0.2848451E-05 Eh
   gradient norm :     0.0005892 Eh/α   predicted    -0.1370824E-05 ( -51.87%)
   displ. norm   :     0.0465832 α      lambda       -0.3575161E-05
   maximum displ.:     0.0219483 α      in ANC's #11, #5, #3, ...

   *** GEOMETRY OPTIMIZATION CONVERGED AFTER 14 ITERATIONS ***

------------------------------------------------------------------------
 total energy gain   :        -0.0064363 Eh       -4.0389 kcal/mol
 total RMSD          :         0.2359798 a0        0.1249 Å
 total power (kW/mol):        -1.2070423 (step) -133.8083 (real)
------------------------------------------------------------------------

 ANCopt (total)                0 d,  0 h,  0 min,  0.126 sec
 optimizer setup                ...        0 min,  0.000 sec (  0.067%)
 model hessian                  ...        0 min,  0.023 sec ( 18.360%)
 ANC generation                 ...        0 min,  0.001 sec (  0.629%)
 coordinate transformation      ...        0 min,  0.000 sec (  0.095%)
 single point calculation       ...        0 min,  0.099 sec ( 78.578%)
 optimization log               ...        0 min,  0.001 sec (  0.875%)
 hessian update                 ...        0 min,  0.000 sec (  0.163%)
 rational function              ...        0 min,  0.001 sec (  0.819%)

================
 final structure:
================
29
 xtb: 6.7.1 (edcfbbe)
C            0.98681501380095       -0.10768263212767       -0.05862606735378
C            0.61280818790649       -0.46862363568613        1.37613734048923
P            1.15094999704072        0.79747345190600        2.57585547206962
C            0.60471642574102        2.45678493902285        2.04510463322785
C           -0.91203419714413        2.58846156103047        1.94813752351121
C            0.39309907991393        0.44399110714688        4.20073474152361
C            0.92204103489951       -0.81882189052441        4.87282920698332
C            2.97688052711987        0.85956729761105        2.70308572182681
C            3.67148641513978       -0.48918463356453        2.53692476775554
H            0.43890775607799        0.76570629178742       -0.40278809625085
H            0.74005344573291       -0.93526629798792       -0.71881572905459
H            2.05162411132176        0.09222880818411       -0.15506118860450
H           -0.47002020332410       -0.58252654483324        1.47798667129010
H            1.07615814748372       -1.41458738284079        1.66861391649196
H            1.00767236790293        3.17527863464739        2.76544132959440
H            1.07169752047209        2.66027629985009        1.07721124978278
H           -1.38363109647653        2.46909060681516        2.92015469818271
H           -1.16694299361841        3.57728760573946        1.57544911610267
H           -1.33219283276211        1.85567130946009        1.26324898142613
H            0.57432995059300        1.31724935475113        4.83505253442329
H           -0.68547441307389        0.36045981264212        4.03999649914488
H            1.97769382336176       -0.72562799727358        5.11447044632870
H            0.38375217907342       -0.98348215829843        5.80297945589383
H            0.77668395995817       -1.69469352561815        4.24482698126953
H            3.33148794327720        1.56009752853986        1.94191907387020
H            3.20696693970612        1.29148949643642        3.68150836652602
H            3.52314043092621       -0.89183597454629        1.53861288022579
H            4.74096075348990       -0.35976086998128        2.68509712002371
H            3.32048972545978       -1.21869056228793        3.26132235329982

 Bond Distances (Angstroems)
 ---------------------------
C1-C2=1.5260         C1-H10=1.0869        C1-H11=1.0870        C1-H12=1.0877        C2-C1=1.5260         C2-P3=1.8254         
C2-H13=1.0936        C2-H14=1.0932        P3-C2=1.8254         P3-C4=1.8258         P3-C6=1.8274         P3-C8=1.8314         
C4-P3=1.8258         C4-C5=1.5255         C4-H15=1.0943        C4-H16=1.0938        C5-C4=1.5255         C5-H17=1.0870        
C5-H18=1.0870        C5-H19=1.0875        C6-P3=1.8274         C6-C7=1.5252         C6-H20=1.0944        C6-H21=1.0937        
C7-C6=1.5252         C7-H22=1.0870        C7-H23=1.0872        C7-H24=1.0875        C8-P3=1.8314         C8-C9=1.5262         
C8-H25=1.0936        C8-H26=1.0940        C9-C8=1.5262         C9-H27=1.0866        C9-H28=1.0874        C9-H29=1.0863        
H10-C1=1.0869        H11-C1=1.0870        H12-C1=1.0877        H13-C2=1.0936        H14-C2=1.0932        H15-C4=1.0943        
H16-C4=1.0938        H17-C5=1.0870        H18-C5=1.0870        H19-C5=1.0875        H20-C6=1.0944        H21-C6=1.0937        
H22-C7=1.0870        H23-C7=1.0872        H24-C7=1.0875        H25-C8=1.0936        H26-C8=1.0940        H27-C9=1.0866        
H28-C9=1.0874        H29-C9=1.0863        
 C  H  Rav=1.0898 sigma=0.0033  Rmin=1.0863  Rmax=1.0944    20
 C  C  Rav=1.5257 sigma=0.0004  Rmin=1.5252  Rmax=1.5262     4
 P  C  Rav=1.8275 sigma=0.0024  Rmin=1.8254  Rmax=1.8314     4

 selected bond angles (degree)
 --------------------
H10-C1-C2=111.36               H11-C1-C2=109.59               H11-C1-H10=107.76              H12-C1-C2=111.52               
H12-C1-H10=108.52              H12-C1-H11=107.96              P3-C2-C1=112.44                H13-C2-C1=110.79               
H13-C2-P3=107.64               H14-C2-C1=110.63               H14-C2-P3=107.42               H14-C2-H13=107.74              
C4-P3-C2=110.56                C6-P3-C2=109.15                C6-P3-C4=108.07                C8-P3-C2=111.29                
C8-P3-C4=106.72                C8-P3-C6=110.99                C5-C4-P3=113.23                H15-C4-P3=107.17               
H15-C4-C5=110.57               H16-C4-P3=107.37               H16-C4-C5=110.62               H16-C4-H15=107.65              
H17-C5-C4=111.41               H18-C5-C4=109.48               H18-C5-H17=107.74              H19-C5-C4=111.47               
H19-C5-H17=108.76              H19-C5-H18=107.84              C7-C6-P3=114.09                H20-C6-P3=107.00               
H20-C6-C7=110.35               H21-C6-P3=107.04               H21-C6-C7=110.09               H21-C6-H20=108.02              
H22-C7-C6=111.33               H23-C7-C6=109.31               H23-C7-H22=107.68              H24-C7-C6=111.47               
H24-C7-H22=109.10              H24-C7-H23=107.81              C9-C8-P3=114.60                H25-C8-P3=107.26               
H25-C8-C9=110.05               H26-C8-P3=106.57               H26-C8-C9=110.52               H26-C8-H25=107.54              
H27-C9-C8=111.43               H28-C9-C8=109.12               H28-C9-H27=107.67              H29-C9-C8=111.95               
H29-C9-H27=108.64              H29-C9-H28=107.87              

 selected dihedral angles (degree)
 ---------------------------------
P3-C2-C1-H10=293.24           P3-C2-C1-H11=174.10           P3-C2-C1-H12= 54.63           H13-C2-C1-H10= 53.72          
H13-C2-C1-H11=294.59          H13-C2-C1-H12=175.11          H14-C2-C1-H10=173.13          H14-C2-C1-H11= 54.00          
H14-C2-C1-H12=294.52          C4-P3-C2-C1= 50.63            C4-P3-C2-H13=288.35           C4-P3-C2-H14=172.58           
C6-P3-C2-C1=169.38            C6-P3-C2-H13= 47.09           C6-P3-C2-H14=291.32           C8-P3-C2-C1=292.22            
C8-P3-C2-H13=169.93           C8-P3-C2-H14= 54.16           C5-C4-P3-C2= 61.28            C5-C4-P3-C6=301.88            
C5-C4-P3-C8=182.45            H15-C4-P3-C2=183.46           H15-C4-P3-C6= 64.07           H15-C4-P3-C8=304.63           
H16-C4-P3-C2=298.88           H16-C4-P3-C6=179.48           H16-C4-P3-C8= 60.04           H17-C5-C4-P3= 64.08           
H17-C5-C4-H15=303.81          H17-C5-C4-H16=184.66          H18-C5-C4-P3=183.15           H18-C5-C4-H15= 62.88          
H18-C5-C4-H16=303.73          H19-C5-C4-P3=302.39           H19-C5-C4-H15=182.12          H19-C5-C4-H16= 62.96          
C7-C6-P3-C2= 68.48            C7-C6-P3-C4=188.77            C7-C6-P3-C8=305.47            H20-C6-P3-C2=190.83           
H20-C6-P3-C4=311.11           H20-C6-P3-C8= 67.81           H21-C6-P3-C2=306.44           H21-C6-P3-C4= 66.72           
H21-C6-P3-C8=183.42           H22-C7-C6-P3= 64.20           H22-C7-C6-H20=303.70          H22-C7-C6-H21=184.55          
H23-C7-C6-P3=183.03           H23-C7-C6-H20= 62.54          H23-C7-C6-H21=303.39          H24-C7-C6-P3=302.11           
H24-C7-C6-H20=181.62          H24-C7-C6-H21= 62.47          C9-C8-P3-C2=325.90            C9-C8-P3-C4=205.20            
C9-C8-P3-C6= 87.67            H25-C8-P3-C2= 88.37           H25-C8-P3-C4=327.67           H25-C8-P3-C6=210.15           
H26-C8-P3-C2=203.32           H26-C8-P3-C4= 82.62           H26-C8-P3-C6=325.09           H27-C9-C8-P3= 64.49           
H27-C9-C8-H25=303.53          H27-C9-C8-H26=184.90          H28-C9-C8-P3=183.25           H28-C9-C8-H25= 62.30          
H28-C9-C8-H26=303.67          H29-C9-C8-P3=302.58           H29-C9-C8-H25=181.63          H29-C9-C8-H26= 63.00          
           -------------------------------------------------
          |                Final Singlepoint                |
           -------------------------------------------------

          ...................................................
          :                      SETUP                      :
          :.................................................:
          :  # basis functions                  62          :
          :  # atomic orbitals                  61          :
          :  # shells                           39          :
          :  # electrons                        56          :
          :  max. iterations                   250          :
          :  Hamiltonian                  GFN2-xTB          :
          :  restarted?                      false          :
          :  GBSA solvation                  false          :
          :  PC potential                    false          :
          :  electronic temp.          300.0000000     K    :
          :  accuracy                    1.0000000          :
          :  -> integral cutoff          0.2500000E+02      :
          :  -> integral neglect         0.1000000E-07      :
          :  -> SCF convergence          0.1000000E-05 Eh   :
          :  -> wf. convergence          0.1000000E-03 e    :
          :  Broyden damping             0.4000000          :
          :  net charge                          1          :
          :  unpaired electrons                  0          :
          ...................................................

 iter      E             dE          RMSdq      gap      omega  full diag
   1    -29.8966469 -0.298966E+02  0.235E-05    7.72       0.0  T
   2    -29.8966469 -0.511591E-12  0.137E-05    7.72    1350.8  T
   3    -29.8966469  0.426326E-13  0.638E-06    7.72    2910.2  T

   *** convergence criteria satisfied after 3 iterations ***

         #    Occupation            Energy/Eh            Energy/eV
      -------------------------------------------------------------
         1        2.0000           -0.8560111             -23.2932
       ...           ...                  ...                  ...
        22        2.0000           -0.6023869             -16.3918
        23        2.0000           -0.5980055             -16.2726
        24        2.0000           -0.5923512             -16.1187
        25        2.0000           -0.5911374             -16.0857
        26        2.0000           -0.5804110             -15.7938
        27        2.0000           -0.5788221             -15.7506
        28        2.0000           -0.5767139             -15.6932 (HOMO)
        29                         -0.2929125              -7.9706 (LUMO)
        30                         -0.2822177              -7.6795
        31                         -0.2789908              -7.5917
        32                         -0.1973527              -5.3702
        33                         -0.1201899              -3.2705
       ...                                ...                  ...
        61                          0.7550787              20.5467
      -------------------------------------------------------------
                  HL-Gap            0.2838014 Eh            7.7226 eV
             Fermi-level           -0.4348132 Eh          -11.8319 eV

 SCC (total)                   0 d,  0 h,  0 min,  0.006 sec
 SCC setup                      ...        0 min,  0.000 sec (  0.995%)
 Dispersion                     ...        0 min,  0.000 sec (  1.729%)
 classical contributions        ...        0 min,  0.000 sec (  0.324%)
 integral evaluation            ...        0 min,  0.001 sec ( 14.263%)
 iterations                     ...        0 min,  0.002 sec ( 35.587%)
 molecular gradient             ...        0 min,  0.003 sec ( 45.293%)
 printout                       ...        0 min,  0.000 sec (  1.555%)

         :::::::::::::::::::::::::::::::::::::::::::::::::::::
         ::                     SUMMARY                     ::
         :::::::::::::::::::::::::::::::::::::::::::::::::::::
         :: total energy             -29.457396245109 Eh    ::
         :: gradient norm              0.000589179712 Eh/a0 ::
         :: HOMO-LUMO gap              7.722629244311 eV    ::
         ::.................................................::
         :: SCC energy               -29.896312091146 Eh    ::
         :: -> isotropic ES            0.082802214090 Eh    ::
         :: -> anisotropic ES         -0.006758154723 Eh    ::
         :: -> anisotropic XC          0.019426714294 Eh    ::
         :: -> dispersion             -0.021791314066 Eh    ::
         :: repulsion energy           0.438915846038 Eh    ::
         :: add. restraining           0.000000000000 Eh    ::
         :: total charge               1.000000000000 e     ::
         :::::::::::::::::::::::::::::::::::::::::::::::::::::

           -------------------------------------------------
          |                Property Printout                |
           -------------------------------------------------

    * Orbital Energies and Occupations

         #    Occupation            Energy/Eh            Energy/eV
      -------------------------------------------------------------
         1        2.0000           -0.8560111             -23.2932
       ...           ...                  ...                  ...
        16        2.0000           -0.6428489             -17.4928
        17        2.0000           -0.6347933             -17.2736
        18        2.0000           -0.6271359             -17.0652
        19        2.0000           -0.6206570             -16.8889
        20        2.0000           -0.6172240             -16.7955
        21        2.0000           -0.6117502             -16.6466
        22        2.0000           -0.6023869             -16.3918
        23        2.0000           -0.5980055             -16.2726
        24        2.0000           -0.5923512             -16.1187
        25        2.0000           -0.5911374             -16.0857
        26        2.0000           -0.5804110             -15.7938
        27        2.0000           -0.5788221             -15.7506
        28        2.0000           -0.5767139             -15.6932 (HOMO)
        29                         -0.2929125              -7.9706 (LUMO)
        30                         -0.2822177              -7.6795
        31                         -0.2789908              -7.5917
        32                         -0.1973527              -5.3702
        33                         -0.1201899              -3.2705
        34                         -0.0839754              -2.2851
        35                         -0.0425967              -1.1591
        36                         -0.0365184              -0.9937
        37                         -0.0287129              -0.7813
        38                         -0.0233264              -0.6347
        39                         -0.0184393              -0.5018
       ...                                ...                  ...
        61                          0.7550787              20.5467
      -------------------------------------------------------------
                  HL-Gap            0.2838014 Eh            7.7226 eV
             Fermi-level           -0.4348132 Eh          -11.8319 eV

     #   Z          covCN         q      C6AA      α(0)
     1   6 C        3.826    -0.117    22.721     6.783
     2   6 C        3.749    -0.067    21.850     6.667
     3  15 P        3.985     0.184   152.304    22.169
     4   6 C        3.749    -0.073    21.965     6.684
     5   6 C        3.818    -0.118    22.742     6.787
     6   6 C        3.749    -0.071    21.918     6.677
     7   6 C        3.810    -0.117    22.727     6.786
     8   6 C        3.749    -0.069    21.894     6.674
     9   6 C        3.804    -0.118    22.755     6.791
    10   1 H        0.925     0.065     2.143     2.289
    11   1 H        0.925     0.078     2.004     2.214
    12   1 H        0.925     0.063     2.167     2.302
    13   1 H        0.926     0.093     1.851     2.128
    14   1 H        0.927     0.097     1.814     2.106
    15   1 H        0.927     0.091     1.873     2.140
    16   1 H        0.927     0.094     1.839     2.121
    17   1 H        0.925     0.063     2.168     2.303
    18   1 H        0.925     0.079     1.988     2.205
    19   1 H        0.925     0.064     2.158     2.297
    20   1 H        0.927     0.092     1.861     2.133
    21   1 H        0.927     0.094     1.843     2.123
    22   1 H        0.925     0.065     2.142     2.289
    23   1 H        0.925     0.078     1.995     2.209
    24   1 H        0.925     0.061     2.182     2.310
    25   1 H        0.926     0.091     1.870     2.138
    26   1 H        0.927     0.093     1.852     2.128
    27   1 H        0.925     0.065     2.138     2.287
    28   1 H        0.925     0.077     2.006     2.215
    29   1 H        0.925     0.065     2.144     2.290

 Mol. C6AA /au·bohr⁶  :       6106.658593
 Mol. C8AA /au·bohr⁸  :     153453.415560
 Mol. α(0) /au        :        120.243165


Wiberg/Mayer (AO) data.
largest (>0.10) Wiberg bond orders for each atom

 ---------------------------------------------------------------------------
     #   Z sym  total        # sym  WBO       # sym  WBO       # sym  WBO
 ---------------------------------------------------------------------------
     1   6 C    3.985 --     2 C    1.000    10 H    0.979    11 H    0.978
                            12 H    0.977
     2   6 C    3.988 --     3 P    1.009     1 C    1.000    13 H    0.935
                            14 H    0.931
     3  15 P    4.562 --     4 C    1.013     6 C    1.010     2 C    1.009
                             8 C    1.006
     4   6 C    3.989 --     3 P    1.013     5 C    1.002    15 H    0.935
                            16 H    0.934
     5   6 C    3.983 --     4 C    1.002    17 H    0.980    19 H    0.978
                            18 H    0.977
     6   6 C    3.989 --     3 P    1.010     7 C    1.001    20 H    0.935
                            21 H    0.933
     7   6 C    3.985 --     6 C    1.001    24 H    0.979    22 H    0.978
                            23 H    0.977
     8   6 C    3.988 --     3 P    1.006     9 C    1.001    25 H    0.937
                            26 H    0.934
     9   6 C    3.982 --     8 C    1.001    27 H    0.979    29 H    0.977
                            28 H    0.977
    10   1 H    0.996 --     1 C    0.979
    11   1 H    0.994 --     1 C    0.978
    12   1 H    0.996 --     1 C    0.977
    13   1 H    0.991 --     2 C    0.935
    14   1 H    0.991 --     2 C    0.931
    15   1 H    0.992 --     4 C    0.935
    16   1 H    0.991 --     4 C    0.934
    17   1 H    0.996 --     5 C    0.980
    18   1 H    0.993 --     5 C    0.977
    19   1 H    0.996 --     5 C    0.978
    20   1 H    0.991 --     6 C    0.935
    21   1 H    0.991 --     6 C    0.933
    22   1 H    0.996 --     7 C    0.978
    23   1 H    0.993 --     7 C    0.977
    24   1 H    0.996 --     7 C    0.979
    25   1 H    0.992 --     8 C    0.937
    26   1 H    0.991 --     8 C    0.934
    27   1 H    0.996 --     9 C    0.979
    28   1 H    0.993 --     9 C    0.977
    29   1 H    0.996 --     9 C    0.977
 ---------------------------------------------------------------------------

Topologies differ in total number of bonds
Writing topology from bond orders to xtbtopo.mol

molecular dipole:
                 x           y           z       tot (Debye)
 q only:        2.180       1.278       4.745
   full:        2.177       1.361       4.788      13.808
molecular quadrupole (traceless):
                xx          xy          yy          xz          yz          zz
 q only:       -7.197       1.585     -12.793      15.859       8.023      19.990
  q+dip:       -7.615       3.407     -12.785      15.913       9.574      20.400
   full:       -7.588       2.913     -12.681      15.905       9.254      20.269

           -------------------------------------------------
          |                Geometry Summary                 |
           -------------------------------------------------

      molecular mass/u    :      147.2184642
   center of mass at/Å    :        1.1560088       0.6026615       2.4758435
  moments of inertia/u·Å² :        0.3726144E+03   0.4592155E+03   0.5890150E+03
rotational constants/cm⁻¹ :        0.4524150E-01   0.3670963E-01   0.2862004E-01

 * 28 selected distances

     #   Z          #   Z                                           value/Å
     1   6 C        2   6 C                                       1.5260098
     2   6 C        3  15 P                                       1.8253555
     3  15 P        4   6 C                                       1.8257554
     4   6 C        5   6 C                                       1.5255406
     3  15 P        6   6 C                                       1.8274356
     6   6 C        7   6 C                                       1.5251845
     3  15 P        8   6 C                                       1.8314110 (max)
     8   6 C        9   6 C                                       1.5261779
     1   6 C       10   1 H                                       1.0869491
     1   6 C       11   1 H                                       1.0870311
     1   6 C       12   1 H                                       1.0876962
     2   6 C       13   1 H                                       1.0935560
     2   6 C       14   1 H                                       1.0931987
     4   6 C       15   1 H                                       1.0942997
     4   6 C       16   1 H                                       1.0937540
     5   6 C       17   1 H                                       1.0869548
     5   6 C       18   1 H                                       1.0870383
     5   6 C       19   1 H                                       1.0874683
     6   6 C       20   1 H                                       1.0944331
     6   6 C       21   1 H                                       1.0936797
     7   6 C       22   1 H                                       1.0869584
     7   6 C       23   1 H                                       1.0872201
     7   6 C       24   1 H                                       1.0875049
     8   6 C       25   1 H                                       1.0935556
     8   6 C       26   1 H                                       1.0939870
     9   6 C       27   1 H                                       1.0866285
     9   6 C       28   1 H                                       1.0874195
     9   6 C       29   1 H                                       1.0863377 (min)

 * 3 distinct bonds (by element types)

   Z      Z             #   av. dist./Å        max./Å        min./Å
   1 H    6 C          20     1.0897835     1.0944331     1.0863377
   6 C    6 C           4     1.5257282     1.5261779     1.5251845
   6 C   15 P           4     1.8274894     1.8314110     1.8253555


optimized geometry written to: xtbopt.xyz


           -------------------------------------------------
          | TOTAL ENERGY              -29.457396245109 Eh   |
          | GRADIENT NORM               0.000589179712 Eh/α |
          | HOMO-LUMO GAP               7.722629244311 eV   |
           -------------------------------------------------

------------------------------------------------------------------------
 * finished run on 2024/12/20 at 07:07:35.197     
------------------------------------------------------------------------
 total:
 * wall-time:     0 d,  0 h,  0 min,  0.167 sec
 *  cpu-time:     0 d,  0 h,  0 min,  1.305 sec
 * ratio c/w:     7.791 speedup
 SCF:
 * wall-time:     0 d,  0 h,  0 min,  0.018 sec
 *  cpu-time:     0 d,  0 h,  0 min,  0.131 sec
 * ratio c/w:     7.215 speedup
 ANC optimizer:
 * wall-time:     0 d,  0 h,  0 min,  0.133 sec
 *  cpu-time:     0 d,  0 h,  0 min,  1.062 sec
 * ratio c/w:     7.982 speedup

