72
 energy: -87.937546947027 gnorm: 0.074545428902 xtb: 6.7.1 (edcfbbe)
C            1.45748000000000        0.32223000000000       -0.73545000000000
C            1.46046000000000       -1.16495000000000       -1.05722000000000
C            1.62297000000000       -2.05504000000000        0.17872000000000
C            0.53653000000000       -1.90109000000000        1.24910000000000
C           -0.89703000000000       -2.15866000000000        0.77412000000000
C           -1.16667000000000       -3.56418000000000        0.22580000000000
C           -0.92128000000000       -4.71585000000000        1.20830000000000
C           -1.69221000000000       -4.63438000000000        2.53142000000000
C           -3.21490000000000       -4.52796000000000        2.40061000000000
C           -3.90280000000000       -5.70935000000000        1.70669000000000
C           -3.72997000000000       -7.08198000000000        2.37694000000000
C           -4.20006000000000       -7.19532000000000        3.83446000000000
N           -5.65328000000000       -7.66907000000000        4.03837000000000
C           -5.91729000000000       -9.11376000000000        3.55454000000000
C           -5.26465000000000      -10.34081000000000        4.15972000000000
C           -5.67545000000000      -11.57984000000000        3.61918000000000
C           -5.15558000000000      -12.79272000000000        4.07918000000000
C           -4.21617000000000      -12.80300000000000        5.10808000000000
C           -3.78055000000000      -11.59111000000000        5.64641000000000
C           -4.30306000000000      -10.37519000000000        5.17700000000000
C           -3.65987000000000      -14.10666000000000        5.54631000000000
O           -3.50916000000000      -14.99257000000000        4.71049000000000
C           -3.27561000000000      -14.35406000000000        6.95748000000000
C           -2.16600000000000      -15.16751000000000        7.21138000000000
C           -1.77935000000000      -15.42871000000000        8.52613000000000
C           -2.50697000000000      -14.89001000000000        9.58725000000000
C           -3.62824000000000      -14.09799000000000        9.33801000000000
C           -4.01890000000000      -13.83258000000000        8.02388000000000
C           -6.03424000000000       -7.52400000000000        5.51603000000000
C           -6.62223000000000       -6.75927000000000        3.26862000000000
H            0.57794000000000        0.60417000000000       -0.14892000000000
H            1.44002000000000        0.90877000000000       -1.65977000000000
H            2.35320000000000        0.60350000000000       -0.17264000000000
H            0.54365000000000       -1.42461000000000       -1.59765000000000
H            2.29114000000000       -1.37101000000000       -1.74347000000000
H            1.67378000000000       -3.10154000000000       -0.14477000000000
H            2.59336000000000       -1.83680000000000        0.64293000000000
H            0.77215000000000       -2.57171000000000        2.08406000000000
H            0.58397000000000       -0.88789000000000        1.66652000000000
H           -1.57854000000000       -1.95615000000000        1.60868000000000
H           -1.16162000000000       -1.42789000000000        0.00069000000000
H           -2.20565000000000       -3.60440000000000       -0.12294000000000
H           -0.55316000000000       -3.73176000000000       -0.66752000000000
H           -1.16595000000000       -5.65872000000000        0.70434000000000
H            0.15011000000000       -4.77398000000000        1.43529000000000
H           -1.43657000000000       -5.50987000000000        3.13993000000000
H           -1.33450000000000       -3.76890000000000        3.10203000000000
H           -3.64122000000000       -4.38691000000000        3.39985000000000
H           -3.46938000000000       -3.61312000000000        1.85252000000000
H           -4.96526000000000       -5.46962000000000        1.60930000000000
H           -3.53108000000000       -5.78482000000000        0.67756000000000
H           -4.20020000000000       -7.84051000000000        1.74479000000000
H           -2.65955000000000       -7.32330000000000        2.35793000000000
H           -3.55794000000000       -7.90925000000000        4.35086000000000
H           -4.10403000000000       -6.24517000000000        4.36757000000000
H           -7.00219000000000       -9.25111000000000        3.66593000000000
H           -5.70699000000000       -9.11760000000000        2.47925000000000
H           -6.41043000000000      -11.62026000000000        2.81402000000000
H           -5.48106000000000      -13.73040000000000        3.62913000000000
H           -3.01218000000000      -11.57348000000000        6.41777000000000
H           -3.90635000000000       -9.48176000000000        5.64172000000000
H           -1.60417000000000      -15.60284000000000        6.38697000000000
H           -0.91701000000000      -16.06180000000000        8.72252000000000
H           -2.20807000000000      -15.10354000000000       10.61134000000000
H           -4.20494000000000      -13.70283000000000       10.17113000000000
H           -4.91509000000000      -13.24399000000000        7.85053000000000
H           -6.05715000000000       -6.45699000000000        5.76061000000000
H           -7.02241000000000       -7.96787000000000        5.66931000000000
H           -5.28982000000000       -8.01455000000000        6.14112000000000
H           -6.39396000000000       -5.71910000000000        3.51828000000000
H           -6.50903000000000       -6.94765000000000        2.19827000000000
H           -7.64512000000000       -7.00354000000000        3.57341000000000
72
 energy: -87.946564968681 gnorm: 0.033718991512 xtb: 6.7.1 (edcfbbe)
C            1.45545872055044        0.32231916972363       -0.73462393127997
C            1.45713199667896       -1.16630116478891       -1.05436207991604
C            1.61941563261731       -2.05864573494291        0.17766104431036
C            0.53570220508465       -1.90370120098869        1.24741893566130
C           -0.89716795722139       -2.16143246683594        0.77696115155371
C           -1.17152287553199       -3.56411081454696        0.22980645152092
C           -0.92535997682432       -4.71639951137718        1.20793199691912
C           -1.69271432723160       -4.63645672442186        2.53083229423097
C           -3.21425871218447       -4.53242504299122        2.40503904137131
C           -3.90985126806634       -5.70652461140436        1.71047765152675
C           -3.73779735108968       -7.07844941001140        2.38038911762959
C           -4.22424560810607       -7.21792563551678        3.82638588267840
N           -5.65446298788594       -7.68778478637070        4.03828113232757
C           -5.91407470822422       -9.10977401151776        3.56323577606277
C           -5.24942320161005      -10.33340652251450        4.17399809444406
C           -5.66539249824618      -11.55802149099164        3.63240851862322
C           -5.15824022786819      -12.76373048120380        4.08897870849194
C           -4.22547702932902      -12.79253572536640        5.12286210401448
C           -3.79140111378497      -11.58470610192699        5.65589595585794
C           -4.29438343039934      -10.37471449482245        5.18354230642092
C           -3.65914003372138      -14.10926965011762        5.54024583844885
O           -3.50795112407816      -14.98185550652708        4.70374721489476
C           -3.27015216757075      -14.33635123386433        6.95351480828893
C           -2.17332872881184      -15.15939335110214        7.21260147320262
C           -1.79137188767356      -15.42310489433157        8.51798985328187
C           -2.51498650726546      -14.88939334451895        9.57410728273816
C           -3.62858209087954      -14.09985625313035        9.32446478210015
C           -4.00495969826304      -13.81646484994474        8.01992039125774
C           -6.01564415048053       -7.53659076343123        5.48934943703698
C           -6.59902671921286       -6.79322553261889        3.28010920588815
H            0.58181709730224        0.60218907872663       -0.14799280447649
H            1.44045315662219        0.90589823431600       -1.65475487997552
H            2.34820989719933        0.59705459107382       -0.17401962912010
H            0.53836423369331       -1.42570000012747       -1.58659015345561
H            2.28817979377673       -1.37700879061690       -1.73461272759141
H            1.66302890336292       -3.10211695869853       -0.14805958930424
H            2.58420130851800       -1.83265660179699        0.64321732702636
H            0.77239098537826       -2.57954383834216        2.07476551121650
H            0.58103157322246       -0.88930770646752        1.65408132139955
H           -1.57308341019386       -1.96182678593389        1.61425372525367
H           -1.15143258612438       -1.43872164893759       -0.00322498263568
H           -2.20959743164674       -3.59989000152826       -0.11587801332717
H           -0.54711035841193       -3.73189607635265       -0.65182805318950
H           -1.17223073407490       -5.65457366579886        0.70076759765498
H            0.14148073084833       -4.76332205907627        1.44235917471134
H           -1.43569185496266       -5.51344251151969        3.13350603206700
H           -1.34281758059282       -3.76479771542138        3.09018407359617
H           -3.63474947925402       -4.39121182107002        3.40630264920176
H           -3.46032091079422       -3.62732151268924        1.84456010333169
H           -4.96858797886934       -5.45925323451082        1.60653406806250
H           -3.51617420744110       -5.79159008445603        0.69439560887095
H           -4.20530209852699       -7.83689267240679        1.75027891031016
H           -2.66995431241033       -7.31468938459998        2.37985793010032
H           -3.58521499152865       -7.93330671645890        4.34314843463296
H           -4.13084923889444       -6.25889075845301        4.34106242756489
H           -6.99649910717929       -9.24846995231161        3.66643789928643
H           -5.69363811280505       -9.11452342234647        2.49163097517195
H           -6.39691767827140      -11.58388657663250        2.83322625877208
H           -5.48097804218583      -13.69416398359412        3.64013535369693
H           -3.03291330383129      -11.57362087036106        6.42639912140766
H           -3.90269388969484       -9.48058922445723        5.64385577155337
H           -1.61821774716919      -15.58585029209246        6.38801332259428
H           -0.93218292653672      -16.05051403795656        8.71280874453349
H           -2.21614750530614      -15.09780277194044       10.59301690231877
H           -4.20307114066534      -13.70573152546258       10.15203335404921
H           -4.89573439615770      -13.22922406747897        7.83976298284759
H           -6.04590252987966       -6.47763486254894        5.74490932300378
H           -6.99742930322139       -7.97257698898180        5.65989650062841
H           -5.28723916817273       -8.03218883953731        6.12243058554547
H           -6.37810872811463       -5.75506427067936        3.51824724022570
H           -6.49659977204506       -6.95693919184738        2.21072038311412
H           -7.62393932833117       -7.01435833822112        3.57502077973794
72
 energy: -87.949132694444 gnorm: 0.006167546022 xtb: 6.7.1 (edcfbbe)
C            1.45384366315936        0.31938944734256       -0.73132565079820
C            1.45030156335784       -1.17005646779797       -1.05387183891246
C            1.61466791171152       -2.06319167060581        0.17712830041660
C            0.53364994304855       -1.90844218431730        1.24901657965958
C           -0.90001120337868       -2.16353210272166        0.78035602617222
C           -1.17600372742181       -3.56543297496647        0.23295816208654
C           -0.93044127558551       -4.71870871273283        1.20934211371685
C           -1.69557613957700       -4.64185062325710        2.53327020434600
C           -3.21743313716150       -4.53848539738292        2.41183953134810
C           -3.91366807122298       -5.71187438340596        1.71650407000784
C           -3.74864328127550       -7.08709732478497        2.38078405428263
C           -4.24113063829670       -7.23484266014958        3.82503183997324
N           -5.65438313954273       -7.69624765353751        4.03442371703599
C           -5.90349060678611       -9.09867942654058        3.56880989480665
C           -5.23859094431494      -10.31781405646607        4.19579441656841
C           -5.66227169917414      -11.53185546698698        3.64907676145826
C           -5.16225522551763      -12.73467721717700        4.09839295044865
C           -4.23127487132101      -12.77735394148634        5.13486920480945
C           -3.79737131979964      -11.57463191561615        5.67237927445148
C           -4.28989916101449      -10.36461726161118        5.20534824737798
C           -3.65556678755420      -14.10553286209771        5.52900949061302
O           -3.50507404181336      -14.96336231271393        4.68725924350937
C           -3.26853566049140      -14.32067241921845        6.94319457517807
C           -2.17772832929329      -15.14940433041379        7.20653270126770
C           -1.79857832206089      -15.41429143850626        8.50732905366600
C           -2.52190454916555      -14.88172841142164        9.56119946317381
C           -3.62815061804618      -14.08679606072225        9.30906029255645
C           -3.99812482971864      -13.79723557335104        8.00891107184019
C           -5.99810812192359       -7.55639045226706        5.46376526504122
C           -6.58136855970001       -6.82128199849777        3.28713812864506
H            0.58329474848518        0.59828883116187       -0.14426305224874
H            1.44034993762559        0.90048636738859       -1.64978121032225
H            2.34700907340695        0.58719776471740       -0.17234559390608
H            0.52873914829258       -1.42616899423042       -1.57984415479695
H            2.27975075263362       -1.38291785283788       -1.73245084698444
H            1.65341620877471       -3.10377320339934       -0.15204088919756
H            2.57681225289156       -1.83532151128615        0.64259871479807
H            0.77248543111124       -2.58633922424471        2.07180336801930
H            0.57827135420653       -0.89392744821532        1.64899955592600
H           -1.57134584692948       -1.96335305930957        1.61907498907911
H           -1.14837717543021       -1.44584834540195       -0.00327905625280
H           -2.21283693751758       -3.59704703155106       -0.11136971581336
H           -0.54643592868142       -3.73339501791474       -0.64218277271239
H           -1.17658813511019       -5.65341376256325        0.69904235370631
H            0.13347140573900       -4.75849420472201        1.44727093947454
H           -1.43300380476607       -5.51753440174036        3.13291955374564
H           -1.35125310629493       -3.76575988647662        3.08421587632543
H           -3.63162406217550       -4.39660949401792        3.41490790110084
H           -3.45910822593336       -3.63857179346015        1.84574670631399
H           -4.96817751519762       -5.45657860236789        1.60377698319718
H           -3.50454561323791       -5.80167976864610        0.70969257897897
H           -4.20688451132052       -7.84313567530245        1.74156914747642
H           -2.68125995578464       -7.31143065279196        2.39499516572237
H           -3.60140444961909       -7.95287814376526        4.33580449856010
H           -4.14401147254155       -6.27162534492733        4.33019524130945
H           -6.98337440281364       -9.25248155288462        3.66155125256416
H           -5.67013750783890       -9.11966069357227        2.50035006853066
H           -6.38816661538340      -11.53999520676235        2.84947125675669
H           -5.48399604790878      -13.66132782009781        3.65009010165194
H           -3.04954390953845      -11.57283504380651        6.44919213926502
H           -3.89244799012193       -9.47025128264606        5.65815142230706
H           -1.63128169404096      -15.57243957039399        6.37850199126616
H           -0.94594789380970      -16.04560516925602        8.70164277151647
H           -2.23170184498711      -15.09630059371487       10.57800653086493
H           -4.20687002512994      -13.69747201495155       10.13234029478481
H           -4.87627071894580      -13.19639768127255        7.81992756586550
H           -6.02613786462522       -6.50280638174802        5.73482373819374
H           -6.97896800832579       -7.98664579971743        5.65142477589370
H           -5.27789379062764       -8.06053442679849        6.09901034195142
H           -6.36627061661543       -5.78107983163620        3.51845564461564
H           -6.47960655882812       -6.97227541634933        2.21697304909085
H           -7.61038690320470       -7.03155320507601        3.57153362863482
72
 energy: -87.949538019074 gnorm: 0.004750017739 xtb: 6.7.1 (edcfbbe)
C            1.45243276502150        0.31537935816288       -0.72834961313809
C            1.44363433569231       -1.17401391784945       -1.05303154714973
C            1.61002809642543       -2.06910275382712        0.17655689791107
C            0.53134412692565       -1.91259404513673        1.25093852335786
C           -0.90344082796656       -2.16582612845775        0.78385447466127
C           -1.18086672743815       -3.56754706165492        0.23600816294472
C           -0.93371586535032       -4.72141795652837        1.21165116061693
C           -1.69766480300227       -4.64545835183260        2.53655144004833
C           -3.22006364224181       -4.54491770885595        2.41587556947629
C           -3.91401358779920       -5.71686610660049        1.71549465291053
C           -3.74663022743505       -7.09210933025572        2.37893501785324
C           -4.24062410941270       -7.24098779709723        3.82357708166853
N           -5.65263447753541       -7.69729844347756        4.03349953389381
C           -5.89506253405447       -9.09505068649920        3.56792281462628
C           -5.23134274292120      -10.30824559616446        4.20591375667884
C           -5.66125705943359      -11.51944516653193        3.65737767881800
C           -5.16391249859552      -12.72370780895285        4.10318229915772
C           -4.23190320359024      -12.76782517967486        5.13855346159510
C           -3.79853731264734      -11.56892081092006        5.68521863834720
C           -4.28525716090405      -10.35562250670682        5.21889739818775
C           -3.65260385040520      -14.09779839606667        5.52157902274001
O           -3.49962322449781      -14.94877261738106        4.67364240260269
C           -3.26702697373931      -14.31183759471479        6.93434386440781
C           -2.17931205333656      -15.14489131222010        7.19889855601560
C           -1.80353802964596      -15.41132726929007        8.50058696807845
C           -2.52926402460843      -14.87705490944602        9.55325690682180
C           -3.62981782541196      -14.07350992875175        9.29887613782393
C           -3.99418152495478      -13.77971849616627        7.99777331434703
C           -5.99307783079757       -7.56540175297526        5.46202825335902
C           -6.57682555730092       -6.82505073657249        3.28541318819122
H            0.58341020474331        0.59584303057559       -0.13923457946137
H            1.43939830386010        0.89797649818050       -1.64617413692777
H            2.34775896055260        0.57867789227692       -0.17010421686695
H            0.51940276982359       -1.42665952316457       -1.57591386291340
H            2.27003640711901       -1.38822320790834       -1.73473055994104
H            1.64649481646257       -3.10941765280199       -0.15379522063917
H            2.57348706020424       -1.84294540672136        0.63988629989719
H            0.77082737710882       -2.59100597926129        2.07292132250568
H            0.57804204335042       -0.89830494359199        1.65100985166946
H           -1.57374526757908       -1.96454199468095        1.62295745646000
H           -1.15128302758492       -1.44797499948787        0.00043682449213
H           -2.21768707194732       -3.59841828017982       -0.10825295709278
H           -0.55146834764564       -3.73513605047672       -0.63916048501314
H           -1.17891804844012       -5.65582837432467        0.70049304600055
H            0.13029849133835       -4.76008896618670        1.44900832934172
H           -1.43234830553821       -5.52047907652925        3.13570467878404
H           -1.35444904100467       -3.76852418178335        3.08673430504569
H           -3.63381258135588       -4.40511486696283        3.41927749723114
H           -3.46309769213728       -3.64466920213919        1.85140270171046
H           -4.96803951020877       -5.46140837798143        1.59891776166841
H           -3.50039784452134       -5.80491255747990        0.71062971121336
H           -4.20201211133457       -7.84726675023015        1.73691986202885
H           -2.67899160010552       -7.31353410403514        2.39599117270390
H           -3.60111892447354       -7.96165311111328        4.33068232479030
H           -4.13792394542000       -6.27868954213370        4.32884709347539
H           -6.97491457445495       -9.25677296833938        3.65186756051010
H           -5.65131578728317       -9.12443954160396        2.50165361820614
H           -6.38826610791070      -11.51837502104702        2.85847120359262
H           -5.48601583388162      -13.64991076512285        3.65358463941680
H           -3.05465021089316      -11.57230667284704        6.46698118390403
H           -3.88536862719505       -9.46308139788705        5.67418768295742
H           -1.63568224580850      -15.56889934308419        6.36882830974907
H           -0.95250869466753      -16.04485299520200        8.69640148614075
H           -2.24334575361568      -15.09364264692220       10.57102502023072
H           -4.20836565418691      -13.67996239767460       10.12072516836818
H           -4.86619823931227      -13.17053669305030        7.80438091252491
H           -6.01395207017379       -6.51348831793992        5.74341310984160
H           -6.97578140677046       -7.99356505653572        5.65114601032069
H           -5.27360720695656       -8.07911522910169        6.09182881707858
H           -6.36616023602655       -5.78265348166826        3.51630706543728
H           -6.47116168721476       -6.97675339463240        2.21473938232095
H           -7.60719042795100       -7.03859333675490        3.56500859238321
72
 energy: -87.949847508746 gnorm: 0.003600189702 xtb: 6.7.1 (edcfbbe)
C            1.44999910133075        0.30687412614316       -0.72273320623992
C            1.43101720491526       -1.18168788168720       -1.05178513448895
C            1.60073242603291       -2.07983170973278        0.17531332013520
C            0.52672640357230       -1.92118389619040        1.25440432772459
C           -0.91006004336204       -2.17057613760290        0.79073603781302
C           -1.18944583076701       -3.57166056345164        0.24178045946195
C           -0.93902128419501       -4.72607690353022        1.21619458905748
C           -1.70140162310871       -4.65105330379153        2.54215108533768
C           -3.22405855985361       -4.55296699948513        2.42100036649355
C           -3.91123504140473       -5.72439059530583        1.71324304707826
C           -3.74067725266544       -7.09922926240906        2.37580526056273
C           -4.23306854202505       -7.24652118581526        3.82210816450495
N           -5.64671747225616       -7.69593401374829        4.03165998178108
C           -5.88222403978942       -9.09047587415322        3.56644515172954
C           -5.22436295249288      -10.29693146355496        4.21988352740955
C           -5.66105444690698      -11.50556013960503        3.66928281440710
C           -5.16448176405305      -12.71200451897873        4.10809471405572
C           -4.23007015805397      -12.75532604540571        5.14033666438869
C           -3.79759044988580      -11.56158043377297        5.69871647730251
C           -4.28001146577387      -10.34432886975968        5.23554188971177
C           -3.64447219145775      -14.08445748198463        5.51024666257038
O           -3.48591359453882      -14.92601321939349        4.65318822781304
C           -3.26337070140131      -14.30109433421185        6.92073105889916
C           -2.18205732571676      -15.14185685525466        7.18844616650716
C           -1.81225349556238      -15.40797283739321        8.49232084652871
C           -2.53943953607638      -14.86562750007773        9.54124077702366
C           -3.63029184092330      -14.04874504012400        9.28249494810940
C           -3.98759905938094      -13.75405499182872        7.97933139027302
C           -5.98820625484251       -7.57250114098365        5.46174536056361
C           -6.57157659273412       -6.82396831571445        3.28294155487097
H            0.58418320331022        0.59116980371304       -0.12971882960175
H            1.43743400962430        0.89279216784754       -1.63903516894141
H            2.34916107141661        0.56298677597900       -0.16628690702977
H            0.50179475366611       -1.42796717053271       -1.56926219736047
H            2.25145247939395       -1.39847178967709       -1.74015729537501
H            1.63264645412580       -3.11998713871410       -0.15678729611399
H            2.56750245181389       -1.85812783332083        0.63433598169247
H            0.76711669552633       -2.60049528811606        2.07554007064935
H            0.57779845456886       -0.90735926706982        1.65563978773526
H           -1.57864955367467       -1.96855602051527        1.63116874752036
H           -1.15880081579520       -1.45113240428694        0.00887339621124
H           -2.22711198062750       -3.60228736518449       -0.10040305953628
H           -0.56263975618006       -3.73831808790303       -0.63564302353098
H           -1.18345970233886       -5.66077629346728        0.70491452802211
H            0.12571528839227       -4.76412366682702        1.45142282081100
H           -1.43350974589351       -5.52524325467268        3.14155855996263
H           -1.35925533835890       -3.77352631377974        3.09240108803368
H           -3.63923698077827       -4.41992105113406        3.42463097516227
H           -3.46993144615344       -3.64996129286372        1.86185281553575
H           -4.96543431981251       -5.47232407049048        1.59180167893861
H           -3.49300859541788       -5.80822399471286        0.70991587254969
H           -4.19244695259478       -7.85549625130584        1.73264032751308
H           -2.67241110206661       -7.31700824968767        2.39446459766143
H           -3.59628546600153       -7.97329099028366        4.32397927769806
H           -4.12080043142692       -6.28664338695550        4.32963394463503
H           -6.96279474894232       -9.25862770595660        3.63365488457042
H           -5.62046017507705       -9.12709743076318        2.50437363919700
H           -6.39088604194929      -11.49299724120212        2.87253902603348
H           -5.48739065917102      -13.63787661379440        3.65737042977485
H           -3.05817428042925      -11.57089864911591        6.48592614337368
H           -3.87472385140632       -9.45552996269785        5.69471172528824
H           -1.64154583709910      -15.56949235515789        6.35720649021234
H           -0.96581608635916      -16.04724734774552        8.69244236138393
H           -2.26270388879589      -15.08712546217651       10.56099879397885
H           -4.20731679820508      -13.64595014120045       10.10180473369025
H           -4.84998234107245      -13.13226600722319        7.77967824695067
H           -5.99692256620207       -6.52307565288713        5.75507306190652
H           -6.97489548314620       -7.99548807510014        5.64619979365148
H           -5.27253877972678       -8.10137758250965        6.08477382455446
H           -6.36663245871896       -5.78012454522852        3.51602561034886
H           -6.45945066558828       -6.97720545967731        2.21204722512246
H           -7.60278162944823       -7.04477994479981        3.55685678573269
72
 energy: -87.949974199367 gnorm: 0.002799943453 xtb: 6.7.1 (edcfbbe)
C            1.44795293969195        0.29942402257066       -0.71839891400896
C            1.42043831750084       -1.18818901883689       -1.05062127496813
C            1.59262386489484       -2.08900995591299        0.17405192356360
C            0.52279060680348       -1.92853008799133        1.25693811361140
C           -0.91550267843686       -2.17504687242894        0.79668425857338
C           -1.19663286442347       -3.57529091424100        0.24672760845849
C           -0.94273314162257       -4.72961818113263        1.22017540948603
C           -1.70379462081546       -4.65410927150539        2.54669814032392
C           -3.22631125411337       -4.55733407320350        2.42438420740747
C           -3.90838834712642       -5.72831376741210        1.71163409940836
C           -3.73461708526872       -7.10204530332823        2.37480638295003
C           -4.22599289395521       -7.24858300739610        3.82165595494945
N           -5.64161565492539       -7.69326167654500        4.03143961486192
C           -5.87496500784355       -9.08693567570291        3.56466947713367
C           -5.22265807380055      -10.29182640326059        4.22487979718117
C           -5.66264820693687      -11.50005952273810        3.67534497670046
C           -5.16441375876072      -12.70716436712551        4.10950451427573
C           -4.22669125581321      -12.74919221836734        5.13821115822834
C           -3.79455424654057      -11.55727082450303        5.69998322545950