39
 energy: -49.127723737978 gnorm: 0.000520053100 xtb: 6.7.1 (edcfbbe)
C            0.74665692450399       -0.04240409741728        0.38603608346653
C            0.41685459879837        0.94399111044677       -0.74079893946502
C            1.09917692556998        0.64814384224630       -2.07768194446597
C            0.57185140817283       -0.55926024311185       -2.85798379170372
C           -0.92977797102970       -0.54607249510684       -3.15282178532748
C           -1.42700889431006        0.68909637085187       -3.90816241722998
C           -0.77252647945984        0.91348948995401       -5.27234709719665
C           -1.03634878224637       -0.21637448239152       -6.26038232979030
N            0.15020214149382       -1.35142457377972        0.19561970924985
C           -1.15474920803047       -1.53314653068872        0.20910660765545
S           -1.67072658186866       -3.11951737048816       -0.04934348190575
C           -0.00541939064591       -3.62181968157088       -0.18867092621054
C            0.85310750887199       -2.51994880518160       -0.02661639994391
C            2.23371436852135       -2.70494919348261       -0.10297295970738
C            2.71429481932709       -3.97567284996664       -0.33585212100179
C            1.85288291823371       -5.06276503218961       -0.49443133101579
C            0.48483163559811       -4.89892501554445       -0.42392234573171
H            0.37736427609720        0.36104536683466        1.33327900794662
H            1.82633363855204       -0.16442154315202        0.46274524593770
H           -0.66247430802073        1.00723378966829       -0.87719033139615
H            0.75698189797915        1.92259897702094       -0.39817723443020
H            0.98568824686484        1.53447615254298       -2.70201377737656
H            2.16998701383811        0.51270896007704       -1.90996320778633
H            1.10876730771828       -0.59068234696147       -3.80661989918149
H            0.82050338073964       -1.48705507569851       -2.33652305046269
H           -1.16531767704358       -1.43702252865908       -3.73749509956616
H           -1.49588873745611       -0.62591151173169       -2.21778053973392
H           -2.50390303265738        0.57912211499005       -4.05579823718541
H           -1.27446798128823        1.57975495671856       -3.29495397652075
H           -1.17456804909359        1.84096709285891       -5.68504989712399
H            0.30374132237347        1.05280689203923       -5.15552207675422
H           -2.10467283028250       -0.39962289321404       -6.35326951571015
H           -0.65078049934667        0.04915878624771       -7.24125883082619
H           -0.55229657312894       -1.13954541847176       -5.94927333640044
H           -1.84323147925424       -0.72836309532808        0.39721957079105
H            2.91814035122074       -1.88023197420410        0.01035272095582
H            3.77933896880051       -4.13272810128829       -0.39790357484954
H            2.26299434852852       -6.04342102203951       -0.67498040622062
H           -0.18855552664670       -5.73140802083586       -0.54545808380108
