      -----------------------------------------------------------      
     |                   =====================                   |     
     |                           x T B                           |     
     |                   =====================                   |     
     |                         S. Grimme                         |     
     |          Mulliken Center for Theoretical Chemistry        |     
     |                    University of Bonn                     |     
      -----------------------------------------------------------      

   * xtb version 6.7.1 (edcfbbe) compiled by 'conda@3ef47c1a292c' on 2024-11-25

   xtb is free software: you can redistribute it and/or modify it under
   the terms of the GNU Lesser General Public License as published by
   the Free Software Foundation, either version 3 of the License, or
   (at your option) any later version.
   
   xtb is distributed in the hope that it will be useful,
   but WITHOUT ANY WARRANTY; without even the implied warranty of
   MERCHANTABILITY or FITNESS FOR A PARTICULAR PURPOSE.  See the
   GNU Lesser General Public License for more details.
   
   Cite this work as:
   * C. Bannwarth, E. Caldeweyher, S. Ehlert, A. Hansen, P. Pracht,
     J. Seibert, S. Spicher, S. Grimme, WIREs Comput. Mol. Sci., 2020, 11,
     e01493. DOI: 10.1002/wcms.1493
   
   for GFN2-xTB:
   * C. Bannwarth, S. Ehlert and S. Grimme., J. Chem. Theory Comput., 2019,
     15, 1652-1671. DOI: 10.1021/acs.jctc.8b01176
   for GFN1-xTB:
   * S. Grimme, C. Bannwarth, P. Shushkov, J. Chem. Theory Comput., 2017,
     13, 1989-2009. DOI: 10.1021/acs.jctc.7b00118
   for GFN0-xTB:
   * P. Pracht, E. Caldeweyher, S. Ehlert, S. Grimme, ChemRxiv, 2019, preprint.
     DOI: 10.26434/chemrxiv.8326202.v1
   for GFN-FF:
   * S. Spicher and S. Grimme, Angew. Chem. Int. Ed., 2020, 59, 15665-15673.
     DOI: 10.1002/anie.202004239
   
   for ALPB and GBSA implicit solvation:
   * S. Ehlert, M. Stahn, S. Spicher, S. Grimme, J. Chem. Theory Comput.,
     2021, 17, 4250-4261. DOI: 10.1021/acs.jctc.1c00471
   
   for ddCOSMO and CPCM-X implicit solvation:
   * M. Stahn, S. Ehlert, S. Grimme, J. Phys. Chem. A,
     2023, XX, XXXX-XXXX. DOI: 10.1021/acs.jpca.3c04382
   
   for DFT-D4:
   * E. Caldeweyher, C. Bannwarth and S. Grimme, J. Chem. Phys., 2017,
     147, 034112. DOI: 10.1063/1.4993215
   * E. Caldeweyher, S. Ehlert, A. Hansen, H. Neugebauer, S. Spicher,
     C. Bannwarth and S. Grimme, J. Chem. Phys., 2019, 150, 154122.
     DOI: 10.1063/1.5090222
   * E. Caldeweyher, J.-M. Mewes, S. Ehlert and S. Grimme, Phys. Chem. Chem. Phys.
     2020, 22, 8499-8512. DOI: 10.1039/D0CP00502A
   
   for sTDA-xTB:
   * S. Grimme and C. Bannwarth, J. Chem. Phys., 2016, 145, 054103.
     DOI: 10.1063/1.4959605
   
   in the mass-spec context:
   * V. Asgeirsson, C. Bauer and S. Grimme, Chem. Sci., 2017, 8, 4879.
     DOI: 10.1039/c7sc00601b
   * J. Koopman and S. Grimme, ACS Omega 2019, 4, 12, 15120-15133.
     DOI: 10.1021/acsomega.9b02011
   
   for metadynamics refer to:
   * S. Grimme, J. Chem. Theory Comput., 2019, 155, 2847-2862
     DOI: 10.1021/acs.jctc.9b00143
   
   for SPH calculations refer to:
   * S. Spicher and S. Grimme, J. Chem. Theory Comput., 2021, 17, 1701-1714
     DOI: 10.1021/acs.jctc.0c01306
   
   for ONIOM refer to:
   * C. Plett, A. Katbashev, S. Ehlert, S. Grimme, M. Bursch,
     Phys. Chem. Chem. Phys., 2023, 25, 17860-17868. DOI: 10.1039/D3CP02178E
   
   for DIPRO refer to:
   * J. Kohn, N. Gildemeister, S. Grimme, D. Fazzi, A. Hansen,
     J. Chem. Phys., 2023, just accepted.
   
   for PTB refer to:
   * S. Grimme, M. Mueller, A. Hansen, J. Chem. Phys., 2023, 158, 124111.
     DOI: 10.1063/5.0137838
   
   with help from (in alphabetical order)
   P. Atkinson, C. Bannwarth, F. Bohle, G. Brandenburg, E. Caldeweyher
   M. Checinski, S. Dohm, S. Ehlert, S. Ehrlich, I. Gerasimov, C. Hölzer
   A. Katbashev, J. Kohn, J. Koopman, C. Lavigne, S. Lehtola, F. März, M. Müller,
   F. Musil, H. Neugebauer, J. Pisarek, C. Plett, P. Pracht, F. Pultar,
   J. Seibert, P. Shushkov, S. Spicher, M. Stahn, M. Steiner, T. Strunk,
   J. Stückrath, T. Rose, and J. Unsleber
   
 * started run on 2024/12/20 at 07:10:10.223     
   ID    Z sym.   atoms
    1    6 C      1-12, 14-20
    2    7 N      13
    3    1 H      21-54

           -------------------------------------------------
          |                Calculation Setup                |
           -------------------------------------------------

          program call               : xtb C1065.xyz --opt --namespace C1065 --charge +1
          calculation namespace      : C1065
          coordinate file            : C1065.xyz
          omp threads                :                     8


           -------------------------------------------------
          |                 G F N 2 - x T B                 |
           -------------------------------------------------

        Reference                      10.1021/acs.jctc.8b01176
      * Hamiltonian:
        H0-scaling (s, p, d)           1.850000    2.230000    2.230000
        zeta-weighting                 0.500000
      * Dispersion:
        s8                             2.700000
        a1                             0.520000
        a2                             5.000000
        s9                             5.000000
      * Repulsion:
        kExp                           1.500000    1.000000
        rExp                           1.000000
      * Coulomb:
        alpha                          2.000000
        third order                    shell-resolved
        anisotropic                    true
        a3                             3.000000
        a5                             4.000000
        cn-shift                       1.200000
        cn-exp                         4.000000
        max-rad                        5.000000


          ...................................................
          :                      SETUP                      :
          :.................................................:
          :  # basis functions                 114          :
          :  # atomic orbitals                 114          :
          :  # shells                           74          :
          :  # electrons                       114          :
          :  max. iterations                   250          :
          :  Hamiltonian                  GFN2-xTB          :
          :  restarted?                      false          :
          :  GBSA solvation                  false          :
          :  PC potential                    false          :
          :  electronic temp.          300.0000000     K    :
          :  accuracy                    1.0000000          :
          :  -> integral cutoff          0.2500000E+02      :
          :  -> integral neglect         0.1000000E-07      :
          :  -> SCF convergence          0.1000000E-05 Eh   :
          :  -> wf. convergence          0.1000000E-03 e    :
          :  Broyden damping             0.4000000          :
          :  net charge                          1          :
          :  unpaired electrons                  0          :
          ...................................................

 iter      E             dE          RMSdq      gap      omega  full diag
   1    -61.3339239 -0.613339E+02  0.318E+00    4.52       0.0  T
   2    -61.4776711 -0.143747E+00  0.207E+00    2.58       1.0  T
   3    -61.4812406 -0.356949E-02  0.104E+00    1.38       1.0  T
   4    -61.4821788 -0.938205E-03  0.491E-01    0.58       1.0  T
   5    -61.4924856 -0.103068E-01  0.103E-01    0.56       1.0  T
   6    -61.4926634 -0.177789E-03  0.430E-02    0.59       1.0  T
   7    -61.4926629  0.521590E-06  0.133E-02    0.60       1.0  T
   8    -61.4926658 -0.294265E-05  0.386E-03    0.61       3.5  T
   9    -61.4926663 -0.471395E-06  0.134E-03    0.60      10.2  T
  10    -61.4926663 -0.228719E-07  0.443E-04    0.60      30.7  T
  11    -61.4926663 -0.120026E-08  0.117E-04    0.60     116.6  T

   *** convergence criteria satisfied after 11 iterations ***

         #    Occupation            Energy/Eh            Energy/eV
      -------------------------------------------------------------
         1        2.0000           -0.8629049             -23.4808
       ...           ...                  ...                  ...
        51        2.0000           -0.5065823             -13.7848
        52        2.0000           -0.4964653             -13.5095
        53        2.0000           -0.4926679             -13.4062
        54        2.0000           -0.4887026             -13.2983
        55        2.0000           -0.4732126             -12.8768
        56        2.0000           -0.4707279             -12.8092
        57        2.0000           -0.4680807             -12.7371 (HOMO)
        58        0.0000           -0.4458739             -12.1328 (LUMO)
        59                         -0.4197442             -11.4218
        60                         -0.3010787              -8.1928
        61                         -0.1927125              -5.2440
        62                         -0.0919482              -2.5020
       ...                                ...                  ...
       114                          0.4197937              11.4232
      -------------------------------------------------------------
                  HL-Gap            0.0222068 Eh            0.6043 eV
             Fermi-level           -0.4569469 Eh          -12.4342 eV

 SCC (total)                   0 d,  0 h,  0 min,  0.039 sec
 SCC setup                      ...        0 min,  0.000 sec (  0.405%)
 Dispersion                     ...        0 min,  0.001 sec (  1.949%)
 classical contributions        ...        0 min,  0.000 sec (  0.211%)
 integral evaluation            ...        0 min,  0.003 sec (  6.703%)
 iterations                     ...        0 min,  0.026 sec ( 67.445%)
 molecular gradient             ...        0 min,  0.009 sec ( 22.855%)
 printout                       ...        0 min,  0.000 sec (  0.388%)

         :::::::::::::::::::::::::::::::::::::::::::::::::::::
         ::                     SUMMARY                     ::
         :::::::::::::::::::::::::::::::::::::::::::::::::::::
         :: total energy             -60.577728310222 Eh    ::
         :: gradient norm              0.046748274814 Eh/a0 ::
         :: HOMO-LUMO gap              0.604278672607 eV    ::
         ::.................................................::
         :: SCC energy               -61.492721102957 Eh    ::
         :: -> isotropic ES            0.081178198651 Eh    ::
         :: -> anisotropic ES         -0.002749498986 Eh    ::
         :: -> anisotropic XC          0.040661555289 Eh    ::
         :: -> dispersion             -0.044787273870 Eh    ::
         :: repulsion energy           0.914992792735 Eh    ::
         :: add. restraining           0.000000000000 Eh    ::
         :: total charge               1.000000000383 e     ::
         :::::::::::::::::::::::::::::::::::::::::::::::::::::

      ----------------------------------------------------------- 
     |                   =====================                   |
     |                        A N C O P T                        |
     |                   =====================                   |
     |               Approximate Normal Coordinate               |
     |                Rational Function Optimizer                |
      ----------------------------------------------------------- 
      ----------------------------------------------------------- 
     |                   =====================                   |
     |                        A N C O P T                        |
     |                   =====================                   |
     |               Approximate Normal Coordinate               |
     |                Rational Function Optimizer                |
      ----------------------------------------------------------- 

          ...................................................
          :                      SETUP                      :
          :.................................................:
          :   optimization level            normal          :
          :   max. optcycles                   200          :
          :   ANC micro-cycles                  20          :
          :   degrees of freedom               156          :
          :.................................................:
          :   RF solver                   davidson          :
          :   write xtbopt.log                true          :
          :   linear?                        false          :
          :   energy convergence         0.5000000E-05 Eh   :
          :   grad. convergence          0.1000000E-02 Eh/α :
          :   maxmium RF displ.          1.0000000          :
          :   Hlow (freq-cutoff)         0.1000000E-01      :
          :   Hmax (freq-cutoff)         5.0000000          :
          :   S6 in model hess.         20.0000000          :
          ...................................................

generating ANC from exact Hessian ...
Using Lindh-Hessian (1995)
 Shifting diagonal of input Hessian by    9.9044818880075301E-003
 Lowest  eigenvalues of input Hessian
    0.000000    0.000000    0.000000    0.000000    0.000000    0.000000
    0.010000    0.010213    0.010305    0.010379    0.010668    0.010858
    0.010892    0.011195    0.011317    0.012157    0.013046    0.013438
 Highest eigenvalues
    1.425257    1.577492    1.646786    1.888179    2.072007    2.086992


........................................................................
.............................. CYCLE    1 ..............................
........................................................................

 iter      E             dE          RMSdq      gap      omega  full diag
   1    -61.4926663 -0.614927E+02  0.680E-05    0.60       0.0  T
   2    -61.4926663 -0.484022E-10  0.403E-05    0.60     337.7  T
   3    -61.4926663 -0.345040E-10  0.247E-05    0.60     550.5  T
     SCC iter.                  ...        0 min,  0.008 sec
     gradient                   ...        0 min,  0.009 sec
 * total energy  :   -60.5777283 Eh     change       -0.1367084E-09 Eh
   gradient norm :     0.0467480 Eh/α   predicted     0.0000000E+00 (-100.00%)
   displ. norm   :     0.2008641 α      lambda       -0.5026242E-02
   maximum displ.:     0.0718662 α      in ANC's #65, #48, #33, ...

........................................................................
.............................. CYCLE    2 ..............................
........................................................................

 iter      E             dE          RMSdq      gap      omega  full diag
   1    -61.5231647 -0.615232E+02  0.119E-01    0.66       0.0  T
   2    -61.5232162 -0.514685E-04  0.695E-02    0.65       1.0  T
   3    -61.5232067  0.944976E-05  0.265E-02    0.65       1.0  T
   4    -61.5232196 -0.128508E-04  0.902E-03    0.65       1.5  T
   5    -61.5232225 -0.299052E-05  0.173E-03    0.65       7.9  T
   6    -61.5232225  0.624200E-08  0.948E-04    0.65      14.4  T
   7    -61.5232226 -0.209533E-07  0.242E-04    0.65      56.3  T
     SCC iter.                  ...        0 min,  0.013 sec
     gradient                   ...        0 min,  0.009 sec
 * total energy  :   -60.5810225 Eh     change       -0.3294177E-02 Eh
   gradient norm :     0.0208239 Eh/α   predicted    -0.2614730E-02 ( -20.63%)
   displ. norm   :     0.1499084 α      lambda       -0.1047866E-02
   maximum displ.:     0.0646908 α      in ANC's #7, #8, #9, ...

........................................................................
.............................. CYCLE    3 ..............................
........................................................................

 iter      E             dE          RMSdq      gap      omega  full diag
   1    -61.5363765 -0.615364E+02  0.564E-02    0.68       0.0  T
   2    -61.5363952 -0.187684E-04  0.330E-02    0.67       1.0  T
   3    -61.5363944  0.839424E-06  0.141E-02    0.68       1.0  T
   4    -61.5363962 -0.179756E-05  0.487E-03    0.68       2.8  T
   5    -61.5363970 -0.757513E-06  0.837E-04    0.68      16.3  T
   6    -61.5363970 -0.986518E-10  0.463E-04    0.68      29.4  T
     SCC iter.                  ...        0 min,  0.054 sec
     gradient                   ...        0 min,  0.029 sec
 * total energy  :   -60.5816269 Eh     change       -0.6044511E-03 Eh
   gradient norm :     0.0063219 Eh/α   predicted    -0.5357756E-03 ( -11.36%)
   displ. norm   :     0.1127249 α      lambda       -0.1620928E-03
   maximum displ.:     0.0610016 α      in ANC's #7, #8, #9, ...

........................................................................
.............................. CYCLE    4 ..............................
........................................................................

 iter      E             dE          RMSdq      gap      omega  full diag
   1    -61.5371436 -0.615371E+02  0.207E-02    0.68       0.0  T
   2    -61.5371445 -0.843741E-06  0.120E-02    0.68       1.1  T
   3    -61.5371442  0.249117E-06  0.357E-03    0.68       3.8  T
   4    -61.5371445 -0.317656E-06  0.936E-04    0.68      14.5  T
   5    -61.5371446 -0.389991E-07  0.240E-04    0.68      56.7  T
     SCC iter.                  ...        0 min,  0.010 sec
     gradient                   ...        0 min,  0.009 sec
 * total energy  :   -60.5817559 Eh     change       -0.1289160E-03 Eh
   gradient norm :     0.0029153 Eh/α   predicted    -0.8207674E-04 ( -36.33%)
   displ. norm   :     0.2452964 α      lambda       -0.2335262E-03
   maximum displ.:     0.1285410 α      in ANC's #7, #8, #9, ...

........................................................................
.............................. CYCLE    5 ..............................
........................................................................

 iter      E             dE          RMSdq      gap      omega  full diag
   1    -61.5359565 -0.615360E+02  0.394E-02    0.68       0.0  T
   2    -61.5359573 -0.814186E-06  0.231E-02    0.68       1.0  T
   3    -61.5359563  0.103314E-05  0.474E-03    0.68       2.9  T
   4    -61.5359575 -0.124635E-05  0.100E-03    0.68      13.6  T
   5    -61.5359576 -0.361938E-07  0.404E-04    0.68      33.7  T
   6    -61.5359576  0.570566E-11  0.208E-04    0.68      65.4  T
     SCC iter.                  ...        0 min,  0.011 sec
     gradient                   ...        0 min,  0.009 sec
 * total energy  :   -60.5819207 Eh     change       -0.1648142E-03 Eh
   gradient norm :     0.0057573 Eh/α   predicted    -0.1237901E-03 ( -24.89%)
   displ. norm   :     0.2207223 α      lambda       -0.1351267E-03
   maximum displ.:     0.1146584 α      in ANC's #7, #8, #11, ...

........................................................................
.............................. CYCLE    6 ..............................
........................................................................

 iter      E             dE          RMSdq      gap      omega  full diag
   1    -61.5349820 -0.615350E+02  0.331E-02    0.68       0.0  T
   2    -61.5349822 -0.231124E-06  0.195E-02    0.68       1.0  T
   3    -61.5349821  0.929490E-07  0.182E-03    0.68       7.5  T
   4    -61.5349823 -0.164976E-06  0.594E-04    0.68      22.9  T
   5    -61.5349823 -0.608262E-08  0.286E-04    0.68      47.6  T
     SCC iter.                  ...        0 min,  0.009 sec
     gradient                   ...        0 min,  0.009 sec
 * total energy  :   -60.5820274 Eh     change       -0.1066841E-03 Eh
   gradient norm :     0.0069101 Eh/α   predicted    -0.7085666E-04 ( -33.58%)
   displ. norm   :     0.2737667 α      lambda       -0.1528673E-03
   maximum displ.:     0.1404226 α      in ANC's #7, #8, #11, ...

........................................................................
.............................. CYCLE    7 ..............................
........................................................................

 iter      E             dE          RMSdq      gap      omega  full diag
   1    -61.5347244 -0.615347E+02  0.404E-02    0.69       0.0  T
   2    -61.5347248 -0.408102E-06  0.237E-02    0.69       1.0  T
   3    -61.5347247  0.133652E-06  0.227E-03    0.69       6.0  T
   4    -61.5347250 -0.240825E-06  0.801E-04    0.69      17.0  T
   5    -61.5347250 -0.149303E-07  0.363E-04    0.69      37.5  T
     SCC iter.                  ...        0 min,  0.009 sec
     gradient                   ...        0 min,  0.009 sec
 * total energy  :   -60.5821426 Eh     change       -0.1152432E-03 Eh
   gradient norm :     0.0052144 Eh/α   predicted    -0.8216450E-04 ( -28.70%)
   displ. norm   :     0.2604492 α      lambda       -0.1134896E-03
   maximum displ.:     0.1321864 α      in ANC's #7, #8, #11, ...

........................................................................
.............................. CYCLE    8 ..............................
........................................................................

 iter      E             dE          RMSdq      gap      omega  full diag
   1    -61.5356370 -0.615356E+02  0.394E-02    0.70       0.0  T
   2    -61.5356374 -0.457893E-06  0.231E-02    0.70       1.0  T
   3    -61.5356368  0.628958E-06  0.363E-03    0.70       3.8  T
   4    -61.5356376 -0.799441E-06  0.848E-04    0.70      16.1  T
   5    -61.5356376 -0.151103E-07  0.389E-04    0.70      34.9  T
     SCC iter.                  ...        0 min,  0.012 sec
     gradient                   ...        0 min,  0.009 sec
 * total energy  :   -60.5822200 Eh     change       -0.7736278E-04 Eh
   gradient norm :     0.0022384 Eh/α   predicted    -0.6059695E-04 ( -21.67%)
   displ. norm   :     0.1574019 α      lambda       -0.5002362E-04
   maximum displ.:     0.0733677 α      in ANC's #7, #11, #8, ...

........................................................................
.............................. CYCLE    9 ..............................
........................................................................

 iter      E             dE          RMSdq      gap      omega  full diag
   1    -61.5368758 -0.615369E+02  0.259E-02    0.71       0.0  T
   2    -61.5368760 -0.222533E-06  0.152E-02    0.71       1.0  T
   3    -61.5368756  0.423302E-06  0.292E-03    0.71       4.7  T
   4    -61.5368761 -0.521931E-06  0.561E-04    0.71      24.3  T
   5    -61.5368761 -0.555950E-08  0.271E-04    0.71      50.3  T
     SCC iter.                  ...        0 min,  0.010 sec
     gradient                   ...        0 min,  0.009 sec
 * total energy  :   -60.5822564 Eh     change       -0.3646930E-04 Eh
   gradient norm :     0.0015033 Eh/α   predicted    -0.2564604E-04 ( -29.68%)
   displ. norm   :     0.2351549 α      lambda       -0.4603644E-04
   maximum displ.:     0.1294142 α      in ANC's #12, #11, #7, ...

........................................................................
.............................. CYCLE   10 ..............................
........................................................................

 iter      E             dE          RMSdq      gap      omega  full diag
   1    -61.5383318 -0.615383E+02  0.418E-02    0.72       0.0  T
   2    -61.5383324 -0.510951E-06  0.245E-02    0.72       1.0  T
   3    -61.5383317  0.648253E-06  0.392E-03    0.72       3.5  T
   4    -61.5383326 -0.851813E-06  0.836E-04    0.72      16.3  T
   5    -61.5383326 -0.967516E-08  0.410E-04    0.72      33.2  T
     SCC iter.                  ...        0 min,  0.009 sec
     gradient                   ...        0 min,  0.009 sec
 * total energy  :   -60.5823021 Eh     change       -0.4565279E-04 Eh
   gradient norm :     0.0036218 Eh/α   predicted    -0.2358740E-04 ( -48.33%)
   displ. norm   :     0.0793960 α      lambda       -0.3222502E-04
   maximum displ.:     0.0539699 α      in ANC's #12, #1, #9, ...

........................................................................
.............................. CYCLE   11 ..............................
........................................................................

 iter      E             dE          RMSdq      gap      omega  full diag
   1    -61.5383188 -0.615383E+02  0.138E-02    0.72       0.0  T
   2    -61.5383188 -0.638265E-07  0.809E-03    0.72       1.7  T
   3    -61.5383187  0.687980E-07  0.137E-03    0.72      10.0  T
   4    -61.5383188 -0.915528E-07  0.274E-04    0.72      49.6  T
   5    -61.5383188 -0.109361E-08  0.136E-04    0.72      99.8  T
     SCC iter.                  ...        0 min,  0.009 sec
     gradient                   ...        0 min,  0.009 sec
 * total energy  :   -60.5823310 Eh     change       -0.2895031E-04 Eh
   gradient norm :     0.0029880 Eh/α   predicted    -0.1622018E-04 ( -43.97%)
   displ. norm   :     0.1773069 α      lambda       -0.6456560E-04
   maximum displ.:     0.1134240 α      in ANC's #12, #1, #9, ...

........................................................................
.............................. CYCLE   12 ..............................
........................................................................

 iter      E             dE          RMSdq      gap      omega  full diag
   1    -61.5373768 -0.615374E+02  0.304E-02    0.72       0.0  T
   2    -61.5373771 -0.339015E-06  0.178E-02    0.72       1.0  T
   3    -61.5373767  0.401741E-06  0.308E-03    0.72       4.4  T
   4    -61.5373772 -0.512572E-06  0.661E-04    0.72      20.6  T
   5    -61.5373773 -0.979590E-08  0.315E-04    0.72      43.2  T
     SCC iter.                  ...        0 min,  0.009 sec
     gradient                   ...        0 min,  0.009 sec
 * total energy  :   -60.5823787 Eh     change       -0.4769862E-04 Eh
   gradient norm :     0.0010975 Eh/α   predicted    -0.3329742E-04 ( -30.19%)
   displ. norm   :     0.2521461 α      lambda       -0.3131465E-04
   maximum displ.:     0.1552585 α      in ANC's #12, #1, #11, ...

........................................................................
.............................. CYCLE   13 ..............................
........................................................................

 iter      E             dE          RMSdq      gap      omega  full diag
   1    -61.5360840 -0.615361E+02  0.424E-02    0.71       0.0  T
   2    -61.5360846 -0.613202E-06  0.249E-02    0.72       1.0  T
   3    -61.5360839  0.631585E-06  0.394E-03    0.72       3.5  T
   4    -61.5360848 -0.824854E-06  0.880E-04    0.72      15.5  T
   5    -61.5360848 -0.163395E-07  0.424E-04    0.72      32.1  T
     SCC iter.                  ...        0 min,  0.009 sec
     gradient                   ...        0 min,  0.009 sec
 * total energy  :   -60.5824009 Eh     change       -0.2217537E-04 Eh
   gradient norm :     0.0021097 Eh/α   predicted    -0.1610143E-04 ( -27.39%)
   displ. norm   :     0.0226792 α      lambda       -0.7714763E-05
   maximum displ.:     0.0137038 α      in ANC's #1, #11, #12, ...

........................................................................
.............................. CYCLE   14 ..............................
........................................................................

 iter      E             dE          RMSdq      gap      omega  full diag
   1    -61.5366363 -0.615366E+02  0.344E-03    0.72       0.0  T
   2    -61.5366363 -0.115887E-07  0.203E-03    0.72       6.7  T
   3    -61.5366362  0.277487E-07  0.746E-04    0.72      18.2  T
   4    -61.5366363 -0.332307E-07  0.111E-04    0.72     122.9  T
     SCC iter.                  ...        0 min,  0.008 sec
     gradient                   ...        0 min,  0.009 sec
 * total energy  :   -60.5824076 Eh     change       -0.6671935E-05 Eh
   gradient norm :     0.0013842 Eh/α   predicted    -0.3859985E-05 ( -42.15%)
   displ. norm   :     0.1389730 α      lambda       -0.1995386E-04
   maximum displ.:     0.0766300 α      in ANC's #1, #11, #4, ...

........................................................................
.............................. CYCLE   15 ..............................
........................................................................

 iter      E             dE          RMSdq      gap      omega  full diag
   1    -61.5379176 -0.615379E+02  0.207E-02    0.72       0.0  T
   2    -61.5379177 -0.121965E-06  0.122E-02    0.72       1.1  T
   3    -61.5379174  0.319098E-06  0.237E-03    0.72       5.7  T
   4    -61.5379177 -0.380074E-06  0.428E-04    0.72      31.8  T
   5    -61.5379177 -0.301224E-08  0.204E-04    0.72      66.6  T
     SCC iter.                  ...        0 min,  0.009 sec
     gradient                   ...        0 min,  0.009 sec
 * total energy  :   -60.5824220 Eh     change       -0.1439491E-04 Eh
   gradient norm :     0.0016556 Eh/α   predicted    -0.1006556E-04 ( -30.08%)
   displ. norm   :     0.0586090 α      lambda       -0.4994101E-05
   maximum displ.:     0.0342834 α      in ANC's #1, #12, #11, ...

........................................................................
.............................. CYCLE   16 ..............................
........................................................................

 iter      E             dE          RMSdq      gap      omega  full diag
   1    -61.5375797 -0.615376E+02  0.744E-03    0.72       0.0  T
   2    -61.5375797 -0.228056E-07  0.439E-03    0.72       3.1  T
   3    -61.5375797  0.341528E-07  0.937E-04    0.72      14.5  T
   4    -61.5375797 -0.425449E-07  0.154E-04    0.72      88.6  T
     SCC iter.                  ...        0 min,  0.008 sec
     gradient                   ...        0 min,  0.009 sec
 * total energy  :   -60.5824284 Eh     change       -0.6441829E-05 Eh
   gradient norm :     0.0010702 Eh/α   predicted    -0.2503850E-05 ( -61.13%)
   displ. norm   :     0.1030827 α      lambda       -0.1011184E-04
   maximum displ.:     0.0626880 α      in ANC's #1, #10, #11, ...

........................................................................
.............................. CYCLE   17 ..............................
........................................................................

 iter      E             dE          RMSdq      gap      omega  full diag
   1    -61.5369651 -0.615370E+02  0.113E-02    0.72       0.0  T
   2    -61.5369652 -0.607455E-07  0.667E-03    0.72       2.0  T
   3    -61.5369650  0.131061E-06  0.171E-03    0.72       7.9  T
   4    -61.5369652 -0.155767E-06  0.251E-04    0.72      54.1  T
   5    -61.5369652 -0.167494E-08  0.118E-04    0.72     115.7  T
     SCC iter.                  ...        0 min,  0.009 sec
     gradient                   ...        0 min,  0.009 sec
 * total energy  :   -60.5824401 Eh     change       -0.1169923E-04 Eh
   gradient norm :     0.0005132 Eh/α   predicted    -0.5082648E-05 ( -56.56%)
   displ. norm   :     0.1316750 α      lambda       -0.9411257E-05
   maximum displ.:     0.0805583 α      in ANC's #1, #7, #8, ...

........................................................................
.............................. CYCLE   18 ..............................
........................................................................

 iter      E             dE          RMSdq      gap      omega  full diag
   1    -61.5367192 -0.615367E+02  0.125E-02    0.72       0.0  T
   2    -61.5367193 -0.342621E-07  0.740E-03    0.72       1.8  T
   3    -61.5367192  0.533961E-07  0.116E-03    0.72      11.7  T
   4    -61.5367193 -0.682977E-07  0.232E-04    0.72      58.7  T
   5    -61.5367193 -0.344009E-09  0.117E-04    0.72     115.9  T
     SCC iter.                  ...        0 min,  0.009 sec
     gradient                   ...        0 min,  0.009 sec
 * total energy  :   -60.5824509 Eh     change       -0.1080291E-04 Eh
   gradient norm :     0.0011291 Eh/α   predicted    -0.4744347E-05 ( -56.08%)
   displ. norm   :     0.1324194 α      lambda       -0.8018568E-05
   maximum displ.:     0.0818949 α      in ANC's #1, #9, #7, ...

........................................................................
.............................. CYCLE   19 ..............................
........................................................................

 iter      E             dE          RMSdq      gap      omega  full diag
   1    -61.5364356 -0.615364E+02  0.143E-02    0.72       0.0  T
   2    -61.5364356 -0.338113E-07  0.841E-03    0.72       1.6  T
   3    -61.5364356  0.395404E-08  0.585E-04    0.72      23.2  T
   4    -61.5364357 -0.134323E-07  0.244E-04    0.72      55.8  T
     SCC iter.                  ...        0 min,  0.008 sec
     gradient                   ...        0 min,  0.018 sec
 * total energy  :   -60.5824604 Eh     change       -0.9524651E-05 Eh
   gradient norm :     0.0011210 Eh/α   predicted    -0.4041575E-05 ( -57.57%)
   displ. norm   :     0.1294159 α      lambda       -0.8433196E-05
   maximum displ.:     0.0820958 α      in ANC's #1, #9, #7, ...

........................................................................
.............................. CYCLE   20 ..............................
........................................................................

 iter      E             dE          RMSdq      gap      omega  full diag
   1    -61.5367553 -0.615368E+02  0.142E-02    0.72       0.0  T
   2    -61.5367553 -0.359055E-07  0.835E-03    0.71       1.6  T
   3    -61.5367553 -0.709338E-08  0.456E-04    0.71      29.8  T
   4    -61.5367553 -0.360840E-08  0.231E-04    0.71      58.9  T
     SCC iter.                  ...        0 min,  0.014 sec
     gradient                   ...        0 min,  0.009 sec
 * total energy  :   -60.5824706 Eh     change       -0.1011856E-04 Eh
   gradient norm :     0.0007153 Eh/α   predicted    -0.4249766E-05 ( -58.00%)
   displ. norm   :     0.1500772 α      lambda       -0.9421722E-05
   maximum displ.:     0.0991792 α      in ANC's #1, #9, #2, ...
 * RMSD in coord.:     0.3008416 α      energy gain  -0.4742249E-02 Eh

generating ANC from exact Hessian ...
Using Lindh-Hessian (1995)
 Shifting diagonal of input Hessian by    9.9041822964305564E-003
 Lowest  eigenvalues of input Hessian
    0.000000    0.000000    0.000000    0.000000    0.000000    0.000000
    0.010000    0.010207    0.010333    0.010403    0.010684    0.010913
    0.010937    0.011227    0.011485    0.012200    0.013271    0.013547
 Highest eigenvalues
    1.503044    1.632969    1.726285    1.927337    2.188823    2.192685


........................................................................
.............................. CYCLE   21 ..............................
........................................................................

 iter      E             dE          RMSdq      gap      omega  full diag
   1    -61.5368096 -0.615368E+02  0.167E-02    0.71       0.0  T
   2    -61.5368097 -0.390608E-07  0.987E-03    0.71       1.4  T
   3    -61.5368097 -0.654317E-08  0.486E-04    0.71      28.0  T
   4    -61.5368097 -0.564826E-08  0.260E-04    0.71      52.4  T
     SCC iter.                  ...        0 min,  0.008 sec
     gradient                   ...        0 min,  0.009 sec
 * total energy  :   -60.5824823 Eh     change       -0.1178205E-04 Eh
   gradient norm :     0.0005302 Eh/α   predicted     0.0000000E+00 (-100.00%)
   displ. norm   :     0.0211758 α      lambda       -0.3224065E-05
   maximum displ.:     0.0102940 α      in ANC's #9, #1, #15, ...

........................................................................
.............................. CYCLE   22 ..............................
........................................................................

 iter      E             dE          RMSdq      gap      omega  full diag
   1    -61.5371075 -0.615371E+02  0.358E-03    0.71       0.0  T
   2    -61.5371075 -0.754211E-08  0.210E-03    0.71       6.5  T
   3    -61.5371075  0.256419E-08  0.293E-04    0.71      46.4  T
   4    -61.5371075 -0.355085E-08  0.104E-04    0.71     131.0  T
     SCC iter.                  ...        0 min,  0.008 sec
     gradient                   ...        0 min,  0.009 sec
 * total energy  :   -60.5824863 Eh     change       -0.4008306E-05 Eh
   gradient norm :     0.0002118 Eh/α   predicted    -0.1617917E-05 ( -59.64%)
   displ. norm   :     0.0810352 α      lambda       -0.8759919E-05
   maximum displ.:     0.0396881 α      in ANC's #9, #1, #15, ...

   *** GEOMETRY OPTIMIZATION CONVERGED AFTER 22 ITERATIONS ***

------------------------------------------------------------------------
 total energy gain   :        -0.0047580 Eh       -2.9857 kcal/mol
 total RMSD          :         0.3019489 a0        0.1598 Å
 total power (kW/mol):        -0.5678287 (step)  -19.5836 (real)
------------------------------------------------------------------------

 ANCopt (total)                0 d,  0 h,  0 min,  0.638 sec
 optimizer setup                ...        0 min,  0.000 sec (  0.024%)
 model hessian                  ...        0 min,  0.093 sec ( 14.618%)
 ANC generation                 ...        0 min,  0.003 sec (  0.517%)
 coordinate transformation      ...        0 min,  0.001 sec (  0.080%)
 single point calculation       ...        0 min,  0.532 sec ( 83.457%)
 optimization log               ...        0 min,  0.003 sec (  0.492%)
 hessian update                 ...        0 min,  0.002 sec (  0.305%)
 rational function              ...        0 min,  0.002 sec (  0.356%)

================
 final structure:
================
54
 xtb: 6.7.1 (edcfbbe)
C            1.12987402352244       -0.03086977901162        0.46458614343048
C            0.92795028891096        1.47876555788272        0.52066579915616
C            1.33443290683862        2.19117638689540       -0.77030702450892
C            0.54617445529712        1.77501413342046       -2.01386287790650
C           -0.96627874471415        1.98633239590360       -1.92279794453218
C           -1.40401092113378        3.42921096058261       -1.66275596132925
C           -0.94636260951945        4.44440867492926       -2.71244801735699
C           -1.37979977462118        4.13183644448190       -4.14609698164528
C           -2.88941817623416        3.97978092672087       -4.34722265062625
C           -3.71852900885232        5.21109897657525       -3.97258581895580
C           -3.39867669138922        6.47315826684538       -4.77309527551532
C           -3.72925404322696        6.36799489893956       -6.26942606889797
N           -5.16115074526187        6.24968779150917       -6.47189960700219
C           -5.73793500809476        5.04250506259360       -6.52916387883038
C           -7.10253693958348        4.90475801245896       -6.62963234675400
C           -7.92402241522397        6.03440802934500       -6.67287618888373
C           -7.28809558864207        7.27879448990392       -6.62011062278816
C           -5.91994356870230        7.35297182543691       -6.51448034895794
C           -9.39678336172727        5.91413774014447       -6.83117801867294
C           -9.74453625836355        5.77050955135265       -8.32051460206287
H            0.45197995802301       -0.49343062863767       -0.24844224297923
H            0.94308779605268       -0.47144750052619        1.44109888745296
H            2.15084376312549       -0.26727818485895        0.17317134080847
H           -0.11519383423323        1.69821142593988        0.75593901696936
H            1.53462612442846        1.88451913537754        1.33368476397315
H            1.23646235304077        3.26872153649911       -0.62110896135637
H            2.39113406480138        1.98728119420937       -0.96021674417555
H            0.94001674863087        2.32921055341069       -2.86901657547607
H            0.72759503137172        0.71700479266423       -2.21120215085295
H           -1.41747241399476        1.62957384977862       -2.85204187884734
H           -1.36502109716034        1.36421414402774       -1.11970650566897
H           -2.49426535359021        3.44884429862559       -1.58599124142085
H           -1.01446940455462        3.74940298971964       -0.69531569825186
H           -1.31758468376715        5.43063567118845       -2.42259918346530
H            0.14287667137394        4.50142982956444       -2.69969248868865
H           -0.99612596257139        4.91667377465413       -4.80296824298879
H           -0.90837166926298        3.20024655026793       -4.46166949687983
H           -3.06452922873725        3.70486152346149       -5.39147946279468
H           -3.24257329023297        3.14574966505320       -3.74020771454373
H           -4.78188538749917        4.96940032940072       -4.07247798306488
H           -3.54710526513030        5.43596892243979       -2.92012515887719
H           -3.94874474484014        7.31579208203835       -4.34788635452002
H           -2.33622785050383        6.69667975377287       -4.68721198317106
H           -3.37463373497326        7.26235829428801       -6.78493325850800
H           -3.23369607359207        5.49740328559819       -6.69962894344643
H           -5.08724663704039        4.18156729707140       -6.50029203427590
H           -7.53301437840519        3.91658676181917       -6.67127057309050
H           -7.86697596140060        8.18814353249071       -6.65742649138359
H           -5.40879143745073        8.30305475800333       -6.46415105687811
H           -9.75892238960215        5.03430973610292       -6.29824364005484
H           -9.89349952042182        6.79875462511562       -6.43280051246059
H           -9.26972947875647        4.88966576652536       -8.74490324913631
H          -10.81973417246904        5.67075144281547       -8.43164411670118
H           -9.41903635993493        6.64508844520526       -8.87774777260434

 Bond Distances (Angstroems)
 ---------------------------
C1-C2=1.5241         C1-H21=1.0872        C1-H22=1.0875        C1-H23=1.0877        C2-C1=1.5241         C2-C3=1.5295         
C2-H24=1.0916        C2-H25=1.0926        C3-C2=1.5295         C3-C4=1.5300         C3-H26=1.0922        C3-H27=1.0928        
C4-C3=1.5300         C4-C5=1.5299         C4-H28=1.0925        C4-H29=1.0914        C5-C4=1.5299         C5-C6=1.5301         
C5-H30=1.0929        C5-H31=1.0913        C6-C5=1.5301         C6-C7=1.5303         C6-H32=1.0931        C6-H33=1.0910        
C7-C6=1.5303         C7-C8=1.5300         C7-H34=1.0929        C7-H35=1.0908        C8-C7=1.5300         C8-C9=1.5305         
C8-H36=1.0930        C8-H37=1.0907        C9-C8=1.5305         C9-C10=1.5310        C9-H38=1.0939        C9-H39=1.0903        
C10-C9=1.5310        C10-C11=1.5284       C10-H40=1.0950       C10-H41=1.0898       C11-C10=1.5284       C11-C12=1.5360       
C11-H42=1.0924       C11-H43=1.0891       C12-C11=1.5360       C12-N13=1.4510       C12-H44=1.0915       C12-H45=1.0902       
N13-C12=1.4510       N13-C14=1.3391       N13-C18=1.3397       C14-N13=1.3391       C14-C15=1.3752       C14-H46=1.0796       
C15-C14=1.3752       C15-C16=1.3974       C15-H47=1.0787       C16-C15=1.3974       C16-C17=1.3985       C16-C19=1.4861       
C17-C16=1.3985       C17-C18=1.3742       C17-H48=1.0786       C18-N13=1.3397       C18-C17=1.3742       C18-H49=1.0800       
C19-C16=1.4861       C19-C20=1.5361       C19-H50=1.0905       C19-H51=1.0899       C20-C19=1.5361       C20-H52=1.0869       
C20-H53=1.0855       C20-H54=1.0869       H21-C1=1.0872        H22-C1=1.0875        H23-C1=1.0877        H24-C2=1.0916        
H25-C2=1.0926        H26-C3=1.0922        H27-C3=1.0928        H28-C4=1.0925        H29-C4=1.0914        H30-C5=1.0929        
H31-C5=1.0913        H32-C6=1.0931        H33-C6=1.0910        H34-C7=1.0929        H35-C7=1.0908        H36-C8=1.0930        
H37-C8=1.0907        H38-C9=1.0939        H39-C9=1.0903        H40-C10=1.0950       H41-C10=1.0898       H42-C11=1.0924       
H43-C11=1.0891       H44-C12=1.0915       H45-C12=1.0902       H46-C14=1.0796       H47-C15=1.0787       H48-C17=1.0786       
H49-C18=1.0800       H50-C19=1.0905       H51-C19=1.0899       H52-C20=1.0869       H53-C20=1.0855       H54-C20=1.0869       
 C  H  Rav=1.0894 sigma=0.0043  Rmin=1.0786  Rmax=1.0950    34
 C  C  Rav=1.4940 sigma=0.0609  Rmin=1.3742  Rmax=1.5361    17
 N  C  Rav=1.3766 sigma=0.0526  Rmin=1.3391  Rmax=1.4510     3

 selected bond angles (degree)
 --------------------
H21-C1-C2=111.28               H22-C1-C2=110.21               H22-C1-H21=108.03              H23-C1-C2=110.46               
H23-C1-H21=108.49              H23-C1-H22=108.28              C3-C2-C1=113.27                H24-C2-C1=109.49               
H24-C2-C3=110.01               H25-C2-C1=108.76               H25-C2-C3=107.91               H25-C2-H24=107.19              
C4-C3-C2=114.99                H26-C3-C2=108.69               H26-C3-C4=109.46               H27-C3-C2=108.47               
H27-C3-C4=107.83               H27-C3-H26=107.13              C5-C4-C3=115.05                H28-C4-C3=108.21               
H28-C4-C5=109.45               H29-C4-C3=108.96               H29-C4-C5=108.00               H29-C4-H28=106.88              
C6-C5-C4=115.04                H30-C5-C4=108.21               H30-C5-C6=109.53               H31-C5-C4=109.04               
H31-C5-C6=107.94               H31-C5-H30=106.78              C7-C6-C5=115.05                H32-C6-C5=108.31               
H32-C6-C7=109.54               H33-C6-C5=108.99               H33-C6-C7=107.87               H33-C6-H32=106.77              
C8-C7-C6=114.99                H34-C7-C6=108.37               H34-C7-C8=109.67               H35-C7-C6=108.98               
H35-C7-C8=107.73               H35-C7-H34=106.79              C9-C8-C7=115.01                H36-C8-C7=108.48               
H36-C8-C9=109.79               H37-C8-C7=108.85               H37-C8-C9=107.66               H37-C8-H36=106.72              
C10-C9-C8=114.97               H38-C9-C8=107.96               H38-C9-C10=110.43              H39-C9-C8=108.80               
H39-C9-C10=107.67              H39-C9-H38=106.70              C11-C10-C9=115.00              H40-C10-C9=109.03              
H40-C10-C11=109.74             H41-C10-C9=108.49              H41-C10-C11=107.61             H41-C10-H40=106.64             

 selected dihedral angles (degree)
 ---------------------------------
C3-C2-C1-H21=292.90           C3-C2-C1-H22=173.08           C3-C2-C1-H23= 53.46           H24-C2-C1-H21= 56.09          
H24-C2-C1-H22=296.27          H24-C2-C1-H23=176.65          H25-C2-C1-H21=172.92          H25-C2-C1-H22= 53.10          
H25-C2-C1-H23=293.48          C4-C3-C2-C1= 61.45            C4-C3-C2-H24=298.55           C4-C3-C2-H25=181.91           
H26-C3-C2-C1=184.52           H26-C3-C2-H24= 61.62          H26-C3-C2-H25=304.98          H27-C3-C2-C1=300.67           
H27-C3-C2-H24=177.77          H27-C3-C2-H25= 61.13          C5-C4-C3-C2= 58.63            C5-C4-C3-H26=295.98           
C5-C4-C3-H27=179.76           H28-C4-C3-C2=181.35           H28-C4-C3-H26= 58.70          H28-C4-C3-H27=302.48          
H29-C4-C3-C2=297.21           H29-C4-C3-H26=174.56          H29-C4-C3-H27= 58.34          C6-C5-C4-C3= 58.70            
C6-C5-C4-H28=296.64           C6-C5-C4-H29=180.64           H30-C5-C4-C3=181.52           H30-C5-C4-H28= 59.46          
H30-C5-C4-H29=303.46          H31-C5-C4-C3=297.31           H31-C5-C4-H28=175.25          H31-C5-C4-H29= 59.25          
C7-C6-C5-C4= 58.89            C7-C6-C5-H30=296.78           C7-C6-C5-H31=180.88           H32-C6-C5-C4=181.83           
H32-C6-C5-H30= 59.72          H32-C6-C5-H31=303.81          H33-C6-C5-C4=297.63           H33-C6-C5-H30=175.52          
H33-C6-C5-H31= 59.62          C8-C7-C6-C5= 56.79            C8-C7-C6-H32=294.51           C8-C7-C6-H33=178.66           
H34-C7-C6-C5=179.89           H34-C7-C6-H32= 57.62          H34-C7-C6-H33=301.76          H35-C7-C6-C5=295.75           
H35-C7-C6-H32=173.47          H35-C7-C6-H33= 57.62          C9-C8-C7-C6= 56.83            C9-C8-C7-H34=294.43           
C9-C8-C7-H35=178.55           H36-C8-C7-C6=180.19           H36-C8-C7-H34= 57.79          H36-C8-C7-H35=301.91          
H37-C8-C7-C6=295.96           H37-C8-C7-H34=173.55          H37-C8-C7-H35= 57.68          C10-C9-C8-C7= 59.36           
C10-C9-C8-H36=296.70          C10-C9-C8-H37=180.88          H38-C9-C8-C7=183.11           H38-C9-C8-H36= 60.45          
H38-C9-C8-H37=304.64          H39-C9-C8-C7=298.55           H39-C9-C8-H36=175.88          H39-C9-C8-H37= 60.07          
C11-C10-C9-C8= 61.02          C11-C10-C9-H38=298.59         C11-C10-C9-H39=182.46         H40-C10-C9-C8=184.73          
H40-C10-C9-H38= 62.30         H40-C10-C9-H39=306.17         H41-C10-C9-C8=300.50          H41-C10-C9-H38=178.07         
H41-C10-C9-H39= 61.94         
           -------------------------------------------------
          |                Final Singlepoint                |
           -------------------------------------------------

          ...................................................
          :                      SETUP                      :
          :.................................................:
          :  # basis functions                 114          :
          :  # atomic orbitals                 114          :
          :  # shells                           74          :
          :  # electrons                       114          :
          :  max. iterations                   250          :
          :  Hamiltonian                  GFN2-xTB          :
          :  restarted?                      false          :
          :  GBSA solvation                  false          :
          :  PC potential                    false          :
          :  electronic temp.          300.0000000     K    :
          :  accuracy                    1.0000000          :
          :  -> integral cutoff          0.2500000E+02      :
          :  -> integral neglect         0.1000000E-07      :
          :  -> SCF convergence          0.1000000E-05 Eh   :
          :  -> wf. convergence          0.1000000E-03 e    :
          :  Broyden damping             0.4000000          :
          :  net charge                          1          :
          :  unpaired electrons                  0          :
          ...................................................

 iter      E             dE          RMSdq      gap      omega  full diag
   1    -61.5371075 -0.615371E+02  0.453E-05    0.71       0.0  T
   2    -61.5371075 -0.780886E-11  0.267E-05    0.71     510.6  T
   3    -61.5371075  0.118661E-11  0.168E-05    0.71     808.3  T

   *** convergence criteria satisfied after 3 iterations ***

         #    Occupation            Energy/Eh            Energy/eV
      -------------------------------------------------------------
         1        2.0000           -0.8669446             -23.5908
       ...           ...                  ...                  ...
        51        2.0000           -0.5077396             -13.8163
        52        2.0000           -0.4978730             -13.5478
        53        2.0000           -0.4939367             -13.4407
        54        2.0000           -0.4902538             -13.3405
        55        2.0000           -0.4750169             -12.9259
        56        2.0000           -0.4714250             -12.8281
        57        2.0000           -0.4690942             -12.7647 (HOMO)
        58        0.0000           -0.4428710             -12.0511 (LUMO)
        59                         -0.4146464             -11.2831
        60                         -0.2967433              -8.0748
        61                         -0.1587084              -4.3187
        62                         -0.0774264              -2.1069
       ...                                ...                  ...
       114                          0.4484117              12.2019
      -------------------------------------------------------------
                  HL-Gap            0.0262232 Eh            0.7136 eV
             Fermi-level           -0.4559426 Eh          -12.4068 eV

 SCC (total)                   0 d,  0 h,  0 min,  0.018 sec
 SCC setup                      ...        0 min,  0.000 sec (  0.562%)
 Dispersion                     ...        0 min,  0.000 sec (  1.825%)
 classical contributions        ...        0 min,  0.000 sec (  0.304%)
 integral evaluation            ...        0 min,  0.002 sec ( 10.218%)
 iterations                     ...        0 min,  0.007 sec ( 38.026%)
 molecular gradient             ...        0 min,  0.009 sec ( 48.331%)
 printout                       ...        0 min,  0.000 sec (  0.647%)

         :::::::::::::::::::::::::::::::::::::::::::::::::::::
         ::                     SUMMARY                     ::
         :::::::::::::::::::::::::::::::::::::::::::::::::::::
         :: total energy             -60.582486350415 Eh    ::
         :: gradient norm              0.000212627541 Eh/a0 ::
         :: HOMO-LUMO gap              0.713568991243 eV    ::
         ::.................................................::
         :: SCC energy               -61.537183489474 Eh    ::
         :: -> isotropic ES            0.080913698898 Eh    ::
         :: -> anisotropic ES         -0.003129784176 Eh    ::
         :: -> anisotropic XC          0.039448971707 Eh    ::
         :: -> dispersion             -0.045459892904 Eh    ::
         :: repulsion energy           0.954697139058 Eh    ::
         :: add. restraining           0.000000000000 Eh    ::
         :: total charge               1.000000000106 e     ::
         :::::::::::::::::::::::::::::::::::::::::::::::::::::

           -------------------------------------------------
          |                Property Printout                |
           -------------------------------------------------

    * Orbital Energies and Occupations

         #    Occupation            Energy/Eh            Energy/eV
      -------------------------------------------------------------
         1        2.0000           -0.8669446             -23.5908
       ...           ...                  ...                  ...
        45        2.0000           -0.5459973             -14.8573
        46        2.0000           -0.5402552             -14.7011
        47        2.0000           -0.5328232             -14.4989
        48        2.0000           -0.5304637             -14.4347
        49        2.0000           -0.5189584             -14.1216
        50        2.0000           -0.5152767             -14.0214
        51        2.0000           -0.5077396             -13.8163
        52        2.0000           -0.4978730             -13.5478
        53        2.0000           -0.4939367             -13.4407
        54        2.0000           -0.4902538             -13.3405
        55        2.0000           -0.4750169             -12.9259
        56        2.0000           -0.4714250             -12.8281
        57        2.0000           -0.4690942             -12.7647 (HOMO)
        58        0.0000           -0.4428710             -12.0511 (LUMO)
        59                         -0.4146464             -11.2831
        60                         -0.2967433              -8.0748
        61                         -0.1587084              -4.3187
        62                         -0.0774264              -2.1069
        63                         -0.0582771              -1.5858
        64                         -0.0449140              -1.2222
        65                         -0.0329566              -0.8968
        66                         -0.0253532              -0.6899
        67                         -0.0188769              -0.5137
        68                         -0.0101487              -0.2762
       ...                                ...                  ...
       114                          0.4484117              12.2019
      -------------------------------------------------------------
                  HL-Gap            0.0262232 Eh            0.7136 eV
             Fermi-level           -0.4559426 Eh          -12.4068 eV

     #   Z          covCN         q      C6AA      α(0)
     1   6 C        3.751    -0.103    22.520     6.768
     2   6 C        3.799    -0.053    21.519     6.605
     3   6 C        3.800    -0.058    21.617     6.620
     4   6 C        3.800    -0.058    21.615     6.619
     5   6 C        3.800    -0.057    21.605     6.618
     6   6 C        3.800    -0.058    21.626     6.621
     7   6 C        3.800    -0.060    21.656     6.626
     8   6 C        3.800    -0.061    21.674     6.629
     9   6 C        3.800    -0.061    21.670     6.628
    10   6 C        3.800    -0.065    21.752     6.640
    11   6 C        3.801    -0.068    21.809     6.649
    12   6 C        3.758    -0.033    21.220     6.568
    13   7 N        2.750     0.099    19.527     6.563
    14   6 C        2.890     0.031    27.313     8.568
    15   6 C        2.921    -0.026    28.660     8.779
    16   6 C        2.976     0.066    26.524     8.448
    17   6 C        2.920    -0.026    28.645     8.777
    18   6 C        2.891     0.029    27.345     8.573
    19   6 C        3.807    -0.069    21.816     6.649
    20   6 C        3.755    -0.107    22.610     6.780
    21   1 H        0.925     0.033     2.544     2.494
    22   1 H        0.925     0.034     2.529     2.487
    23   1 H        0.925     0.036     2.504     2.475
    24   1 H        0.924     0.029     2.602     2.522
    25   1 H        0.924     0.030     2.588     2.516
    26   1 H        0.924     0.027     2.627     2.535
    27   1 H        0.924     0.032     2.557     2.500
    28   1 H        0.924     0.026     2.643     2.542
    29   1 H        0.924     0.036     2.509     2.477
    30   1 H        0.924     0.023     2.689     2.565
    31   1 H        0.924     0.036     2.496     2.471
    32   1 H        0.924     0.022     2.699     2.569
    33   1 H        0.924     0.040     2.453     2.449
    34   1 H        0.924     0.024     2.667     2.554
    35   1 H        0.924     0.043     2.412     2.429
    36   1 H        0.924     0.024     2.667     2.554
    37   1 H        0.924     0.046     2.370     2.408
    38   1 H        0.924     0.016     2.801     2.617
    39   1 H        0.924     0.051     2.313     2.378
    40   1 H        0.924     0.022     2.710     2.574
    41   1 H        0.925     0.065     2.137     2.286
    42   1 H        0.924     0.049     2.332     2.388
    43   1 H        0.925     0.082     1.962     2.191
    44   1 H        0.924     0.084     1.937     2.176
    45   1 H        0.924     0.093     1.852     2.128
    46   1 H        0.926     0.105     1.736     2.060
    47   1 H        0.926     0.098     1.800     2.098
    48   1 H        0.926     0.099     1.798     2.097
    49   1 H        0.926     0.102     1.771     2.081
    50   1 H        0.924     0.077     2.013     2.219
    51   1 H        0.925     0.074     2.042     2.235
    52   1 H        0.925     0.053     2.280     2.361
    53   1 H        0.925     0.075     2.035     2.231
    54   1 H        0.925     0.053     2.277     2.360

 Mol. C6AA /au·bohr⁶  :      21791.911365
 Mol. C8AA /au·bohr⁸  :     479652.490278
 Mol. α(0) /au        :        223.754701


Wiberg/Mayer (AO) data.
largest (>0.10) Wiberg bond orders for each atom

 ---------------------------------------------------------------------------
     #   Z sym  total        # sym  WBO       # sym  WBO       # sym  WBO
 ---------------------------------------------------------------------------
     1   6 C    3.997 --     2 C    1.020    23 H    0.987    22 H    0.987
                            21 H    0.986
     2   6 C    3.998 --     1 C    1.020     3 C    1.008    25 H    0.978
                            24 H    0.976
     3   6 C    3.997 --     2 C    1.008     4 C    1.008    27 H    0.977
                            26 H    0.976
     4   6 C    3.997 --     5 C    1.008     3 C    1.008    28 H    0.975
                            29 H    0.975
     5   6 C    3.997 --     4 C    1.008     6 C    1.008    30 H    0.975
                            31 H    0.974
     6   6 C    3.997 --     5 C    1.008     7 C    1.007    32 H    0.976
                            33 H    0.974
     7   6 C    3.996 --     8 C    1.007     6 C    1.007    34 H    0.976
                            35 H    0.974
     8   6 C    3.995 --     7 C    1.007     9 C    1.007    36 H    0.975
                            37 H    0.973
     9   6 C    3.995 --     8 C    1.007    10 C    1.007    39 H    0.972
                            38 H    0.972
    10   6 C    3.993 --    11 C    1.009     9 C    1.007    40 H    0.972
                            41 H    0.966
    11   6 C    3.981 --    10 C    1.009    12 C    0.974    42 H    0.974
                            43 H    0.961
    12   6 C    3.935 --    11 C    0.974    13 N    0.965    44 H    0.964
                            45 H    0.960
    13   7 N    3.755 --    14 C    1.311    18 C    1.310    12 C    0.965
    14   6 C    3.958 --    15 C    1.484    13 N    1.311    46 H    0.952
    15   6 C    3.984 --    14 C    1.484    16 C    1.370    47 H    0.959
    16   6 C    3.966 --    15 C    1.370    17 C    1.363    19 C    1.041
    17   6 C    3.984 --    18 C    1.492    16 C    1.363    48 H    0.959
    18   6 C    3.960 --    17 C    1.492    13 N    1.310    49 H    0.955
    19   6 C    3.987 --    16 C    1.041    20 C    0.971    51 H    0.967
                            50 H    0.961
    20   6 C    3.984 --    54 H    0.987    52 H    0.987    53 H    0.978
                            19 C    0.971
    21   1 H    0.999 --     1 C    0.986
    22   1 H    0.999 --     1 C    0.987
    23   1 H    0.999 --     1 C    0.987
    24   1 H    0.999 --     2 C    0.976
    25   1 H    0.999 --     2 C    0.978
    26   1 H    0.999 --     3 C    0.976
    27   1 H    0.999 --     3 C    0.977
    28   1 H    0.999 --     4 C    0.975
    29   1 H    0.999 --     4 C    0.975
    30   1 H    0.999 --     5 C    0.975
    31   1 H    0.999 --     5 C    0.974
    32   1 H    0.999 --     6 C    0.976
    33   1 H    0.998 --     6 C    0.974
    34   1 H    0.999 --     7 C    0.976
    35   1 H    0.998 --     7 C    0.974
    36   1 H    0.999 --     8 C    0.975
    37   1 H    0.998 --     8 C    0.973
    38   1 H    1.000 --     9 C    0.972
    39   1 H    0.997 --     9 C    0.972
    40   1 H    0.999 --    10 C    0.972
    41   1 H    0.995 --    10 C    0.966
    42   1 H    0.998 --    11 C    0.974
    43   1 H    0.992 --    11 C    0.961
    44   1 H    0.992 --    12 C    0.964
    45   1 H    0.991 --    12 C    0.960
    46   1 H    0.989 --    14 C    0.952
    47   1 H    0.990 --    15 C    0.959
    48   1 H    0.990 --    17 C    0.959
    49   1 H    0.989 --    18 C    0.955
    50   1 H    0.993 --    19 C    0.961
    51   1 H    0.994 --    19 C    0.967
    52   1 H    0.997 --    20 C    0.987
    53   1 H    0.992 --    20 C    0.978
    54   1 H    0.997 --    20 C    0.987
 ---------------------------------------------------------------------------

Topologies differ in total number of bonds
Writing topology from bond orders to xtbtopo.mol

molecular dipole:
                 x           y           z       tot (Debye)
 q only:      -11.111      11.318     -11.864
   full:      -11.076      11.387     -11.927      50.491
molecular quadrupole (traceless):
                xx          xy          yy          xz          yz          zz
 q only:        6.165    -192.315     -10.678     211.407    -205.294       4.513
  q+dip:        3.654    -192.412      -6.291     209.792    -206.946       2.637
   full:        2.322    -192.435      -7.930     209.971    -207.154       5.608

           -------------------------------------------------
          |                Geometry Summary                 |
           -------------------------------------------------

      molecular mass/u    :      276.4806708
   center of mass at/Å    :       -3.5691950       4.4520392      -4.2562365
  moments of inertia/u·Å² :        0.5181508E+03   0.6124233E+04   0.6387882E+04
rotational constants/cm⁻¹ :        0.3253422E-01   0.2752611E-02   0.2639002E-02

 * 54 selected distances

     #   Z          #   Z                                           value/Å
     1   6 C        2   6 C                                       1.5241120
     2   6 C        3   6 C                                       1.5294995
     3   6 C        4   6 C                                       1.5300242
     4   6 C        5   6 C                                       1.5298573
     5   6 C        6   6 C                                       1.5300753
     6   6 C        7   6 C                                       1.5303340
     7   6 C        8   6 C                                       1.5300062
     8   6 C        9   6 C                                       1.5305295
     9   6 C       10   6 C                                       1.5309873
    10   6 C       11   6 C                                       1.5283700
    11   6 C       12   6 C                                       1.5360166
    12   6 C       13   7 N                                       1.4509723
    13   7 N       14   6 C                                       1.3391228
    14   6 C       15   6 C                                       1.3752116
    15   6 C       16   6 C                                       1.3974326
    16   6 C       17   6 C                                       1.3984581
    13   7 N       18   6 C                                       1.3397073
    17   6 C       18   6 C                                       1.3742272
    16   6 C       19   6 C                                       1.4861190
    19   6 C       20   6 C                                       1.5361266 (max)
     1   6 C       21   1 H                                       1.0871580
     1   6 C       22   1 H                                       1.0874627
     1   6 C       23   1 H                                       1.0877458
     2   6 C       24   1 H                                       1.0916317
     2   6 C       25   1 H                                       1.0925619
     3   6 C       26   1 H                                       1.0922280
     3   6 C       27   1 H                                       1.0928204
     4   6 C       28   1 H                                       1.0924896
     4   6 C       29   1 H                                       1.0914395
     5   6 C       30   1 H                                       1.0928618
     5   6 C       31   1 H                                       1.0913215
     6   6 C       32   1 H                                       1.0931300
     6   6 C       33   1 H                                       1.0909658
     7   6 C       34   1 H                                       1.0929145
     7   6 C       35   1 H                                       1.0908055
     8   6 C       36   1 H                                       1.0930029
     8   6 C       37   1 H                                       1.0907293
     9   6 C       38   1 H                                       1.0939456
     9   6 C       39   1 H                                       1.0903183
    10   6 C       40   1 H                                       1.0950451
    10   6 C       41   1 H                                       1.0897827
    11   6 C       42   1 H                                       1.0924328
    11   6 C       43   1 H                                       1.0890985
    12   6 C       44   1 H                                       1.0915078
    12   6 C       45   1 H                                       1.0902212
    14   6 C       46   1 H                                       1.0795568
    15   6 C       47   1 H                                       1.0786692
    17   6 C       48   1 H                                       1.0786152 (min)
    18   6 C       49   1 H                                       1.0800312
    19   6 C       50   1 H                                       1.0905326
    19   6 C       51   1 H                                       1.0899444
    20   6 C       52   1 H                                       1.0869375
    20   6 C       53   1 H                                       1.0855193
    20   6 C       54   1 H                                       1.0868981

 * 3 distinct bonds (by element types)

   Z      Z             #   av. dist./Å        max./Å        min./Å
   1 H    6 C          34     1.0894213     1.0950451     1.0786152
   6 C    6 C          17     1.4939639     1.5361266     1.3742272
   6 C    7 N           3     1.3766008     1.4509723     1.3391228


optimized geometry written to: xtbopt.xyz


           -------------------------------------------------
          | TOTAL ENERGY              -60.582486350415 Eh   |
          | GRADIENT NORM               0.000212627541 Eh/α |
          | HOMO-LUMO GAP               0.713568991243 eV   |
           -------------------------------------------------

------------------------------------------------------------------------
 * finished run on 2024/12/20 at 07:10:10.937     
------------------------------------------------------------------------
 total:
 * wall-time:     0 d,  0 h,  0 min,  0.714 sec
 *  cpu-time:     0 d,  0 h,  0 min,  5.540 sec
 * ratio c/w:     7.754 speedup
 SCF:
 * wall-time:     0 d,  0 h,  0 min,  0.039 sec
 *  cpu-time:     0 d,  0 h,  0 min,  0.306 sec
 * ratio c/w:     7.888 speedup
 ANC optimizer:
 * wall-time:     0 d,  0 h,  0 min,  0.657 sec
 *  cpu-time:     0 d,  0 h,  0 min,  5.101 sec
 * ratio c/w:     7.759 speedup

