19
 energy: -25.301392711347 gnorm: 0.036764488475 xtb: 6.7.1 (edcfbbe)
O            1.51667000000000       -0.02723000000000        0.35610000000000
C            0.52115000000000        0.53959000000000       -0.50273000000000
C            0.85633000000000        2.02055000000000       -0.69464000000000
N            2.33812000000000        2.15376000000000       -0.83721000000000
C            2.92643000000000        1.93708000000000       -2.19395000000000
C            2.82535000000000        3.24718000000000       -2.97869000000000
O            3.12357000000000        4.32068000000000       -2.07947000000000
H            1.20920000000000       -0.92438000000000        0.59911000000000
H            0.54812000000000        0.00351000000000       -1.45608000000000
H           -0.46717000000000        0.42055000000000       -0.04916000000000
H            0.35649000000000        2.47412000000000       -1.55448000000000
H            0.60412000000000        2.57888000000000        0.21254000000000
H            2.64096000000000        3.10105000000000       -0.54950000000000
H            2.74515000000000        1.48452000000000       -0.16030000000000
H            3.97812000000000        1.69186000000000       -2.01470000000000
H            2.43251000000000        1.09431000000000       -2.68453000000000
H            3.53462000000000        3.25693000000000       -3.81147000000000
H            1.81272000000000        3.39724000000000       -3.36476000000000
H            3.21197000000000        5.13203000000000       -2.62016000000000
19
 energy: -25.304057301235 gnorm: 0.019340662930 xtb: 6.7.1 (edcfbbe)
O            1.51771656011122        0.00065311105174        0.35287073047537
C            0.52676916390440        0.53956379961314       -0.51820866139876
C            0.86738183030386        2.02036948331061       -0.68668134184628
N            2.34383392327965        2.15600938062827       -0.82945104358106
C            2.92991251270219        1.94294898068093       -2.18216179671925
C            2.80944673214263        3.24317833654899       -2.97718594299397
O            3.12757212465242        4.29476719411666       -2.06936553728109
H            1.23971702235388       -0.88826195271251        0.61587195298224
H            0.55025872719072        0.01003190912283       -1.47765843665588
H           -0.47026246260773        0.44060302236093       -0.08036287544398
H            0.36153136109357        2.45376334273204       -1.54811389998392
H            0.57686236573009        2.56704472031194        0.21416237648441
H            2.64584261233117        3.10684676274078       -0.55751283142807
H            2.73778763736672        1.47775392902014       -0.15566224381496
H            3.98559117872685        1.69594143575905       -2.04322077581852
H            2.43128439394273        1.11615944823923       -2.68571897460035
H            3.51261398907035        3.22705033346637       -3.81436750437280
H            1.79416087759497        3.38428892165422       -3.36549332381176
H            3.22640945011031        5.11351784135464       -2.57581987019138
19
 energy: -25.304788707969 gnorm: 0.006598165433 xtb: 6.7.1 (edcfbbe)
O            1.51871215845464        0.01656202997426        0.35376962848723
C            0.53925419652119        0.54118366792992       -0.52654090398368
C            0.87585922580365        2.02508294165605       -0.69337502465744
N            2.34691837400189        2.15722216390726       -0.82526131500474
C            2.92225336657163        1.93855468424670       -2.17435323470811
C            2.79816178133904        3.24202806809937       -2.96722721592145
O            3.13220762181549        4.28106274679986       -2.06260952398466
H            1.26274548661476       -0.86649740991156        0.63456199266064
H            0.56657836034358        0.01366913698809       -1.48808012735516
H           -0.46742710232809        0.44882336265262       -0.10866462198870
H            0.36898534885712        2.44936314754402       -1.55758953771498
H            0.56706425285932        2.56524316282448        0.20331526957760
H            2.65224900203946        3.11223011002665       -0.57249356625521
H            2.72348953481640        1.46927488409870       -0.15140186002681
H            3.97856073585054        1.69114906819381       -2.05524439411864
H            2.41906536636898        1.11869476706073       -2.68271717944928
H            3.48817473520132        3.21037256393373       -3.81542404981662
H            1.78023107194839        3.38158671049706       -3.35182559109357
H            3.24134648292069        5.10662419347825       -2.54291874464641
19
 energy: -25.304928233518 gnorm: 0.002128700709 xtb: 6.7.1 (edcfbbe)
O            1.51895683302922        0.02851073611333        0.35772723294681
C            0.54495741765903        0.54084189988946       -0.52994977769005
C            0.87723292764486        2.02757797221192       -0.70053694992985
N            2.34702293637861        2.15726267564612       -0.82511831370917
C            2.91595728770636        1.93413243283415       -2.17387640453206
C            2.79308463912028        3.24261528832258       -2.96296934307270
O            3.13883339581062        4.27180741781481       -2.05723707711290
H            1.27394771333196       -0.85363925720590        0.65131990695444
H            0.58362744609021        0.01116675594600       -1.49061048877247
H           -0.46647216897389        0.44396449869556       -0.12390402874627
H            0.37301861777782        2.44916461315404       -1.56797121904613
H            0.56352249778596        2.56803193339644        0.19369023171015
H            2.65614021179192        3.11393374925005       -0.58196705545510
H            2.71405091172795        1.46539584469122       -0.14945978662234
H            3.97174792753881        1.68430378720133       -2.05968748134899
H            2.40826121997680        1.11624428467724       -2.68153130216810
H            3.47278364358512        3.20957590221612       -3.81980373395966
H            1.77160348943682        3.38738695945456       -3.33785263062394
H            3.25615305258157        5.10395250569097       -2.52434177882164
19
 energy: -25.304972630603 gnorm: 0.001651364657 xtb: 6.7.1 (edcfbbe)
O            1.51822863417365        0.03634941669393        0.36547454579497
C            0.54840722039266        0.53911510953224       -0.53068888088910
C            0.87542915105304        2.02743854895360       -0.70570765872950
N            2.34550029069568        2.15666570829837       -0.82718670748659
C            2.91183675822731        1.93195285737061       -2.17675425500015
C            2.79081456218177        3.24480416669961       -2.96062821812014
O            3.14814221266420        4.26733008610096       -2.05332766915564
H            1.27661803040544       -0.84493420562814        0.66669074839169
H            0.59888448443169        0.00648251936866       -1.48964173599972
H           -0.46580493053870        0.43688579631381       -0.13313045203554
H            0.37332016140239        2.44690885882719       -1.57570588810490
H            0.55973189104776        2.56971828005486        0.18680154745194
H            2.65719919783114        3.11370014318464       -0.58778798333172
H            2.70835836006402        1.46381451348446       -0.14992978203028
H            3.96720945593006        1.67935551314419       -2.06411452113741
H            2.40056251617289        1.11560546317348       -2.68384512526032
H            3.46235621536867        3.21282938121994       -3.82384246931102
H            1.76617295592812        3.39591960069729       -3.32547039343787
H            3.27146283256827        5.10228824251029       -2.51528510160868
19
 energy: -25.305017455537 gnorm: 0.001927601456 xtb: 6.7.1 (edcfbbe)
O            1.51508842489411        0.04555485166544        0.38074450643256
C            0.55231735633628        0.53502295414113       -0.53048392000005
C            0.87167760134144        2.02432523965467       -0.71151944312192
N            2.34260162844702        2.15552959889984       -0.83112544325186
C            2.90700834140532        1.93170732894097       -2.18260073353290
C            2.78862827862160        3.24957160480665       -2.95849131937637
O            3.16542540688553        4.26366467776761       -2.04938002583376
H            1.27304868935221       -0.83330291614377        0.69017104637508
H            0.62186745161608       -0.00260359961763       -1.48596829349763
H           -0.46574148979575        0.42501773358032       -0.14584997578639
H            0.37098099770293        2.43980863649952       -1.58439202791771
H            0.55402286196788        2.56963889155049        0.17869105711388
H            2.65679084095297        3.11234377108495       -0.59322630398323
H            2.70320704519847        1.46299299788356       -0.15204095432156
H            3.96174274782280        1.67505884133021       -2.07118856615396
H            2.39161735409340        1.11828830286599       -2.69048990802335
H            3.44771507720095        3.21898531301949       -3.83093463100834
H            1.75946815099939        3.41138059429239       -3.30702705129452
H            3.29696323495742        5.09924517777815       -2.50896801281793
19
 energy: -25.305055152178 gnorm: 0.001249201783 xtb: 6.7.1 (edcfbbe)
O            1.51092445546637        0.05031298417957        0.39495955116594
C            0.55461321141876        0.53037212601011       -0.52914308455000
C            0.86858835673846        2.01919368915489       -0.71433785537839
N            2.33963583893517        2.15436762140267       -0.83515645047545
C            2.90414557900675        1.93450800892670       -2.18787200065357
C            2.78786274805969        3.25482222353062       -2.95775185441296
O            3.18093134666224        4.26334931049087       -2.04817898054370
H            1.26497781163602       -0.82527744017123        0.70984627241491
H            0.63761401922799       -0.01201268330442       -1.48069123995901
H           -0.46635288793076        0.41685151475015       -0.15450899600909
H            0.36624110900293        2.43019573849268       -1.58820789755162
H            0.54946815310669        2.56602676962376        0.17444345156964
H            2.65357308585814        3.11060173916384       -0.59474541101588
H            2.70244728524343        1.46317515344595       -0.15592664625227
H            3.95847074576753        1.67560660815397       -2.07757868919870
H            2.38723150677644        1.12432660691513       -2.69907655122926
H            3.43794186330022        3.22308546342308       -3.83638697495833
H            1.75654292478058        3.42581059974355       -3.29488177486637
H            3.31957284694343        5.09691396606811       -2.50888486809584
19
 energy: -25.305082354062 gnorm: 0.000899693837 xtb: 6.7.1 (edcfbbe)
O            1.50674464517737        0.05410985529771        0.40800828066512
C            0.55626477372408        0.52501007145758       -0.52700011243293
C            0.86597672816583        2.01332780594945       -0.71696474893901
N            2.33632807628235        2.15307147200500       -0.83965228723071
C            2.90110612060897        1.93816000357006       -2.19292647949103
C            2.78785286164211        3.26082801888920       -2.95766215693013
O            3.19513511942246        4.26347975363242       -2.04760200057159
H            1.25755598804408       -0.81756278698112        0.73065302209288
H            0.64982438868787       -0.02260890801195       -1.47425001013825
H           -0.46754534869318        0.41019536026250       -0.16108612756121
H            0.36079391736106        2.41939629906355       -1.59142082850632
H            0.54531719243991        2.56101917798214        0.17059671999162
H            2.64854302772585        3.10886869556135       -0.59542447052042
H            2.70305832317173        1.46317343830629       -0.16125513204894
H            3.95506404889199        1.67765527451036       -2.08400577359460
H            2.38331976264802        1.13145871149701       -2.70858638848470
H            3.43064144463556        3.22641871106271       -3.84134866472025
H            1.75554034960150        3.44079593686935       -3.28608998937419
H            3.34290858046255        5.09543310907639       -2.50806285220526
19
 energy: -25.305095476121 gnorm: 0.000483785662 xtb: 6.7.1 (edcfbbe)
O            1.50482134709318        0.05659102886593        0.41601368826265
C            0.55718189160143        0.52112828024131       -0.52467757722687
C            0.86391998132151        2.00946367598334       -0.71932804269614
N            2.33370227003475        2.15204278847953       -0.84322122197945
C            2.89864307819586        1.94025335799153       -2.19670728987237
C            2.78863692929156        3.26537648289016       -2.95767167883797
O            3.20367517718899        4.26359000752886       -2.04661282668779
H            1.25435636916647       -0.81218982521083        0.74492933644435
H            0.65573620592303       -0.03030518542367       -1.46907737216631
H           -0.46791183729865        0.40592848992192       -0.16272033544839
H            0.35717926839661        2.41179502777406       -1.59463954900152
H            0.54214920666672        2.55840591271032        0.16706019222015
H            2.64448056172222        3.10763745857147       -0.59632746262321
H            2.70327492953806        1.46289703869682       -0.16558101497933
H            3.95223553420548        1.67792081546541       -2.08862065388466
H            2.37962668171500        1.13619643296325       -2.71530293113883
H            3.42816763893235        3.22957556226530       -3.84357238147794
H            1.75624499680570        3.45108330312893       -3.28226814912711
H            3.35830976949987        5.09483934715634       -2.50575472977917
19
 energy: -25.305103238361 gnorm: 0.000369183030 xtb: 6.7.1 (edcfbbe)
O            1.50495880330260        0.05867824297974        0.41972506506979
C            0.55730837371284        0.51893574796867       -0.52263494323513
C            0.86249817650248        2.00723177446795       -0.72126713837263
N            2.33200388545684        2.15137717747569       -0.84552945886882
C            2.89677813950955        1.94119739443585       -2.19923549398613
C            2.78987269472583        3.26810265836970       -2.95786238813695
O            3.20753648601621        4.26306935972440       -2.04488974659754
H            1.25476949055051       -0.80848642495485        0.75300725976562
H            0.65715524627655       -0.03491457532851       -1.46544826972976
H           -0.46796256790334        0.40363928579447       -0.16113828377015
H            0.35518179837670        2.40660366936456       -1.59760826730713
H            0.53990541139282        2.55783393364844        0.16377944442882
H            2.64201860418073        3.10691770548206       -0.59737208587791
H            2.70296290902334        1.46252973886844       -0.16830812203489
H            3.94986275484685        1.67668491960424       -2.09161459453520
H            2.37624878309047        1.13928136885328       -2.71964067649997
H            3.42901921407737        3.23217982120043       -3.84406488411623
H            1.75785586846999        3.45687922502964       -3.28177787080071
H            3.36645592839180        5.09448897701574       -2.50219954539498
19
 energy: -25.305110369794 gnorm: 0.000428580529 xtb: 6.7.1 (edcfbbe)
O            1.50636893167809        0.06041227533386        0.42202738949963
C            0.55746113260462        0.51754785408406       -0.52037296632367
C            0.86101282484546        2.00585095667529       -0.72326493924228
N            2.33034921057788        2.15072918441553       -0.84777824322287
C            2.89510340088496        1.94134044334298       -2.20153293223224
C            2.79150829904424        3.27019088789612       -2.95769403167886
O            3.20960483854127        4.26269673989497       -2.04246442542075
H            1.25711345709972       -0.80569052827056        0.75848362239241
H            0.65647601391838       -0.03857079021541       -1.46196104464989
H           -0.46734312285056        0.40248440218801       -0.15736748302991
H            0.35366262365243        2.40217303175108       -1.60098021748697
H            0.53756516997621        2.55869698717832        0.16007655040857
H            2.64006451853675        3.10629767832396       -0.59914627372905
H            2.70184581990003        1.46194757867001       -0.17070834474560
H            3.94751421235672        1.67398568030671       -2.09428424142590
H            2.37254447689143        1.14166596667342       -2.72336857939089
H            3.43192676638322        3.23471661706812       -3.84304250413614
H            1.76028628400658        3.46122129454047       -3.28288408350358
H            3.37136514195271        5.09453374014302       -2.49781725208188
19
 energy: -25.305118324587 gnorm: 0.000372806668 xtb: 6.7.1 (edcfbbe)
O            1.50879804478009        0.06287016111466        0.42395003014638
C            0.55703499569865        0.51629374139416       -0.51739736077298
C            0.85929992999873        2.00427709420645       -0.72575450751287
N            2.32855115553489        2.15002483533678       -0.85022170041747
C            2.89300793629835        1.94142245314092       -2.20421849248971
C            2.79401887391074        3.27226126549107       -2.95783691280009
O            3.21117925329315        4.26180709028563       -2.03894766826253
H            1.26136862411989       -0.80250269289303        0.76370455360043
H            0.65427953764137       -0.04255904400752       -1.45763249356096
H           -0.46675825749359        0.40132316033486       -0.15130617509651
H            0.35201701052465        2.39662792168838       -1.60531085058568
H            0.53483648527228        2.56037497284789        0.15513455802771
H            2.63823410810367        3.10567872498648       -0.60153715462594
H            2.70012909018247        1.46117757074112       -0.17313866542114
H            3.94438463497337        1.67001313123757       -2.09730294648631
H            2.36772182206564        1.14467732671336       -2.72782738511647
H            3.43691970478066        3.23806237020603       -3.84152373843356
H            1.76389885039599        3.46576414042166       -3.28528807073806
H            3.37550819991915        5.09463577675353       -2.49162501945409
19
 energy: -25.305125496440 gnorm: 0.000245296513 xtb: 6.7.1 (edcfbbe)
O            1.51171679345764        0.06552096347327        0.42639546217309
C            0.55683067035355        0.51516687955275       -0.51389809172020
C            0.85709645685931        2.00277799289321       -0.72856809671942
N            2.32625153144295        2.14912438792710       -0.85334647401261
C            2.89080192945372        1.94119505244094       -2.20739666090697
C            2.79696297501298        3.27446092533138       -2.95761392893880
O            3.21311404709771        4.26105616898410       -2.03479799828059
H            1.26643688273015       -0.79936000244338        0.76890362055350
H            0.65178711608333       -0.04702507939566       -1.45240717114173
H           -0.46567287572169        0.40050263686716       -0.14411547169761
H            0.34982082273557        2.39057108900754       -1.61016843291874
H            0.53157552555540        2.56263280448181        0.14953211341939
H            2.63611881009457        3.10487284641192       -0.60484393413238
H            2.69762741844267        1.46017580342870       -0.17610493755670
H            3.94098539048570        1.66514674979998       -2.10075065251839
H            2.36247129704097        1.14781860229441       -2.73308834453680
H            3.44285842214389        3.24163323895489       -3.83917043927959
H            1.76829755392157        3.47097687917947       -3.28792396582241
H            3.37934923281017        5.09498206081038       -2.48471659596291
19
 energy: -25.305129984496 gnorm: 0.000168875258 xtb: 6.7.1 (edcfbbe)
O            1.51362827865382        0.06798051538124        0.42893633280347
C            0.55647020238814        0.51410596691890       -0.51099253169142
C            0.85534431382974        2.00126937981163       -0.73085568668736
N            2.32441217931651        2.14840426216626       -0.85584598413144
C            2.88891924576009        1.94128011764427       -2.21004787212742
C            2.79943858930032        3.27635019575286       -2.95764514467449
O            3.21542140222837        4.26024921498601       -2.03160690176120
H            1.27035391604739       -0.79670080809948        0.77336189840908
H            0.65028087760102       -0.05089267392579       -1.44794805094956
H           -0.46515531212347        0.39953240801424       -0.13869248841737
H            0.34789970337843        2.38529948262946       -1.61401161250348
H            0.52902734207787        2.56414679921022        0.14498844412340
H            2.63438931818112        3.10423488768425       -0.60744431814449
H            2.69568109934214        1.45937452411425       -0.17849922180422
H            3.93811322830098        1.66150960561347       -2.10357196259024
H            2.35825274720576        1.15068595997720       -2.73758702806357
H            3.44734598948859        3.24456256410685       -3.83779208209371
H            1.77182997954194        3.47563806602793       -3.28963071889704
H            3.38277689948141        5.09519953198619       -2.47919507079879
