55
 energy: -61.891674764328 gnorm: 0.047253560577 xtb: 6.7.1 (edcfbbe)
C            1.04167000000000       -0.06056000000000        0.58118000000000
C            0.95641000000000        1.44029000000000        0.34889000000000
C            1.30921000000000        1.85784000000000       -1.08136000000000
C            0.41473000000000        1.27194000000000       -2.17949000000000
C           -1.07789000000000        1.59557000000000       -2.05325000000000
C           -1.43120000000000        3.08666000000000       -2.09715000000000
C           -1.03717000000000        3.81731000000000       -3.38615000000000
C           -1.64264000000000        3.24811000000000       -4.67414000000000
C           -3.17465000000000        3.24497000000000       -4.73156000000000
C           -3.83738000000000        4.62653000000000       -4.66835000000000
C           -3.42268000000000        5.60905000000000       -5.77034000000000
C           -3.62064000000000        5.10834000000000       -7.20474000000000
C           -5.07159000000000        4.80963000000000       -7.59692000000000
C           -5.96608000000000        6.04551000000000       -7.68531000000000
N           -5.47478000000000        7.02958000000000       -8.65845000000000
C           -5.22966000000000        8.37122000000000       -8.40609000000000
C           -4.76077000000000        8.91376000000000       -9.56877000000000
N           -4.74170000000000        7.89504000000000      -10.50590000000000
C           -5.20570000000000        6.76699000000000       -9.94778000000000
C           -4.27188000000000        7.99936000000000      -11.88104000000000
H            0.28749000000000       -0.60047000000000        0.00121000000000
H            0.87079000000000       -0.28778000000000        1.63839000000000
H            2.02961000000000       -0.44471000000000        0.30808000000000
H           -0.04439000000000        1.79614000000000        0.61623000000000
H            1.65331000000000        1.93738000000000        1.03459000000000
H            1.29296000000000        2.95233000000000       -1.14128000000000
H            2.34540000000000        1.56141000000000       -1.28840000000000
H            0.78403000000000        1.62053000000000       -3.15117000000000
H            0.53288000000000        0.18189000000000       -2.19741000000000
H           -1.61561000000000        1.06980000000000       -2.85090000000000
H           -1.46380000000000        1.17409000000000       -1.11774000000000
H           -2.51074000000000        3.19194000000000       -1.93735000000000
H           -0.95981000000000        3.59796000000000       -1.24961000000000
H           -1.31815000000000        4.87249000000000       -3.28764000000000
H            0.05484000000000        3.81326000000000       -3.48499000000000
H           -1.24529000000000        3.81444000000000       -5.52448000000000
H           -1.28761000000000        2.22113000000000       -4.81959000000000
H           -3.48601000000000        2.73667000000000       -5.65181000000000
H           -3.57116000000000        2.63069000000000       -3.91482000000000
H           -4.92501000000000        4.49032000000000       -4.69760000000000
H           -3.62618000000000        5.08664000000000       -3.69570000000000
H           -3.97449000000000        6.54577000000000       -5.62920000000000
H           -2.36537000000000        5.86855000000000       -5.63879000000000
H           -3.20188000000000        5.85274000000000       -7.89240000000000
H           -3.02499000000000        4.20172000000000       -7.36062000000000
H           -5.06153000000000        4.31005000000000       -8.57316000000000
H           -5.51585000000000        4.09356000000000       -6.89726000000000
H           -6.97306000000000        5.75316000000000       -8.00491000000000
H           -6.06260000000000        6.52688000000000       -6.70630000000000
H           -5.41372000000000        8.76639000000000       -7.42134000000000
H           -4.43199000000000        9.89902000000000       -9.85325000000000
H           -5.32014000000000        5.81122000000000      -10.44535000000000
H           -3.22361000000000        7.69066000000000      -11.91641000000000
H           -4.87050000000000        7.34502000000000      -12.52031000000000
H           -4.36614000000000        9.03047000000000      -12.23151000000000
55
 energy: -61.895621371079 gnorm: 0.020964010192 xtb: 6.7.1 (edcfbbe)
C            1.03957362952876       -0.06095650076802        0.57891025645175
C            0.95385548597654        1.44086864224931        0.34463141327854
C            1.30520561870623        1.86161565164713       -1.08321534843262
C            0.41239298003921        1.27490969545018       -2.17897015055020
C           -1.07794460559055        1.59795533059082       -2.05530615845066
C           -1.43387280529306        3.08553340731063       -2.09986109591128
C           -1.04070206273188        3.81692728027178       -3.38558908363010
C           -1.64417048041101        3.25145021049472       -4.67325075933135
C           -3.17324619772962        3.24770819852285       -4.73738829982946
C           -3.84019121667660        4.62422588187484       -4.67281109191871
C           -3.42401608965999        5.60947315793966       -5.76898831265224
C           -3.61919675300489        5.11536048526921       -7.20430470902250
C           -5.06508818985997        4.81484850320517       -7.60768122725224
C           -5.96926062841397        6.04523208273435       -7.69020903524042
N           -5.47637593750349        7.02065331326105       -8.65544081416065
C           -5.21514217575957        8.34380967904662       -8.40909725368348
C           -4.75864971939045        8.88847652761242       -9.56945263286525
N           -4.74694754531484        7.88855705832719      -10.50526522750101
C           -5.19171177540522        6.76920408679362       -9.93361927751480
C           -4.28049049167461        7.99973488510454      -11.87138305083392
H            0.29128481400629       -0.59749704039969       -0.00201455473245
H            0.87194949699314       -0.28872484343241        1.63134677302121
H            2.02375975585868       -0.43814446405328        0.30345882093500
H           -0.04818232127767        1.79294670804338        0.60211697021588
H            1.65135912678757        1.94092185573412        1.02390123078875
H            1.28150628060910        2.95368544792155       -1.14215161800054
H            2.33594778862222        1.55550710872426       -1.28964030686567
H            0.78023327956678        1.63058413566422       -3.14605088302512
H            0.52541590313760        0.18702819393519       -2.18521028466316
H           -1.60977597264791        1.07608154795041       -2.85657236221154
H           -1.45492181196559        1.18685302752645       -1.11485437464810
H           -2.51249032137692        3.18513158979874       -1.94468195981668
H           -0.95111701697614        3.59327828113942       -1.26038894996879
H           -1.32747080309552        4.86811508512239       -3.28387083557980
H            0.04807174313211        3.79998634533701       -3.48650767400297
H           -1.24789293194009        3.82282531100655       -5.51835525074772
H           -1.29784916062157        2.22297148635954       -4.80583099367620
H           -3.47901406943360        2.74080980382630       -5.65804573538545
H           -3.56245695938235        2.64697533307553       -3.91162325873349
H           -4.92522584318066        4.48228450709127       -4.70253704596201
H           -3.61491082294520        5.08451017694123       -3.70750985364176
H           -3.97740301905426        6.54263373749820       -5.62360992858286
H           -2.36656229264437        5.85427655976953       -5.64185077055455
H           -3.20130339123015        5.86039975214299       -7.89027667299021
H           -3.03589857817573        4.20295209679731       -7.34467892639243
H           -5.06189579229563        4.30450256164249       -8.57540805619923
H           -5.50951104950722        4.12326707295089       -6.89010188243096
H           -6.97684744355616        5.74500962138236       -7.99698371571692
H           -6.04247440781510        6.53776137215277       -6.71854474437132
H           -5.39146099687087        8.75697482829246       -7.43579293067738
H           -4.44015143251724        9.87791039711248       -9.83342507200852
H           -5.30411457271413        5.82237610233346      -10.42742377311103
H           -3.23175567122565        7.70230776628399      -11.92586631277892
H           -4.86920216942642        7.34884426933832      -12.51598918396985
H           -4.37637037666842        9.02756668805256      -12.21625402446460
55
 energy: -61.896415845198 gnorm: 0.007149989350 xtb: 6.7.1 (edcfbbe)
C            1.03854463011074       -0.05924491004482        0.57242090727609
C            0.94746435285749        1.44410921020330        0.34093534180389
C            1.30097421427989        1.86495219403643       -1.08651239138081
C            0.40890723868376        1.27743685255456       -2.18213260744717
C           -1.08137109643565        1.59926287984568       -2.05739959342318
C           -1.43753803104812        3.08647527725707       -2.10134398970062
C           -1.04410269616824        3.81888168381132       -3.38602471246846
C           -1.64476344403382        3.25378697073372       -4.67490144786098
C           -3.17347223073646        3.24844460723546       -4.74057119177971
C           -3.84126545253557        4.62412850184904       -4.67620247629420
C           -3.42497184912709        5.61191900596115       -5.76967781771064
C           -3.61536035889168        5.11803292050109       -7.20568197217995
C           -5.06051178375361        4.81101564238178       -7.60452603105180
C           -5.96293144268128        6.04399962835950       -7.69027835876319
N           -5.47392171421994        7.01153676463085       -8.65325672745114
C           -5.20802410180827        8.32369547616110       -8.41064796115467
C           -4.75314884144517        8.86962759030813       -9.57036212794420
N           -4.74761039607537        7.88111189330148      -10.50579437681388
C           -5.18644562149356        6.76740784004351       -9.92731979129619
C           -4.28766650583746        8.00006681320155      -11.86510604547877
H            0.29246538986391       -0.59371573343274       -0.00917665866726
H            0.87296489803733       -0.28689640552895        1.62264256824534
H            2.02249770001578       -0.42983008254461        0.29466144588901
H           -0.05635333366484        1.79086792719380        0.59322847777763
H            1.64303276567710        1.94534060944638        1.01878411051770
H            1.27331602373669        2.95533863725178       -1.14326022151636
H            2.32917308191763        1.55635442247870       -1.29305352019815
H            0.77664070503357        1.63479195203185       -3.14685113179967
H            0.51942926867787        0.19136419835352       -2.18222786099360
H           -1.61016710130599        1.07796456303650       -2.85887010100299
H           -1.45387244078390        1.19319534824867       -1.11520829610557
H           -2.51499509803887        3.18271524169811       -1.94734340003182
H           -0.95052916756911        3.59254443287990       -1.26580959300202
H           -1.33224188026432        4.86789232446321       -3.28144588368670
H            0.04250832813882        3.79596198730294       -3.48737137472191
H           -1.24623209690807        3.82632152672726       -5.51640302229415
H           -1.30279084961940        2.22521883297299       -4.80091680589868
H           -3.47497954668789        2.74123531494645       -5.66061306101092
H           -3.55987770203763        2.65393568073564       -3.91169220015921
H           -4.92429371518365        4.47870657967842       -4.70619823061457
H           -3.61099355893144        5.08366781598860       -3.71421459469423
H           -3.97741389817415        6.54364266799751       -5.61964339531484
H           -2.36793051575741        5.84808988180108       -5.64342800002061
H           -3.19673603038974        5.86338643002402       -7.88966300331213
H           -3.03671881708147        4.20439537465101       -7.33752389144289
H           -5.06175608802352        4.29557204608744       -8.56685709638944
H           -5.50321221876419        4.13321943584843       -6.87533274574077
H           -6.97160281942897        5.73956685668313       -7.98538133509479
H           -6.02104525844185        6.54225369257669       -6.72239350833507
H           -5.37017282028679        8.75726726958201       -7.44498566949869
H           -4.43751970352097        9.86500828641286       -9.80891003242260
H           -5.29877024105711        5.82356522627665      -10.42037301306789
H           -3.23698223848126        7.71196291569838      -11.93391253167914
H           -4.87146258031309        7.35169272827539      -12.51485519200355
H           -4.38887331002386        9.02925517182528      -12.20053786058989
55
 energy: -61.896570724291 gnorm: 0.004241685127 xtb: 6.7.1 (edcfbbe)
C            1.03777530469454       -0.05728372729362        0.56710496487630
C            0.94236444713587        1.44661164461665        0.33718425272477
C            1.29695279055965        1.86897578551976       -1.08984396117093
C            0.40547754299443        1.27930810352025       -2.18524849298632
C           -1.08519065876703        1.60043705913457       -2.05936381968098
C           -1.44116993319624        3.08805250852651       -2.10220377541684
C           -1.04564330169892        3.82080521911510       -3.38638600960314
C           -1.64483198623773        3.25459709383286       -4.67581285576710
C           -3.17379492680151        3.24897331473219       -4.74204040123498
C           -3.84115338589287        4.62509352131158       -4.67657647646785
C           -3.42168011730347        5.61262637378954       -5.76939202349727
C           -3.61171348177733        5.11625856446626       -7.20491066244002
C           -5.05726733639175        4.80680340009761       -7.60014507188283
C           -5.95861769442725        6.04156161115260       -7.68666724473452
N           -5.47025951326253        7.00497702453057       -8.65088610646993
C           -5.20010470994489        8.31453536923284       -8.40720615828987
C           -4.74671362454544        8.86185480927610       -9.56845257241367
N           -4.74522829281811        7.87575719153614      -10.50502530921887
C           -5.18513907221097        6.76222537064735       -9.92610231204736
C           -4.29234754163752        8.00076301411688      -11.86412362590429
H            0.29263862430608       -0.59239172528515       -0.01517590767492
H            0.87362677441994       -0.28675850451692        1.61711300087758
H            2.02282627646944       -0.42369842692899        0.28751371660094
H           -0.06301090910619        1.78954035321026        0.58755850927823
H            1.63494438904944        1.94938518073370        1.01650381704451
H            1.26806058701014        2.95915908978824       -1.14649549724176
H            2.32523108787014        1.56118135619859       -1.29563138780650
H            0.77256887087454        1.63634601133389       -3.15000460426525
H            0.51667107523200        0.19360651567060       -2.18436965354096
H           -1.61421997583750        1.07915435308560       -2.86032782731723
H           -1.45659357410741        1.19439929497192       -1.11710067206147
H           -2.51845966526860        3.18431973435079       -1.94863373574737
H           -0.95424711975711        3.59325664468293       -1.26647690501113
H           -1.33409969869992        4.86947426658748       -3.28192267704990
H            0.04082034772410        3.79768759091321       -3.48631527159967
H           -1.24548895741849        3.82674801904341       -5.51681873252729
H           -1.30269358564529        2.22627031631543       -4.80058260247021
H           -3.47492391533049        2.74155676164889       -5.66181753943812
H           -3.55985665807804        2.65496085329517       -3.91310101890754
H           -4.92401252808386        4.48016534388412       -4.70735494151502
H           -3.61102654557182        5.08364301678099       -3.71440301486438
H           -3.97377044860915        6.54430340438249       -5.61989505202479
H           -2.36484076502440        5.84778398654773       -5.64160617988433
H           -3.19505615966372        5.86133717923493       -7.88984505665259
H           -3.03105048263389        4.20409451347669       -7.33487920036800
H           -5.06171937296479        4.28748081281580       -8.55996230106328
H           -5.49722605251959        4.13353577582271       -6.86590053012385
H           -6.96887967915287        5.73727980819137       -7.97569975029518
H           -6.01062924557918        6.54082114564608       -6.71901952630913
H           -5.35308485929900        8.75885548639353       -7.44464460456121
H           -4.43247420999622        9.86093885399443       -9.79335059466466
H           -5.29976406453590        5.81835364742649      -10.42050041372646
H           -3.24024979084541        7.71807226027459      -11.94029832238013
H           -4.87528406462427        7.35300946967621      -12.51582560417048
H           -4.39915021307398        9.03169435849132      -12.19415225691273
55
 energy: -61.896692780743 gnorm: 0.002853755624 xtb: 6.7.1 (edcfbbe)
C            1.03701193037553       -0.05331150429859        0.55771851124836
C            0.93354189734769        1.45082075189345        0.33072414838634
C            1.28920941780357        1.87536652168413       -1.09555942515936
C            0.39883306116699        1.28321201681012       -2.19088440599643
C           -1.09230334454521        1.60279415802373       -2.06299404218119
C           -1.44734894379522        3.09097272323017       -2.10378974479704
C           -1.04838960774734        3.82389721206022       -3.38710568593992
C           -1.64510768389543        3.25557078544469       -4.67701286087157
C           -3.17429839052426        3.24960870442777       -4.74262403714767
C           -3.83915712751449        4.62711473268037       -4.67589882515867
C           -3.41522130572466        5.61309022112790       -5.76868695473459
C           -3.60453898993204        5.11254355838654       -7.20316391362228
C           -5.05091346833684        4.79862325662993       -7.59152928653096
C           -5.95030166823285        6.03568553800010       -7.67901453961193
N           -5.46275185732059        6.99526558545631       -8.64595176785802
C           -5.18576783386699        8.30270493962788       -8.39971204708841
C           -4.73395010803160        8.85177777002591       -9.56291620725091
N           -4.74121858662485        7.86830351350763      -10.50225938489754
C           -5.18511547286661        6.75422807884111       -9.92455263091943
C           -4.30043154796335        8.00212057241786      -11.86392109024426
H            0.29343415511455       -0.59101662189745       -0.02487327938235
H            0.87543952599491       -0.28618915288036        1.60768867019767
H            2.02389541321123       -0.41384253744716        0.27556443272087
H           -0.07449986709286        1.78756112318214        0.57895627687114
H            1.62107834813169        1.95656082091068        1.01300338257468
H            1.25806384507113        2.96556133513137       -1.15234623933698
H            2.31860368580972        1.57053946872627       -1.30042155363935
H            0.76454527626069        1.63961434107696       -3.15643948576625
H            0.51210890700571        0.19768594864996       -2.18969575060877
H           -1.62254633806414        1.08208307297314       -2.86357913078266
H           -1.46291823017110        1.19512591241339       -1.12107132047350
H           -2.52480033180717        3.18835023491507       -1.95169474380164
H           -0.96198314037302        3.59479410624012       -1.26622398879293
H           -1.33721240302756        4.87263847548194       -3.28421361004512
H            0.03843242588298        3.80170821684992       -3.48411737997178
H           -1.24531482031047        3.82665370251248       -5.51852360097304
H           -1.30183566671466        2.22745341085634       -4.80083074435773
H           -3.47641141914244        2.74291973066115       -5.66249697136327
H           -3.56054954518296        2.65462516664043       -3.91436826802472
H           -4.92238044150364        4.48513599632694       -4.70812393567467
H           -3.61016817559618        5.08404702780039       -3.71254610324920
H           -3.96580361029979        6.54609635601949       -5.62217405590903
H           -2.35834630195225        5.84735189493257       -5.63846914720183
H           -3.19165627506955        5.85708872828204       -7.89081839661460
H           -3.01985162596356        4.20269812124879       -7.33214407304234
H           -5.05985740028283        4.27472754760885       -8.54873362137955
H           -5.48700869076500        4.12908589217708       -6.85202766218898
H           -6.96287351878745        5.73298626532591       -7.96123170608453
H           -5.99638263828048        6.53559860455931       -6.71123896721960
H           -5.32567209975813        8.75847493668440       -7.44039875599015
H           -4.41954950989485        9.85433946229800       -9.77132963938808
H           -5.30525159190612        5.81094526588870      -10.42136856731758
H           -3.24654071837944        7.72759200709743      -11.95068837363171
H           -4.88362507359501        7.35423176252814      -12.51603115916416
H           -4.41705251833405        9.03488424024876      -12.18737834061279
55
 energy: -61.896741492335 gnorm: 0.002833044582 xtb: 6.7.1 (edcfbbe)
C            1.03686756720500       -0.05054750317047        0.55168355003125
C            0.92783801015900        1.45323561324926        0.32612127361093
C            1.28328810325096        1.87963093494318       -1.09952785188572
C            0.39369965739630        1.28610189716512       -2.19464317415907
C           -1.09746183095097        1.60477942255776       -2.06566062037042
C           -1.45174407288292        3.09310691107840       -2.10506117485670
C           -1.05020906409110        3.82574463296669       -3.38763360269577
C           -1.64556701240557        3.25587625125637       -4.67735681889784
C           -3.17468081143058        3.25033811849095       -4.74236054664819
C           -3.83709176265863        4.62888361128895       -4.67483237236082
C           -3.40985837571818        5.61290700362237       -5.76795153631200
C           -3.59906729988937        5.10977222246629       -7.20150450325192
C           -5.04562335719329        4.79355081093416       -7.58697673674910
C           -5.94483420502821        6.03073719507323       -7.67398235113860
N           -5.45741549009560        6.99008538630964       -8.64190839021151
C           -5.17460089508195        8.29622627676684       -8.39356898232211
C           -4.72486932713470        8.84637058850564       -9.55765837463653
N           -4.73947893056478        7.86479423443257      -10.49918802415374
C           -5.18610643954857        6.75059092748162       -9.92275114873551
C           -4.30654762718278        8.00270244634947      -11.86365256343793
H            0.29450273793682       -0.59057010297501       -0.03065235753905
H            0.87725287260115       -0.28548367344470        1.60167012785227
H            2.02478657187250       -0.40746436564049        0.26802777525073
H           -0.08179009062320        1.78601047528900        0.57368320147378
H            1.61239964874917        1.96119432470581        1.00993024309006
H            1.25038818544089        2.96993604453858       -1.15615752837977
H            2.31356789309100        1.57717342588217       -1.30426709237875
H            0.75847044502595        1.64254075699635       -3.16069733933333
H            0.50844944033052        0.20055504544822       -2.19387519555601
H           -1.62847762978433        1.08480874747468       -2.86640709311123
H           -1.46798609810387        1.19561479153046       -1.12416061130650
H           -2.52944159491802        3.19155154250269       -1.95435877637083
H           -0.96768746734420        3.59605417747090       -1.26599844551947
H           -1.33919637254669        4.87471745538892       -3.28628209376760
H            0.03696844650429        3.80424471498256       -3.48270570540961
H           -1.24586426275735        3.82608635235262       -5.51963683650105
H           -1.30159557166858        2.22775340089370       -4.80072337252802
H           -3.47813463657645        2.74438486643887       -5.66234649035268
H           -3.56129655638703        2.65471805339377       -3.91449870897147
H           -4.92082949890160        4.48982669615599       -4.70742876437787
H           -3.60809982898201        5.08516093209455       -3.71095461830389
H           -3.95897414571226        6.54731688109121       -5.62403751761444
H           -2.35274438004363        5.84638749333655       -5.63658571062712
H           -3.18852064208768        5.85405917886691       -7.89094875355849
H           -3.01210309884272        4.20113438665866       -7.33059641097940
H           -5.05633473555563        4.26822497517755       -8.54348538549256
H           -5.47985348463826        4.12439493062681       -6.84601830279051
H           -6.95818625651977        5.72923418439678       -7.95461829371526
H           -5.98946970061482        6.53070800457081       -6.70608315421657
H           -5.30746956425886        8.75358720160289       -7.43435955836529
H           -4.40837935107897        9.84898025220584       -9.76100268500011
H           -5.31114273319914        5.80858324358085      -10.42108108855959
H           -3.25186378258856        7.73343260231123      -11.95620267511596
H           -4.89054453714268        7.35322420202570      -12.51353243895196
H           -4.43004705683090        9.03553182030107      -12.18471439379111
55
 energy: -61.896812558092 gnorm: 0.003007411764 xtb: 6.7.1 (edcfbbe)
C            1.03770248649895       -0.04682806217594        0.54363649483236
C            0.92004804849159        1.45617761127276        0.31981931044572
C            1.27414838698531        1.88531448630394       -1.10504407741096
C            0.38554633073128        1.29019563694091       -2.19974317018811
C           -1.10546179923598        1.60780888529925       -2.06938979580803
C           -1.45819139163246        3.09629490557788       -2.10704220944504
C           -1.05287084070634        3.82801519170133       -3.38862553515479
C           -1.64676749143434        3.25607264068739       -4.67773266234502
C           -3.17565868642266        3.25208528320340       -4.74146988450675
C           -3.83336078782055        4.63255502040013       -4.67324733172919
C           -3.40148044662272        5.61296315565019       -5.76739086723311
C           -3.59048645328338        5.10630119824788       -7.19951932977521
C           -5.03692472730032        4.78679821576168       -7.58217596282611
C           -5.93729631686246        6.02269273482496       -7.66751440299074
N           -5.44999542507785        6.98369083982898       -8.63554792346486
C           -5.15724870032813        8.28751625500963       -8.38368181497463
C           -4.71145400348347        8.83929016921360       -9.54857716708107
N           -4.73844167915041        7.86111638719474      -10.49376898632902
C           -5.18886960180121        6.74714009947386       -9.91942219281091
C           -4.31642576508959        8.00327820875085      -11.86249719348339
H            0.29735604342156       -0.59073556591772       -0.03793198376729
H            0.88122802526822       -0.28428788269236        1.59365545241282
H            2.02707440466420       -0.39830077107610        0.25790789790810
H           -0.09178039578601        1.78301553597268        0.56693807011233
H            1.60069756305760        1.96771294216681        1.00513244361621
H            1.23820417386805        2.97573213892022       -1.16107186468792
H            2.30564248207286        1.58656848350956       -1.31024823335847
H            0.74907159716287        1.64683329276476       -3.16641101248623
H            0.50209961176736        0.20461974445040       -2.19952441564584
H           -1.63747046064912        1.08913559759787       -2.87057532952744
H           -1.47604188437311        1.19672839253038       -1.12849189917951
H           -2.53621573634746        3.19654100590822       -1.95860431880463
H           -0.97586484001775        3.59799178599301       -1.26596883826932
H           -1.34151898028516        4.87748371760050       -3.28971260831349
H            0.03473162933890        3.80671566735930       -3.48114457758898
H           -1.24705398486856        3.82452964149383       -5.52139594287541
H           -1.30263810980217        2.22764411611170       -4.80001845440428
H           -3.48154140144559        2.74723098001479       -5.66144186196924
H           -3.56299792577168        2.65623769385632       -3.91380282998628
H           -4.91793358610694        4.49854586789186       -4.70560433622941
H           -3.60309156649816        5.08826699501724       -3.70914895941054
H           -3.94771240383501        6.54989482138460       -5.62740844250294
H           -2.34380448945868        5.84430935481837       -5.63489563136610
H           -3.18262653872194        5.85005306972561       -7.89137709708632
H           -3.00109055244756        4.19886995189682       -7.32850328210903
H           -5.04865664761704        4.26111423157588       -8.53863464227330
H           -5.46888394396753        4.11645482164388       -6.84074906554681
H           -6.95072231882101        5.72211768236556       -7.94868650224851