13
 energy: -13.808780460847 gnorm: 0.000082020256 xtb: 6.7.1 (edcfbbe)
C            1.04798342442677       -0.05533781607523       -0.03757972844657
S            0.57353322613124       -1.72730112077775       -0.54071443535754
C           -1.21707138003466       -1.51680424824104       -0.69281516260257
C            1.04798097281695       -1.68009497418138       -2.28610261929566
H            0.69008550679090        0.11194558843645        0.97476313818267
H            0.62808258536074        0.68601050669494       -0.71049817635545
H            2.13283496627230        0.00793570167916       -0.04009860397287
H           -1.45533514393997       -0.65825887201629       -1.31318887481478
H           -1.63215478708378       -2.42132351321943       -1.12923633518263
H           -1.63215355194535       -1.38641823637787        0.30298555666194
H            0.62807936494169       -0.80845633693653       -2.77870994155459
H            2.13283240536778       -1.65783903727464       -2.34538787763997
H            0.69008241089539       -2.58873764171039       -2.76274693962200
