43
 energy: -68.966729240092 gnorm: 0.068008320945 xtb: 6.7.1 (edcfbbe)
C           -0.81511000000000       -0.18294000000000        0.25589000000000
C           -0.42648000000000       -1.43418000000000       -0.49893000000000
C            0.62749000000000       -2.35149000000000        0.07527000000000
N            0.59875000000000       -3.69665000000000       -0.05640000000000
O           -0.35514000000000       -4.30226000000000       -0.90637000000000
C           -0.34476000000000       -5.73475000000000       -0.93960000000000
C            0.81344000000000       -6.33912000000000       -1.70022000000000
C            1.14226000000000       -7.68631000000000       -1.47771000000000
C            2.19963000000000       -8.28338000000000       -2.16521000000000
C            2.93550000000000       -7.54542000000000       -3.08850000000000
C            2.60713000000000       -6.21426000000000       -3.33494000000000
C            1.54577000000000       -5.61543000000000       -2.65301000000000
C            1.61025000000000       -4.29649000000000        0.65342000000000
C            2.33782000000000       -3.27644000000000        1.19258000000000
N            1.76133000000000       -2.07729000000000        0.77200000000000
C            2.32086000000000       -0.75140000000000        1.06395000000000
C            3.73421000000000       -0.63746000000000        0.54290000000000
C            4.80372000000000       -0.57536000000000        1.45593000000000
C            6.11943000000000       -0.43955000000000        1.00504000000000
C            6.38147000000000       -0.36379000000000       -0.36006000000000
C            5.34077000000000       -0.42354000000000       -1.28066000000000
C            4.02506000000000       -0.55808000000000       -0.83102000000000
Cl           2.78081000000000       -0.60699000000000       -2.02666000000000
Cl           7.99972000000000       -0.19000000000000       -0.91125000000000
H           -0.81891000000000       -0.34943000000000        1.33672000000000
H           -1.81352000000000        0.14678000000000       -0.04984000000000
H           -0.13728000000000        0.64426000000000        0.02976000000000
H           -1.31968000000000       -2.06447000000000       -0.56988000000000
H           -0.10146000000000       -1.20635000000000       -1.51706000000000
H           -0.39784000000000       -6.11824000000000        0.08588000000000
H           -1.26922000000000       -6.03895000000000       -1.44351000000000
H            0.57208000000000       -8.28978000000000       -0.77309000000000
H            2.44374000000000       -9.32920000000000       -1.99043000000000
H            3.75538000000000       -8.01370000000000       -3.62893000000000
H            3.17321000000000       -5.64726000000000       -4.07092000000000
H            1.30283000000000       -4.58003000000000       -2.88137000000000
H            1.72545000000000       -5.36322000000000        0.69007000000000
H            3.22430000000000       -3.25227000000000        1.80281000000000
H            1.72407000000000        0.04495000000000        0.62766000000000
H            2.28572000000000       -0.61579000000000        2.15175000000000
H            4.62795000000000       -0.61710000000000        2.53044000000000
H            6.93665000000000       -0.38309000000000        1.72208000000000
H            5.55511000000000       -0.35630000000000       -2.34510000000000
43
 energy: -68.975384675855 gnorm: 0.029394293740 xtb: 6.7.1 (edcfbbe)
C           -0.78769331965003       -0.19938965195445        0.25413479584456
C           -0.41738297823918       -1.45957674446304       -0.52030755108885
C            0.63768191658371       -2.35181667561733        0.05603148349501
N            0.59167512510024       -3.69126388413266       -0.06454235914721
O           -0.35705226799780       -4.29854024723751       -0.88191589569667
C           -0.32829239406043       -5.72608122456104       -0.92836471305932
C            0.82987124272116       -6.33542185396917       -1.69097388800886
C            1.15015052875781       -7.67443460943905       -1.47336224166017
C            2.19075043709948       -8.27207698521467       -2.16686028204494
C            2.92338687304721       -7.53923610039211       -3.08706945654164
C            2.59782643917146       -6.21388656302493       -3.32558896053273
C            1.55323691478864       -5.61502580037325       -2.63583632123075
C            1.61754904218827       -4.27499180283840        0.62189388683596
C            2.33766524917809       -3.25482454674088        1.15586700880043
N            1.74504186183091       -2.07165766200943        0.77217499138429
C            2.32064117703994       -0.76246230368974        1.06803738928054
C            3.73885045475320       -0.64784473119651        0.55618663943990
C            4.80633040856642       -0.58081988060826        1.45135375791426
C            6.11155609172653       -0.44039274224264        1.00863780701367
C            6.37195155034298       -0.36560177070844       -0.35333323668277
C            5.32846249151041       -0.42804277689899       -1.26667964068885
C            4.02456902424275       -0.56701241797385       -0.80893198521252
Cl           2.76047210294633       -0.62567192166421       -1.98299286039005
Cl           7.98679829801373       -0.19084691603935       -0.91210496530544
H           -0.80923600456669       -0.36794518537407        1.32936271598651
H           -1.78521700038199        0.11646262136070       -0.04809087375727
H           -0.12423284618112        0.63769270985320        0.04052737288966
H           -1.30681087989601       -2.09152294075574       -0.60702189848804
H           -0.10608772751032       -1.20130698534902       -1.53615449330935
H           -0.39132643028942       -6.12901193770932        0.09012154582434
H           -1.26440365582656       -5.98491831763965       -1.43774806574603
H            0.57976832722228       -8.26461306009322       -0.76722977068907
H            2.43211951710827       -9.31080527192074       -1.98822218012855
H            3.74079686442775       -8.00304777726377       -3.62215647619084
H            3.15641464514913       -5.64634832558868       -4.05710862535781
H            1.29961620996298       -4.58599337352632       -2.85667720809617
H            1.74548774496023       -5.33751847263060        0.67003956302408
H            3.21807331462165       -3.24443895738919        1.76746503004241
H            1.70845890208353        0.01150601558057        0.60873210179137
H            2.30367792652635       -0.61720078974039        2.15337394688750
H            4.62300436913319       -0.62112031277138        2.51606112926641
H            6.92392881457859       -0.38418335289095        1.71888057285823
H            5.53443163921630       -0.36053647316148       -2.32612778952520
43
 energy: -68.977856225285 gnorm: 0.009519479198 xtb: 6.7.1 (edcfbbe)
C           -0.77549353143380       -0.22220077403307        0.24878798072173
C           -0.40152313178261       -1.47777059796184       -0.54406220221502
C            0.65454224735728       -2.35183318057056        0.03309225282534
N            0.60009746729195       -3.68759276622620       -0.08485813893752
O           -0.35282386578210       -4.29270449760346       -0.86236280575452
C           -0.32263035333600       -5.71652239775278       -0.91587983331670
C            0.83606368888324       -6.32546367565135       -1.67744317869463
C            1.15415215521182       -7.65982781497683       -1.45688083010504
C            2.18519283116382       -8.25784757544694       -2.15720414963117
C            2.91333417286661       -7.52731677608850       -3.08078798924067
C            2.59060422095340       -6.20275296071172       -3.31356198497365
C            1.55335539679927       -5.60378822057078       -2.61918315529119
C            1.63352680797620       -4.26149599974335        0.58808768500113
C            2.34443404790592       -3.23793107469345        1.12488398871967
N            1.74027553982912       -2.06750204353281        0.76634109242340
C            2.31719942933929       -0.76894112502468        1.07243534496067
C            3.73748877345401       -0.65726982545625        0.57016170560167
C            4.80466533600788       -0.58720822075967        1.45629701163231
C            6.10462891078790       -0.44429735215942        1.01506453870343
C            6.36097192045320       -0.36940183514134       -0.34782082007185
C            5.31395850039255       -0.43625462261494       -1.25727057394441
C            4.01863296728532       -0.58000309022611       -0.79162009800883
Cl           2.73502125976848       -0.65574418106557       -1.94536841186680
Cl           7.97141315507544       -0.19018903178448       -0.91545837417151
H           -0.79681738975433       -0.40730744337521        1.31918995438246
H           -1.77261300850614        0.08921780401673       -0.05113952189968
H           -0.11299252751320        0.61343262852305        0.04295612974980
H           -1.28737068646002       -2.11031353172901       -0.64663143411299
H           -0.10266053029151       -1.18739801869795       -1.55672642925396
H           -0.39214000841490       -6.13713570707746        0.09588045421043
H           -1.26311053421601       -5.93853656997225       -1.43601976743134
H            0.58423371428713       -8.23896320889747       -0.74572644882426
H            2.41847971429248       -9.29604338067254       -1.98379076829036
H            3.72121194149799       -7.99222105793507       -3.62281754661815
H            3.14209118017778       -5.63453616872399       -4.04553359873506
H            1.29687567627431       -4.57478215801433       -2.82550025010868
H            1.78192236693193       -5.32017545246890        0.63782770179124
H            3.22593679583194       -3.24365956025471        1.73139698067641
H            1.70209283006361       -0.00658111579510        0.59707332137628
H            2.30614242076082       -0.62210093137579        2.15568008965864
H            4.61509704303994       -0.62948373576122        2.51688982295583
H            6.91646018869952       -0.38483891807121        1.71960948223301
H            5.51258286683038       -0.36848383392147       -2.31452722612537
43
 energy: -68.978499670922 gnorm: 0.006133064545 xtb: 6.7.1 (edcfbbe)
C           -0.77513230740877       -0.23974537984771        0.24305531656474
C           -0.39057502531498       -1.48493268189531       -0.56360644441084
C            0.66611739468891       -2.35197561389998        0.01773227879239
N            0.61442855052791       -3.68668267814363       -0.10442715656840
O           -0.35328453905396       -4.28765461089756       -0.85450410402983
C           -0.32846548174697       -5.71050148001106       -0.90872788806976
C            0.83442596749829       -6.31547973975593       -1.66397515795383
C            1.15478087236989       -7.64889208261191       -1.44030105477733
C            2.18095441484362       -8.24713714759371       -2.14788578146863
C            2.90347504792588       -7.51621500594632       -3.07650143723034
C            2.58445874950442       -6.18933699437063       -3.30378047398378
C            1.55032747793845       -5.59011061159374       -2.60466187273346
C            1.65224841268049       -4.25910480563310        0.56149395765153
C            2.35773995263336       -3.23341669089941        1.10453588697418
N            1.74459707768020       -2.06643143162887        0.75911458424372
C            2.31347856280547       -0.76928549570608        1.07711783293011
C            3.73387669056862       -0.65923602742052        0.57995781997377
C            4.80199321993458       -0.58950849481169        1.46512581680518
C            6.10108092922616       -0.44710260597394        1.02021423516513
C            6.35340411619649       -0.37312678022943       -0.34418178931986
C            5.30491349185773       -0.44529553353084       -1.25269925227933
C            4.01246313776866       -0.58971234221498       -0.78300820117786
Cl           2.72173133806283       -0.68030751326725       -1.92928586638470
Cl           7.96083561647273       -0.19030624696302       -0.91732444324945
H           -0.79472581321582       -0.44185596017365        1.31058403689065
H           -1.77260340101108        0.06967516124926       -0.05538905565148
H           -0.11348218556248        0.59867652067400        0.04753718126531
H           -1.27105053263951       -2.12265708653313       -0.67983591143602
H           -0.09015924362891       -1.17852870215502       -1.57112883447525
H           -0.40203580505728       -6.13505768876494        0.10068945650233
H           -1.26588503327666       -5.92276256737738       -1.43558514756007
H            0.58836486257937       -8.22328067577063       -0.72261716170343
H            2.41483366217716       -9.28531029060437       -1.97493408444662
H            3.70692512768453       -7.98193429371953       -3.62419650361822
H            3.13394612619511       -5.61942425961757       -4.03610246366675
H            1.29169771866771       -4.56047819641771       -2.80546222917872
H            1.81620866338636       -5.31559278933312        0.60401450780930
H            3.24351203747208       -3.24824036293085        1.70468422289560
H            1.70263686494357       -0.00576390828477        0.59991235491719
H            2.29748954401973       -0.62814037467181        2.16036415497386
H            4.61122949927521       -0.63266273256133        2.52611445064720
H            6.91540776354450       -0.38642904830067        1.72187228903048
H            5.50032647678628       -0.38050474986016       -2.31051806865854
43
 energy: -68.978904602680 gnorm: 0.004043232452 xtb: 6.7.1 (edcfbbe)
C           -0.78291974599803       -0.26030361793642        0.23730233289964
C           -0.37939593036236       -1.48943551277913       -0.58398399123387
C            0.67666726479975       -2.35311546307065        0.00326457059782
N            0.63206135555570       -3.68700192592206       -0.12807016422253
O           -0.35832036900815       -4.28200377758578       -0.84902078768221
C           -0.33979617127227       -5.70468299176887       -0.90168496154490
C            0.82706816947522       -6.30539789895418       -1.65039140773546
C            1.15493072618346       -7.63671408263190       -1.42109939580235
C            2.17997121174483       -8.23250902468775       -2.13309554046256
C            2.89439468979658       -7.49987709473271       -3.06741802375439
C            2.57611150522827       -6.17165987589856       -3.29116976455210
C            1.54134522987889       -5.57514071627494       -2.59031379434160
C            1.67466953339895       -4.26021519502242        0.52969365288340
C            2.37645705092759       -3.23339904446196        1.07918881303755
N            1.75360873786758       -2.06775445027640        0.74706133322606
C            2.31083791538262       -0.76994552216953        1.08146128195482
C            3.73132578425243       -0.65732236171494        0.58979462840355
C            4.79978593383695       -0.58732152353453        1.47575250221920
C            6.09890105068991       -0.44865563011026        1.02613814012799
C            6.34792097999581       -0.37849225693959       -0.33930725403385
C            5.29918189692208       -0.45771590292528       -1.24777664269260
C            4.00827143073431       -0.59996044405583       -0.77520555922124
Cl           2.71585933313509       -0.70557342814126       -1.91913474734422
Cl           7.95273106497764       -0.19277290445707       -0.91685315976299
H           -0.80313265312771       -0.48252912237104        1.30127500188524
H           -1.78103391598883        0.04560848961866       -0.06132734309604
H           -0.12467874507470        0.58492564235628        0.05789173155675
H           -1.25201265924000       -2.13470634075665       -0.72010661839653
H           -0.06808514538834       -1.16798601668974       -1.58284368605466
H           -0.41775520905571       -6.12754293805931        0.10761085853656
H           -1.27239597290848       -5.91482735348801       -1.43405666094422
H            0.59432970284790       -8.20815799511528       -0.69592359374132
H            2.41687035153697       -9.27072808405343       -1.96110485917659
H            3.69172936465457       -7.96652984169349       -3.62424189664111
H            3.12461440229150       -5.59892317547412       -4.02289980030539
H            1.28130618672823       -4.54448021104955       -2.78626215782208
H            1.85574427181842       -5.31440359341346        0.55894324811909
H            3.26847854213667       -3.25604870837472        1.67038130456433
H            1.70388409698636       -0.00158297771877        0.60852376679409
H            2.28510660917140       -0.63960894004322        2.16600853295403
H            4.60892815630172       -0.62900082565852        2.53773015317422
H            6.91612325878704       -0.38774841116146        1.72556285283652
H            5.49282070937988       -0.40052895080229       -2.30681289520578
43
 energy: -68.979058089868 gnorm: 0.003110279665 xtb: 6.7.1 (edcfbbe)
C           -0.79312977173691       -0.27246865459771        0.23754387558965
C           -0.37476131304089       -1.48947407996404       -0.59250296682074
C            0.67922375214739       -2.35453215422891       -0.00229594129227
N            0.63797117075848       -3.68806804190265       -0.13936249262843
O           -0.36434218493039       -4.27987535992881       -0.84765644948656
C           -0.34819661985005       -5.70273999149407       -0.89834345837182
C            0.82078653643922       -6.30132227628612       -1.64383648356400
C            1.15562327126421       -7.63042041676693       -1.41092863215344
C            2.18213269371956       -8.22314985029142       -2.12362568506857
C            2.89122901462186       -7.48887075253141       -3.06069220350548
C            2.57000620469902       -6.16125910964362       -3.28430821666662
C            1.53306109708022       -5.56828758812876       -2.58377503403066
C            1.68409551241823       -4.26241351336472        0.51195245448469
C            2.38724416477216       -3.23609415145252        1.06150234796035
N            1.76001101793707       -2.07028880493591        0.73662460984571
C            2.31118452145145       -0.77198329765057        1.08070022229032
C            3.73231160180271       -0.65532629273810        0.59255057285627
C            4.79956962325831       -0.58285496156148        1.48001883655038
C            6.09939288266950       -0.44704379120954        1.02985830469614
C            6.34932144018586       -0.38196878519825       -0.33537861597229
C            5.30186554552450       -0.46577874529821       -1.24490289061866
C            4.01046764193371       -0.60533014209213       -0.77293671059923
Cl           2.72179744620906       -0.71618216147640       -1.92001196180704
Cl           7.95400447452165       -0.19685505410885       -0.91272566105679
H           -0.81775151004885       -0.50636809621971        1.29891758719271
H           -1.79151249641335        0.02993249024760       -0.06381620796183
H           -0.13906030580241        0.57916120338775        0.07157727901043
H           -1.24220245623779       -2.13835057444280       -0.74453394953385
H           -0.05142788701166       -1.15854669562329       -1.58426461909389
H           -0.42819153104808       -6.12189904238439        0.11236474146119
H           -1.27885487662986       -5.91538683768557       -1.43245560701141
H            0.59919858690090       -8.20192430265192       -0.68235665905870
H            2.42502306474021       -9.25978310287037       -1.94920205594044
H            3.68842586243060       -7.95370177739147       -3.61938093304414
H            3.11780405982041       -5.58639729988636       -4.01520818582027
H            1.26955988144158       -4.53855753960128       -2.78085523818150
H            1.87259246324081       -5.31538048584943        0.53200920330146
H            3.28340631684126       -3.26077114844361        1.64644269584897
H            1.70369720305842       -0.00056899989064        0.61289243075504
H            2.27960579277746       -0.64944217480004        2.16647383812766
H            4.60813072773650       -0.62042379837056        2.54222613741998
H            6.91675948976676       -0.38554926011348        1.72953256624443
H            5.49643789058082       -0.41522458055953       -2.30435084434642
43
 energy: -68.979237203725 gnorm: 0.003367728619 xtb: 6.7.1 (edcfbbe)
C           -0.81139685012902       -0.28864435942124        0.24279657181547
C           -0.37009950409068       -1.48706385481079       -0.60066654501932
C            0.67929260987319       -2.35660193925001       -0.00738031823584
N            0.63911582393228       -3.68979460480001       -0.14961351433811
O           -0.37415056677853       -4.27873619887957       -0.84666948603538
C           -0.35951249775001       -5.70188781658443       -0.89431027111156
C            0.81100643556550       -6.29832190571354       -1.63784858148280
C            1.15717603485749       -7.62344250159595       -1.39950041395406
C            2.18875945046963       -8.21019441859473       -2.10993971439023
C            2.89146260702460       -7.47319456195112       -3.04940087661363
C            2.56110998206886       -6.14848921423090       -3.27681541140687
C            1.51872084896466       -5.56220195467662       -2.57913082632058
C            1.69138888759346       -4.26568393311648        0.49045636997772
C            2.39992592395046       -3.24079111121546        1.03581487393110
N            1.76834155280185       -2.07430277027448        0.72049897817513
C            2.31345220838480       -0.77600478069685        1.07586623780355
C            3.73593565158182       -0.65304315003209        0.59274743798195
C            4.80020989835846       -0.57393883895648        1.48314819896977
C            6.10162671395519       -0.44183946927385        1.03528165904204
C            6.35593198822553       -0.38710816086601       -0.32920918466902
C            5.31134414820607       -0.47705804329258       -1.24122438796759
C            4.01802085303188       -0.61212110905129       -0.77238730786227
Cl           2.73664744571654       -0.72779843004211       -1.92597930305204
Cl           7.96218087249236       -0.20682181943375       -0.90338701912304
H           -0.84686796401964       -0.53939687435104        1.30007483251970
H           -1.80940977375336        0.00842392355703       -0.06568614285180
H           -0.16424242460447        0.57310792148444        0.09983798423831
H           -1.23028137190525       -2.13914744110763       -0.77929297644317
H           -0.02674488898665       -1.13965662267404       -1.58060238643054
H           -0.44034211351186       -6.11598498262936        0.11873188876087
H           -1.28942485956650       -5.91898710724804       -1.42849690469077
H            0.60618709807981       -8.19658673660235       -0.66802101255654
H            2.44099515596995       -9.24404587459896       -1.93169029571550
H            3.69117865150919       -7.93385582044868       -3.60786682695915
H            3.10657648166289       -5.57085236157740       -4.00731500704297
H            1.24858856405934       -4.53477021951930       -2.77990606987254
H            1.88562243960987       -5.31748050886185        0.49949658888692
H            3.30198938039906       -3.26587403458985        1.61161372865035
H            1.70314673808564       -0.00176986722447        0.61479309998597
H            2.27614206579409       -0.66300330132664        2.16309041629098
H            4.60675137648585       -0.60354517672264        2.54517941117254
H            6.91714056329386       -0.37716066072903        1.73705940851240
H            5.50901436309130       -0.43609930807024       -2.30066690256899
43
 energy: -68.979441396869 gnorm: 0.004565170043 xtb: 6.7.1 (edcfbbe)
C           -0.83665355995078       -0.30849601559281        0.25414441374733
C           -0.36502308401301       -1.48192349976444       -0.60821937642741
C            0.67720527374757       -2.35878167661472       -0.01224583154168
N            0.63427791795277       -3.69167247194311       -0.15677040722539
O           -0.38665494280782       -4.27925914918656       -0.84515498392519
C           -0.37241324332607       -5.70266335033956       -0.88953854307084
C            0.79899180341205       -6.29663096981778       -1.63316452307749
C            1.15967448913870       -7.61639022007105       -1.38812110542539
C            2.19932640580059       -8.19472764558097       -2.09397274990522
C            2.89541086246883       -7.45416333078082       -3.03523657224924
C            2.54981560181051       -6.13458301395919       -3.27041738858865
C            1.49929908344115       -5.55748444890732       -2.57762528063053
C            1.69507580774128       -4.26919455787463        0.46772193894148
C            2.41249253852029       -3.24625425450976        1.00475400729895
N            1.77738239492357       -2.07881252360999        0.70024591977989
C            2.31746997497766       -0.78125985690321        1.06614174616894
C            3.74193461774212       -0.65149825251159        0.58956794128700
C            4.80136984813252       -0.56114067948705        1.48450754049642
C            6.10518380218637       -0.43261468080990        1.04231648376435
C            6.36747263614990       -0.39347817894293       -0.32108723837817
C            5.32741620378447       -0.49110225415727       -1.23721448708912
C            4.03097002662843       -0.62088971408657       -0.77422693184115
Cl           2.75859484866950       -0.74228737075852       -1.93609476445566
Cl           7.97725535379333       -0.22324218692726       -0.88879636649587
H           -0.88965232097554       -0.58275169169024        1.30533439806930
H           -1.83273657904604       -0.01677542109161       -0.06641923257398
H           -0.19767443126302        0.56524708159859        0.14463022366001
H           -1.21587746717357       -2.13573704152049       -0.82437256746716
H            0.00425653328733       -1.10897373895637       -1.57085288687502
H           -0.45144821546538       -6.11242659561264        0.12578727964291
H           -1.30337116553314       -5.92429485271045       -1.42131180790989
H            0.61478201599954       -8.19253233948369       -0.65447103405024
H            2.46433170194243       -9.22433122013314       -1.90957008042843
H            3.70231367213230       -7.90769205194048       -3.58899172030168
H            3.09060066116265       -5.55389142069838       -4.00178179891957
H            1.21813805033407       -4.53422641805723       -2.78517754862961
H            1.89122056555713       -5.32034421368929        0.46717097243541
H            3.32193513145650       -3.27038040640697        1.56892678824369
H            1.70345547540721       -0.00550841476488        0.61060741985462
H            2.27560858698923       -0.67688664112550        2.15444669597475
H            4.60376007406916       -0.57958401895280        2.54588057934329
H            6.91659015914155       -0.36080114129762        1.74817885076486
H            5.53040289105301       -0.46132915033041       -2.29604797198999
43
 energy: -68.979684234666 gnorm: 0.005585108306 xtb: 6.7.1 (edcfbbe)
C           -0.86688211312895       -0.33188143614854        0.27250572117895
C           -0.36005730186102       -1.47400018650589       -0.61422968448238
C            0.67318742832347       -2.36067508674822       -0.01748156184304
N            0.62360227475131       -3.69336083940595       -0.16005362888546
O           -0.40126618478080       -4.28177503433645       -0.84228461858329
C           -0.38572883153119       -5.70535718320397       -0.88440489928270
C            0.78562044992697       -6.29629368361466       -1.63103301125644
C            1.16364321332597       -7.60932798887470       -1.37762741070353
C            2.21433765318931       -8.17695517115529       -2.07622413448952
C            2.90373653442639       -7.43237077142638       -3.01898010541696
C            2.53657468237165       -6.12057084821431       -3.26684046802082
C            1.47544740535626       -5.55474750227028       -2.58119581927222
C            1.69391132175664       -4.27238289110598        0.44663669254565
C            2.42268681125186       -3.25147375387039        0.97163790839834
N            1.78583463691372       -2.08301545728229        0.67697378916786
C            2.32268456176442       -0.78662602817058        1.04983633015577
C            3.74990321424031       -0.65154767511966        0.58183055735293
C            4.80221382143076       -0.54547998402662        1.48351027158534
C            6.10928045794603       -0.41953436406666        1.05090445597592
C            6.38342288106441       -0.40030137895271       -0.31089783679096
C            5.35015976929608       -0.50762118174340       -1.23339106464762
C            4.04956446626650       -0.63262411857067       -0.77956346366371
Cl           2.78728729880631       -0.76275359225634       -1.95102439661978
Cl           7.99874980424380       -0.24356465789451       -0.86786103169057
H           -0.94217370774482       -0.63704646800262        1.31463987589587
H           -1.85882030300553       -0.04305703130018       -0.06368080359948
H           -0.23601559361795        0.55299736161001        0.20603239871368
H           -1.19935362968673       -2.12671884561437       -0.87593209605529
H            0.03681645845908       -1.06672219564775       -1.55370159524836
H           -0.45954615604225       -6.11306686450369        0.13240652878920
H           -1.31950149069450       -5.93041815999465       -1.41103897054684
H            0.62539769035838       -8.18937228385708       -0.64221940446691