43
 energy: -67.741855677758 gnorm: 0.073384396354 xtb: 6.7.1 (edcfbbe)
C            1.85026000000000        0.20763000000000        0.45676000000000
C            0.88674000000000        1.38108000000000        0.36564000000000
C            1.16578000000000        2.29013000000000       -0.83242000000000
C            0.66459000000000        1.74712000000000       -2.17323000000000
N           -0.80849000000000        1.62828000000000       -2.22870000000000
C           -1.49878000000000        0.46356000000000       -2.20575000000000
C           -0.89300000000000       -0.90290000000000       -2.13757000000000
N           -2.81674000000000        0.77204000000000       -2.25991000000000
C           -2.97371000000000        2.15770000000000       -2.33378000000000
C           -1.68916000000000        2.70298000000000       -2.32448000000000
C           -1.46519000000000        4.07653000000000       -2.38343000000000
C           -2.60564000000000        4.89181000000000       -2.42773000000000
Cl          -2.33714000000000        6.59960000000000       -2.46544000000000
C           -3.90620000000000        4.34090000000000       -2.43243000000000
C           -4.11568000000000        2.95385000000000       -2.39368000000000
Cl          -5.31869000000000        5.33736000000000       -2.47957000000000
C           -3.93996000000000       -0.18385000000000       -2.16657000000000
C           -4.47270000000000       -0.61584000000000       -3.53311000000000
C           -3.65026000000000       -1.70618000000000       -4.21794000000000
C           -3.51563000000000       -2.97392000000000       -3.41637000000000
O           -2.53189000000000       -3.69358000000000       -3.40687000000000
O           -4.59311000000000       -3.26252000000000       -2.67010000000000
H            1.85548000000000       -0.39264000000000       -0.45614000000000
H            1.56924000000000       -0.44440000000000        1.28999000000000
H            2.87174000000000        0.55882000000000        0.63407000000000
H           -0.14626000000000        1.01837000000000        0.34369000000000
H            0.98790000000000        1.97280000000000        1.28355000000000
H            0.69425000000000        3.25927000000000       -0.63683000000000
H            2.24330000000000        2.48081000000000       -0.90526000000000
H            0.96496000000000        2.42803000000000       -2.97919000000000
H            1.12205000000000        0.78123000000000       -2.40376000000000
H           -0.46968000000000       -1.11313000000000       -3.12052000000000
H           -0.12742000000000       -0.89086000000000       -1.36646000000000
H           -1.65447000000000       -1.62735000000000       -1.86801000000000
H           -0.46454000000000        4.49079000000000       -2.38086000000000
H           -5.11008000000000        2.52493000000000       -2.40099000000000
H           -3.65016000000000       -1.02621000000000       -1.53454000000000
H           -4.74701000000000        0.31835000000000       -1.61909000000000
H           -5.49996000000000       -0.97831000000000       -3.40408000000000
H           -4.53034000000000        0.25131000000000       -4.20146000000000
H           -4.11139000000000       -1.97175000000000       -5.17552000000000
H           -2.64460000000000       -1.32828000000000       -4.42898000000000
H           -4.40827000000000       -4.14693000000000       -2.27995000000000
43
 energy: -67.748847496524 gnorm: 0.029538177537 xtb: 6.7.1 (edcfbbe)
C            1.84960093735541        0.20330713146185        0.45270367461412
C            0.88382213610962        1.37825614232492        0.36301323192748
C            1.14625806878508        2.29644917110967       -0.83230014024419
C            0.65773911968479        1.75168804164761       -2.17692793820608
N           -0.79885867911886        1.62395951408657       -2.22924228925320
C           -1.50448839432798        0.47857002119763       -2.19494540529014
C           -0.90151136303078       -0.87581200138925       -2.12952845259129
N           -2.81972982225765        0.76542707243966       -2.25143571550991
C           -2.96954749992064        2.14209935351653       -2.32747486527517
C           -1.67889226793043        2.68914108509210       -2.31629582684862
C           -1.46823811215236        4.06055872803701       -2.37627465598321
C           -2.59876373523148        4.86884887524323       -2.42695393252563
Cl          -2.37451061449040        6.57690221603251       -2.47389428227603
C           -3.89440284025784        4.31990082304046       -2.43162467157021
C           -4.10089538068049        2.94506775594148       -2.39068658078625
Cl          -5.27696701159226        5.34733807601918       -2.48509542375376
C           -3.94050903978182       -0.17110408021346       -2.16712078570547
C           -4.47618314951066       -0.61253614087164       -3.52982194512595
C           -3.63635715649032       -1.69330128149634       -4.21065116740532
C           -3.50747174320313       -2.96730878637734       -3.41417216551519
O           -2.52771106939085       -3.66759877164288       -3.40547655591188
O           -4.58913220737760       -3.26510063645641       -2.68342712216296
H            1.85835778061316       -0.39496230682137       -0.45734372112327
H            1.57744995082426       -0.44623620122955        1.28314411671669
H            2.86382506087408        0.55818754119843        0.62635745341821
H           -0.14909205259266        1.01981023263362        0.33550453589980
H            0.98542653693994        1.97153090247584        1.27492788743473
H            0.67574121850380        3.26480892541922       -0.64664702521042
H            2.22192480502119        2.47028928855559       -0.91522676848003
H            0.95412547894890        2.43546594774709       -2.97875249394820
H            1.10211779303669        0.77881642743467       -2.39004791175880
H           -0.46456233084870       -1.12539783994766       -3.09553547421101
H           -0.12279916722099       -0.89719509248844       -1.37142532853702
H           -1.64521259661479       -1.62414847773486       -1.88090344597978
H           -0.47957943759200        4.48899105128432       -2.38254267227114
H           -5.09717757773750        2.53447811345942       -2.40317548533631
H           -3.63959620679925       -1.02724167967449       -1.56087438354983
H           -4.73727393546904        0.34077104762052       -1.61936435750539
H           -5.49302569474842       -0.98668979227067       -3.38784735990777
H           -4.53424114600128        0.25560503640969       -4.19102610489124
H           -4.10524079227279       -1.96541304128358       -5.16013041147743
H           -2.63246247270324       -1.32942027953728       -4.43968988369624
H           -4.43181538935062       -4.14017211199350       -2.27878815018678
43
 energy: -67.750509345063 gnorm: 0.010115071599 xtb: 6.7.1 (edcfbbe)
C            1.84812306297458        0.20542413677563        0.44144541304909
C            0.87403953059556        1.37564766742937        0.35876556801900
C            1.13541267105319        2.29962822950059       -0.83303499378289
C            0.65065253141585        1.74977332180759       -2.17868712729224
N           -0.79246279733915        1.61478760191644       -2.23157472766999
C           -1.50523060661185        0.48109223550397       -2.18875174631471
C           -0.90509385321081       -0.86424768593954       -2.11956645576801
N           -2.81775163847961        0.75562987913650       -2.24212023717929
C           -2.96492531187701        2.12659650638190       -2.32249254805800
C           -1.67070780662816        2.67519897619202       -2.31289932387127
C           -1.46869141124774        4.04678226460997       -2.37578039349634
C           -2.59199929961353        4.85315045146050       -2.42897144911032
Cl          -2.39770307283954        6.55903335137131       -2.48671068772657
C           -3.88889190901163        4.30332601337966       -2.43219684873807
C           -4.09074323127427        2.93496388608208       -2.38765822983145
Cl          -5.24961599464931        5.34989862004477       -2.49417506950692
C           -3.93637437373923       -0.16419028749628       -2.15893102740654
C           -4.47568191005142       -0.60169125656405       -3.52452684079764
C           -3.62796706358995       -1.67581274690857       -4.20428882506440
C           -3.49356893060986       -2.95444608262885       -3.40896118203435
O           -2.50539182795322       -3.63496291077730       -3.39390829695982
O           -4.58888680594772       -3.26436697762272       -2.70671459795678
H            1.85746010616718       -0.39151210992562       -0.46786508297059
H            1.58160589052468       -0.44323664851139        1.27082271476704
H            2.85794202685621        0.56727986931595        0.61179416523678
H           -0.15719042390384        1.01318906188764        0.32913564068756
H            0.97652460456048        1.96651538360961        1.26927975577046
H            0.65614907905699        3.26159306736382       -0.65040420718923
H            2.20872802563561        2.47327417044392       -0.91948546536237
H            0.94402023070288        2.43677462227375       -2.97612857281952
H            1.09632788964795        0.77699920020958       -2.38009005282450
H           -0.45463716516494       -1.13662069395337       -3.07554381853129
H           -0.12242137424586       -0.90273503372258       -1.36450811993050
H           -1.64130530827713       -1.62624339645634       -1.88648523519650
H           -0.48696503305056        4.48659065621463       -2.38516232831493
H           -5.09014122209853        2.53667624139287       -2.40364896271353
H           -3.63582799189465       -1.03431372261472       -1.57294559620344
H           -4.72573109433584        0.35398959731156       -1.61106780195977
H           -5.48077174192908       -0.99453963642875       -3.37178467294165
H           -4.54531395472323        0.26620006928433       -4.18212275268472
H           -4.10284492303758       -1.95435854766999       -5.14858425499003
H           -2.62687064958441       -1.31687282355055       -4.44324696330817
H           -4.46513692227123       -4.13323452012901       -2.28723876102379
43
 energy: -67.750924482001 gnorm: 0.007123134184 xtb: 6.7.1 (edcfbbe)
C            1.84736876058543        0.20706634479123        0.43272567591762
C            0.86815920928524        1.37384262568133        0.35504247906801
C            1.12695717062060        2.30236617439866       -0.83378388269294
C            0.64926568325074        1.74738041271853       -2.18134482178462
N           -0.78999457050472        1.60817156307172       -2.23328556238529
C           -1.50217659498736        0.47514710505600       -2.18389253132671
C           -0.90228791296035       -0.86883209926842       -2.11009900020266
N           -2.81425129382859        0.74907920132957       -2.23405166416172
C           -2.96202400305166        2.11920887107006       -2.31890570530075
C           -1.66774680294659        2.66831501567093       -2.31352185989330
C           -1.46721010029345        4.04026544210114       -2.38050126282310
C           -2.58887721960304        4.84744605970280       -2.43518607706402
Cl          -2.39975622665411        6.55062564900000       -2.49924726066194
C           -3.88853993606407        4.29601228555583       -2.43608926433102
C           -4.08774428862173        2.92816994343813       -2.38577742575767
Cl          -5.24438118951181        5.34354235677417       -2.50249477373220
C           -3.93397272232161       -0.16417314307977       -2.14986981328599
C           -4.47805836116134       -0.59618989461291       -3.51709897075727
C           -3.62418898041812       -1.66101269918066       -4.20288252618929
C           -3.48537506920608       -2.94235757956890       -3.40897919319784
O           -2.48332557127615       -3.60348386829456       -3.37392632589782
O           -4.59308159798603       -3.26342374245749       -2.73248816446313
H            1.85647044585428       -0.38750877931990       -0.47816876354564
H            1.58689988623251       -0.44482015545545        1.26165729151250
H            2.85565416118274        0.57486909562799        0.59952136861683
H           -0.16126817892231        1.00690500379125        0.32276136277726
H            0.96760552983202        1.96113238714862        1.26793988951984
H            0.63932082741449        3.26014799063113       -0.65211814519891
H            2.19876636481208        2.48227982196145       -0.91723734327698
H            0.94213099257127        2.43519040552122       -2.97798263946691
H            1.10201481681039        0.77685736132303       -2.37746003509011
H           -0.44415904436412       -1.14310219239750       -3.06263109386019
H           -0.12410318094109       -0.90797510477353       -1.35055784172674
H           -1.63934043445302       -1.63216495390411       -1.88372617534241
H           -0.48642545870992        4.48307294329998       -2.39132898779328
H           -5.08836771699974        2.53198830824674       -2.40084416548667
H           -3.63832338519833       -1.04080314316168       -1.57171338249062
H           -4.72032355719080        0.35516514232628       -1.59964253262334
H           -5.47820339811828       -0.99890017738087       -3.36046545288812
H           -4.55674565672545        0.27447039802471       -4.16944891185427
H           -4.09922772193640       -1.94126544768354       -5.14655667275972
H           -2.62488006810582       -1.29771251398823       -4.44117396439319
H           -4.48611360538921       -4.12836241373440       -2.30218587370607
43
 energy: -67.751439145544 gnorm: 0.011689089987 xtb: 6.7.1 (edcfbbe)
C            1.84761603654928        0.21084109565352        0.41520523886310
C            0.85734920733501        1.36928090896105        0.34811622455157
C            1.11225834055570        2.30725440049548       -0.83362536622160
C            0.64934046221089        1.74366502667964       -2.18503516534132
N           -0.78619235891543        1.59610608856296       -2.23800343331029
C           -1.49506204830187        0.46111206299054       -2.17474753648376
C           -0.89355152461073       -0.88211256860467       -2.09047127534580
N           -2.80740932566459        0.73702081342431       -2.21735255069613
C           -2.95694700634926        2.10673250842055       -2.31299366288898
C           -1.66389462866054        2.65630840347622       -2.31907259266344
C           -1.46393953902967        4.02848889264364       -2.39590568404876
C           -2.58460015500639        4.83709318912166       -2.45209722992537
Cl          -2.39856281193335        6.53521256738702       -2.52887559499596
C           -3.88863815243091        4.28283300698355       -2.44598244927119
C           -4.08403802762845        2.91468475750493       -2.38264819711765
Cl          -5.24035486688942        5.32698663106237       -2.52061998902034
C           -3.93053068704773       -0.16720739564430       -2.12914733498899
C           -4.48456266290943       -0.58546588542258       -3.49921259241965
C           -3.61997836563310       -1.63055931607940       -4.20063465227361
C           -3.46988387963961       -2.91366113279019       -3.40593571701462
O           -2.44134932224156       -3.53497164139302       -3.32491752172350
O           -4.60552251002320       -3.26798327515092       -2.79363401748586
H            1.85606548753066       -0.37935485102364       -0.49893595661417
H            1.59927406498782       -0.44808890766685        1.24304397897538
H            2.85365394838699        0.58901250663292        0.57567562552258
H           -0.16871015175045        0.99327419571731        0.31038091840785
H            0.94925636938745        1.94913787284522        1.26682928499654
H            0.60530988924827        3.25571570011210       -0.65345854861631
H            2.18125332113417        2.50542398315852       -0.90788662148923
H            0.94236281163317        2.43143862243528       -2.98179149064236
H            1.11602055357441        0.77775874606009       -2.37324329637101
H           -0.41940011340268       -1.15349558630508       -3.03643643126187
H           -0.12858130933329       -0.91792500614743       -1.31762709386143
H           -1.63381266558777       -1.64576706444655       -1.87683157186621
H           -0.48327037625185        4.47366291505441       -2.41090570432434
H           -5.08576048528586        2.51882970561215       -2.39150651050339
H           -3.64272955715739       -1.05322313683473       -1.56220781194836
H           -4.71128717854285        0.35276456749925       -1.57151915721581
H           -5.47651184587284       -1.00572421740719       -3.33733380076339
H           -4.58190229807018        0.29261579456429       -4.13913262682411
H           -4.09442971833132       -1.91089772761916       -5.14442152319780
H           -2.62465904839623       -1.25369440027458       -4.43458877708832
H           -4.52354787163492       -4.12649285024748       -2.34753178549291
43
 energy: -67.751730131740 gnorm: 0.011381878460 xtb: 6.7.1 (edcfbbe)
C            1.84993208992145        0.21337771423750        0.40556338361600
C            0.85258154515180        1.36579361409201        0.34510962835098
C            1.10316994631572        2.31025389915191       -0.83190017309335
C            0.65134076929485        1.74247765394111       -2.18572912698303
N           -0.78386763200549        1.58982644865038       -2.24145003578602
C           -1.49016691898845        0.45291255397083       -2.16774149830658
C           -0.88612486889287       -0.88975745207357       -2.07608079786808
N           -2.80317708008023        0.73022185563806       -2.20522305357921
C           -2.95415765303807        2.09970430285595       -2.30970135738926
C           -1.66238412487739        2.64952887782676       -2.32544628545433
C           -1.46221160832619        4.02137805581082       -2.41090876795952
C           -2.58372832351016        4.82971264840308       -2.46780134398482
Cl          -2.39763969154290        6.52586651410066       -2.55483938640522
C           -3.88871453265742        4.27415125755942       -2.45471020349052
C           -4.08281346266556        2.90568889235206       -2.38084311003185
Cl          -5.24084784577768        5.31480136609827       -2.53427254230302
C           -3.92833854915545       -0.17130074916841       -2.11305871599519
C           -4.48938029362602       -0.57824517608191       -3.48396841604624
C           -3.62103279172770       -1.61048960165491       -4.19956359483673
C           -3.46625909696413       -2.89764403208866       -3.41075382122627
O           -2.42716436396659       -3.49604527467658       -3.30095152532763
O           -4.61205135695644       -3.27375460005823       -2.83516336959354
H            1.85825484090032       -0.37420034270924       -0.51048941068587
H            1.60929504638680       -0.44991366245468        1.23253283016996
H            2.85448924257531        0.59759857203324        0.56261927065788
H           -0.17128225464276        0.98384605785864        0.30434531315927
H            0.93933145815675        1.94093630332852        1.26762841285249
H            0.58313611536431        3.25215913530147       -0.65226112980258
H            2.17011269972711        2.52278482575178       -0.89945156576772
H            0.94476138317008        2.42943572275035       -2.98329688246973
H            1.12459690969228        0.77884161039870       -2.37037257472441
H           -0.39991046924163       -1.15710151888730       -3.01685012359669
H           -0.13191762414026       -0.92213090849005       -1.29245110547436
H           -1.62764111563418       -1.65443654393273       -1.87161864335237
H           -0.48104827058947        4.46612093066945       -2.43110992742776
H           -5.08421166520216        2.50802098202964       -2.38274294075360
H           -3.64165310924067       -1.06114297968543       -1.55176290334284
H           -4.70499131976549        0.34784988038504       -1.54820003466827
H           -5.47741541489938       -1.00725677959217       -3.32108570098312
H           -4.59755781312921        0.30611484948812       -4.11375498014258
H           -4.09697359991164       -1.88476739381286       -5.14392346684157
H           -2.62793324284284       -1.22468163872379       -4.42994210465084
H           -4.53826595265703       -4.12990587059153       -2.38539821846302
43
 energy: -67.752222564253 gnorm: 0.008125897189 xtb: 6.7.1 (edcfbbe)
C            1.85676153230283        0.21693521097319        0.39487678514316
C            0.84944038076528        1.36022951064889        0.34331816892031
C            1.09095994679493        2.31390217187733       -0.82743865616228
C            0.65604763858436        1.74233454352078       -2.18427500909471
N           -0.78039147988540        1.58314430182330       -2.24683421685786
C           -1.48322275271681        0.44396131993619       -2.15582968316915
C           -0.87384192315238       -0.89691091605095       -2.05356863480821
N           -2.79737325984466        0.72203857122584       -2.18608871852538
C           -2.95076698646461        2.09071198256152       -2.30556816455369
C           -1.66099031310527        2.64109015509570       -2.33771138104527
C           -1.46063864499942        4.01185693079280       -2.43902914919585
C           -2.58489553675448        4.81787136007591       -2.49711748128355
Cl          -2.39818362478856        6.51330881106874       -2.60296512788517
C           -3.88853689203187        4.26124007509615       -2.47008017710798
C           -4.08204958541460        2.89278613949085       -2.37831285927575
Cl          -5.24436447800600        5.29685410830255       -2.55574407835261
C           -3.92446712282623       -0.17934053796994       -2.08701094492166
C           -4.49793442513724       -0.56725705440527       -3.45711343450774
C           -3.62848055024038       -1.58143744709216       -4.19778900758003
C           -3.46835159550560       -2.87619336579121       -3.42233240855081
O           -2.42111412816587       -3.44619976193356       -3.27307620556121
O           -4.62462311634945       -3.29101433404579       -2.90356368262545
H            1.86547047276573       -0.36764629949482       -0.52321664477488
H            1.62664348367780       -0.45162483595911        1.22062435668656
H            2.85899225802059        0.60895072902177        0.54793216972857
H           -0.17142290216389        0.97021041789306        0.29995406422195
H            0.92994540014093        1.92956718827813        1.27034259914806
H            0.55210336814280        3.24573998014105       -0.64808327129513
H            2.15443637244659        2.54867005483788       -0.88578469497812
H            0.95047961725805        2.42776052187229       -2.98308889681300
H            1.13469070328552        0.78064939505170       -2.36528918765457
H           -0.36650651112503       -1.15629051748371       -2.98471619752786
H           -0.13786175552396       -0.92472178802787       -1.25198169169230
H           -1.61532322250728       -1.66564985316318       -1.86586990782310
H           -0.47866515123150        4.45435646493101       -2.47044165884572
H           -5.08187388226977        2.49103734820570       -2.36683506576264
H           -3.63280718133420       -1.07292718782741       -1.53412744061038
H           -4.69376890820276        0.33652669812069       -1.50761903015998
H           -5.48191916376679       -1.00552591659205       -3.29427586579866
H           -4.61907722138661        0.32742590951253       -4.07008163936780
H           -4.10807268671196       -1.83979121323736       -5.14415515535373
H           -2.63800903623530       -1.18400815434927       -4.42187317314320
H           -4.55029713633570       -4.14599071692923       -2.45517960118494
43
 energy: -67.752747287031 gnorm: 0.014859082154 xtb: 6.7.1 (edcfbbe)
C            1.86977303881917        0.22121829147363        0.38517261573728
C            0.85038318411433        1.35353389184125        0.34402378094140
C            1.07745256715764        2.31715250249644       -0.82107863348831
C            0.66134645870374        1.74228900907584       -2.18051989939465
N           -0.77617620079587        1.57633510593965       -2.25270127340764
C           -1.47605467640446        0.43660490959687       -2.13900452684385
C           -0.85939354074079       -0.90022937034761       -2.02460640876790
N           -2.79115875611436        0.71294426635142       -2.16167602019110
C           -2.94751685085582        2.07966475426297       -2.30069014807604
C           -1.65952762841573        2.63107271030180       -2.35352728907153
C           -1.46029805554369        4.00006432158689       -2.47782108590988
C           -2.58792916883310        4.80186733997289       -2.53897795009981
Cl          -2.40257472483189        6.49794856007564       -2.67294525947966
C           -3.88810592670000        4.24478181929460       -2.49101695802603
C           -4.08130492303793        2.87752958090675       -2.37512477207811
Cl          -5.24895133347800        5.27657595362283       -2.58255285216577
C           -3.91884531109732       -0.19014290196071       -2.05400294403784
C           -4.51157990884236       -0.55330302917633       -3.42113150596235
C           -3.64310668551938       -1.54555290622045       -4.19514323351849
C           -3.47920341670162       -2.85326452864082       -3.44299116233195
O           -2.41393770598686       -3.37733767065510       -3.22426693292786
O           -4.65143623763481       -3.32693314381720       -3.00847452560352
H            1.87916500960714       -0.36074790985572       -0.53445864666028
H            1.65226320158992       -0.45228141019566        1.21000483775940
H            2.86882220335154        0.62262304271626        0.53334291841806
H           -0.16701422966712        0.95423441643236        0.30096393959072
H            0.92671682239545        1.91775544104479        1.27445657812343
H            0.51704004601103        3.23654219489750       -0.64166747033376
H            2.13601670698949        2.57720232931404       -0.87127226955189
H            0.95721178161595        2.42646864985780       -2.97981938992160
H            1.14315081857404        0.78163467546747       -2.35731649542975
H           -0.32094606441551       -1.14885080489495       -2.94103275964112
H           -0.14793424649554       -0.92580106007637       -1.19972496188896
H           -1.59847691907595       -1.67784854237291       -1.86386515840018
H           -0.47821069063408        4.44020007417653       -2.52579282713012
H           -5.07900153218700        2.47198506892167       -2.34555912159337
H           -3.61502701847655       -1.08917735961780       -1.51550680133762
H           -4.67716325584682        0.31921209898197       -1.45282550512350
H           -5.49101950214245       -1.00146877504867       -3.25690710517521
H           -4.64641984715465        0.35443368732439       -4.01216970292840
H           -4.12452684049749       -1.77907996009313       -5.14648278216997
H           -2.65468895570906       -1.13563401375729       -4.40683545599625
H           -4.56167168509069       -4.17759130919965       -2.55549483590851
43
 energy: -67.753353321582 gnorm: 0.011941159410 xtb: 6.7.1 (edcfbbe)
C            1.88773562005190        0.22622669265710        0.38589258917124
C            0.85956239885851        1.35005707612036        0.35146922731587
C            1.07038795280304        2.31863678012352       -0.81264593233316
C            0.66664616860747        1.74379385654620       -2.17255101465825
N           -0.77281310683298        1.57489982514793       -2.25490337135201
C           -1.47061048503749        0.43641377352692       -2.12161023009289
C           -0.84658154828128       -0.89543555352935       -1.99928197469220
N           -2.78606988167695        0.70861023083340       -2.14050456445055
C           -2.94621105024056        2.07266291320944       -2.29791018725794
C           -1.65947167806282        2.62561089067987       -2.36785945849901
C           -1.46293468485641        3.99233397484830       -2.51647657658060
C           -2.59476481611098        4.78822039637410       -2.58323096098165
Cl          -2.41049858754717        6.48753604930504       -2.74719524858254
C           -3.88875198817009        4.23181718876979       -2.51289341064455
C           -4.08214241863836        2.86657693877936       -2.37393975087360
Cl          -5.25807913029260        5.26081157786633       -2.60681393752746
C           -3.91057261859824       -0.20152707061107       -2.02416310669831
C           -4.52283329004671       -0.54181644057358       -3.38546186250491
C           -3.66606811436578       -1.51925696534968       -4.19367906691000
C           -3.50356441109568       -2.84094774407968       -3.47066193448485
O           -2.44646416651870       -3.34712752166639       -3.21419518495069
O           -4.67022705391618       -3.36122828757234       -3.09590523911897
H            1.89805004466271       -0.35543137223105       -0.53359181884273
H            1.67914537333202       -0.44896853073442        1.21091446309661
H            2.88407249798828        0.63435901515359        0.53086652907719
H           -0.15537463703232        0.94413997170084        0.31430553127157
H            0.93749483426976        1.91357297754943        1.28163571641641
H            0.49560521654787        3.22820558559232       -0.63222926868354
H            2.12406550474020        2.59679737607606       -0.86023597666264
H            0.96425516723828        2.42742157027143       -2.97128548295814
H            1.14563515733584        0.78197433871271       -2.34780920158418
H           -0.27627482143159       -1.12978114288785       -2.90004225484678