24
 energy: -31.306784932740 gnorm: 0.000297931853 xtb: 6.7.1 (edcfbbe)
C            0.98341898956700       -0.04147498497598        0.04292207448255
C            0.26972650022248       -0.19207544173266       -1.05545745928483
C           -1.23199311527149       -0.07833000868759       -1.09449184446434
N           -1.64019378566047        0.93578721800988       -2.04549549559146
C           -1.40467174286759        2.27012853242598       -1.91179562769388
C           -1.89573060120401        2.88079058549016       -3.02609284521548
N           -2.42192490543510        1.91073959859645       -3.82144492223048
C           -2.25038120048979        0.74060341136539       -3.20969017505873
C           -3.03479994517169        2.09521607446580       -5.12283471360752
C           -2.28223019536831        1.33890035788803       -6.18470078410877
C           -2.84726105329439        0.47190104292030       -7.00189590139321
H            0.53061791892703        0.17792244623364        0.99574559804319
H            2.05325504772176       -0.15012528316783        0.03734878566531
H            0.73767096899729       -0.42183894615047       -2.00241845504151
H           -1.67463930366650       -1.03009808482722       -1.39959913820741
H           -1.61283703589207        0.19039788686809       -0.10590270050172
H           -0.91347524979257        2.68250978076288       -1.05432758846291
H           -1.90562622416039        3.91762799157226       -3.29425849662996
H           -2.56195541513378       -0.20821082601425       -3.60188027624101
H           -4.07348821816361        1.75526079486324       -5.08385622295068
H           -3.02470949921719        3.16515413099668       -5.34632653221301
H           -1.22830766878821        1.56986291354920       -6.25274223739633
H           -2.28283048793224       -0.02993757903210       -7.76738378627381
H           -3.89914377792617        0.24240838858006       -6.95612125562416
