46
 energy: -52.428125522865 gnorm: 0.046332404625 xtb: 6.7.1 (edcfbbe)
C            0.75913000000000       -0.03379000000000       -0.49772000000000
C            0.46663000000000       -1.52475000000000       -0.57378000000000
C            1.12184000000000       -2.33607000000000        0.54677000000000
C            0.72684000000000       -1.93962000000000        1.97290000000000
C           -0.77168000000000       -1.98785000000000        2.29035000000000
C           -1.45992000000000       -3.34348000000000        2.12586000000000
N           -1.14156000000000       -4.41761000000000        3.12794000000000
C           -1.63806000000000       -5.66553000000000        2.99618000000000
C           -2.54515000000000       -6.00218000000000        1.84579000000000
C           -1.83957000000000       -6.89203000000000        0.82521000000000
C           -1.87562000000000       -8.37333000000000        1.19288000000000
C           -1.20660000000000       -8.71447000000000        2.52101000000000
C           -1.86267000000000       -8.04001000000000        3.71765000000000
N           -1.35666000000000       -6.64725000000000        3.86448000000000
C           -0.48056000000000       -6.40148000000000        5.02432000000000
C           -0.62258000000000       -4.97195000000000        5.46233000000000
C           -0.26564000000000       -4.11185000000000        4.27920000000000
H            0.29986000000000        0.42101000000000        0.38491000000000
H            0.35446000000000        0.47405000000000       -1.37913000000000
H            1.83679000000000        0.15482000000000       -0.46345000000000
H           -0.61681000000000       -1.68570000000000       -0.57880000000000
H            0.83902000000000       -1.90261000000000       -1.53373000000000
H            0.90227000000000       -3.39827000000000        0.38828000000000
H            2.21152000000000       -2.23914000000000        0.45686000000000
H            1.28002000000000       -2.57794000000000        2.66715000000000
H            1.08384000000000       -0.92139000000000        2.17099000000000
H           -0.94329000000000       -1.58991000000000        3.29584000000000
H           -1.28159000000000       -1.27870000000000        1.62591000000000
H           -2.53953000000000       -3.16469000000000        2.19836000000000
H           -1.24466000000000       -3.73593000000000        1.12686000000000
H           -2.90442000000000       -5.11181000000000        1.32610000000000
H           -3.46416000000000       -6.47383000000000        2.21323000000000
H           -0.80241000000000       -6.56514000000000        0.68404000000000
H           -2.34289000000000       -6.77927000000000       -0.14296000000000
H           -2.91798000000000       -8.71615000000000        1.21431000000000
H           -1.38140000000000       -8.94287000000000        0.39637000000000
H           -1.27369000000000       -9.80095000000000        2.65666000000000
H           -0.14019000000000       -8.46345000000000        2.47838000000000
H           -1.60494000000000       -8.60530000000000        4.62067000000000
H           -2.95602000000000       -8.03418000000000        3.66074000000000
H            0.54871000000000       -6.64342000000000        4.73628000000000
H           -0.76632000000000       -7.05894000000000        5.85246000000000
H            0.04085000000000       -4.76000000000000        6.30702000000000
H           -1.65199000000000       -4.77054000000000        5.78118000000000
H            0.77268000000000       -4.28037000000000        3.97476000000000
H           -0.37907000000000       -3.07084000000000        4.58493000000000
46
 energy: -52.433187711801 gnorm: 0.019923265529 xtb: 6.7.1 (edcfbbe)
C            0.75634868438861       -0.03554025483543       -0.49197538907146
C            0.46005609079961       -1.52703875911407       -0.56800522050518
C            1.11523070829014       -2.34366419105871        0.54773782596420
C            0.73145661498688       -1.94928236645585        1.97639235758361
C           -0.76404441132867       -2.00954819015175        2.30087048399022
C           -1.46025446443059       -3.36107497198699        2.14187145785326
N           -1.14095628859556       -4.42332273364325        3.13415531775737
C           -1.64195610607860       -5.65459075149664        3.01147089750315
C           -2.53732844915315       -5.99549122546932        1.85585466668853
C           -1.83860845912897       -6.89523652860847        0.82690251928856
C           -1.87889042680525       -8.37889910496085        1.18060212945373
C           -1.20957248860546       -8.71284363071858        2.50907389524854
C           -1.84799371299026       -8.00895674957340        3.70070528272288
N           -1.36024525010091       -6.63085672086339        3.86942506913333
C           -0.49152503083799       -6.40948307932589        5.02465801081900
C           -0.62204855864829       -4.96808199929309        5.45530488390848
C           -0.27197321231416       -4.09711337776581        4.26795664215722
H            0.30428246256003        0.41966447540229        0.38776974773104
H            0.35738041186655        0.47011637134237       -1.37017484327110
H            1.82981388002301        0.14411725485468       -0.45913379574273
H           -0.62193138257153       -1.68459214893293       -0.56745776930943
H            0.83528777124856       -1.90790336987621       -1.52230264744708
H            0.89503431254030       -3.40376699930762        0.38644092404927
H            2.20007166818989       -2.23334906185869        0.46014938400657
H            1.29166596852171       -2.58463243737867        2.66529369687132
H            1.06794902838813       -0.92531198980859        2.15954123417749
H           -0.93539453879020       -1.60600613058977        3.30193771283346
H           -1.28304048881883       -1.32786884263264        1.61964973717259
H           -2.53845711346049       -3.17530387361753        2.20470730037968
H           -1.22723799993286       -3.74922024297282        1.14778089723191
H           -2.88538058480352       -5.09364023288211        1.35426219751040
H           -3.43799677194342       -6.49480258619278        2.22698776960295
H           -0.80353028830165       -6.56913832447911        0.69526328493417
H           -2.33938831298271       -6.77140474801643       -0.13630995574348
H           -2.92052641421419       -8.71037480610528        1.21285806407252
H           -1.38537586278070       -8.94456635168815        0.38699822342079
H           -1.27734410321524       -9.79291553279367        2.66244719137445
H           -0.14781593094980       -8.45793412839452        2.47342281567003
H           -1.58916751645785       -8.54821689025934        4.61472015187662
H           -2.93858590974576       -8.01049794505256        3.62561567728074
H            0.54050165497306       -6.64714086912041        4.74581123877459
H           -0.78988990758281       -7.08326290929439        5.83110357766389
H            0.04289672118906       -4.75489913082405        6.29285504661199
H           -1.64727701205478       -4.76922839064413        5.77762089924881
H            0.76806147222657       -4.26402229295259        3.97176441792570
H           -0.39547045256799       -3.04758323060294        4.53296699059738
46
 energy: -52.434120135609 gnorm: 0.005855636679 xtb: 6.7.1 (edcfbbe)
C            0.75491924457571       -0.04121867411028       -0.48358057938882
C            0.44986441833141       -1.53210422193458       -0.56188604641874
C            1.11049571649318       -2.35235304221978        0.54830945754778
C            0.73143048067952       -1.95677301706681        1.97772989687433
C           -0.76356962579540       -2.01846315922209        2.30262600490643
C           -1.45223730965152       -3.37568318974829        2.15071168067221
N           -1.13284845531287       -4.43129690661052        3.13320191646611
C           -1.63500330719275       -5.65300896539976        3.01258463964397
C           -2.53505700607424       -5.99513932651877        1.86206590118227
C           -1.83389523297781       -6.89020983138527        0.82364515886950
C           -1.88184873533902       -8.37356454393719        1.17504335864381
C           -1.20502169184844       -8.70351688430863        2.50068231495667
C           -1.84112484323974       -7.98979490387726        3.69106704490673
N           -1.35714336411934       -6.62469794503987        3.86920518697844
C           -0.49842093022589       -6.40849816931033        5.02333454717544
C           -0.62069152237095       -4.96267392142180        5.45884644062157
C           -0.27515147819709       -4.09690503591918        4.26218200939243
H            0.30780792303284        0.41366261134239        0.39621012594840
H            0.35795271080163        0.46425399670762       -1.35959905524990
H            1.82795177381746        0.12874866904107       -0.45275325798314
H           -0.63200241906526       -1.68376585125013       -0.55507057802996
H            0.82172162052366       -1.91338434313333       -1.51518495889001
H            0.88724476667872       -3.41023844008332        0.38462979112601
H            2.19267437771873       -2.23776964394376        0.45883269475363
H            1.29974483115522       -2.58622020891997        2.66391309616577
H            1.05489575352573       -0.92954198257421        2.15010015937626
H           -0.93806669096173       -1.60248693871225        3.29638071830742
H           -1.28540817402152       -1.35739796795271        1.60642224888247
H           -2.52972241147016       -3.18702038378110        2.20656064688207
H           -1.20949383526236       -3.75776289048018        1.15728277106371
H           -2.88411684852003       -5.09198725509234        1.37102589266204
H           -3.42073532216454       -6.51386977128744        2.23839281189106
H           -0.79811931842023       -6.56777151527751        0.69985336593321
H           -2.33620793484234       -6.75452248795286       -0.13442908974469
H           -2.92307546493881       -8.69965700108613        1.21416251792405
H           -1.39270760915104       -8.93705929808285        0.38079461215555
H           -1.27938125279740       -9.77852120187662        2.66808961719670
H           -0.14394031263142       -8.45128720506284        2.45967206457185
H           -1.58867207277145       -8.52684215673973        4.60486511772225
H           -2.93050432871634       -7.99492225294187        3.59810445629560
H            0.53730978308570       -6.64989755538386        4.76043516666514
H           -0.80982901276540       -7.08108683860741        5.82301042135970
H            0.04980493116570       -4.74894044541310        6.28882643745582
H           -1.64369552654127       -4.76205708457810        5.78209042250994
H            0.76969343480809       -4.25501790252958        3.97725913799005
H           -0.40898972900710       -3.04644491631765        4.50994371202874
46
 energy: -52.434270735007 gnorm: 0.002811925292 xtb: 6.7.1 (edcfbbe)
C            0.75412951932937       -0.04671103683480       -0.47869378329520
C            0.44291989365970       -1.53673508208848       -0.55909182043724
C            1.10695163563695       -2.35889708459820        0.54795534545050
C            0.73161799638574       -1.95918369452658        1.97738035718962
C           -0.76373877694788       -2.02155051201125        2.29954796965488
C           -1.44879943444476       -3.38188329239761        2.15104269402075
N           -1.12733345416862       -4.43257564709142        3.13302761930146
C           -1.63223061516312       -5.65255972475055        3.01379601617642
C           -2.53451521460962       -5.99329214225400        1.86452706255501
C           -1.83097414684865       -6.88336312777756        0.82152619691593
C           -1.88116462771250       -8.36723937359115        1.17032291641112
C           -1.20130766174165       -8.69765599893288        2.49467255930426
C           -1.83767315284004       -7.98664887231724        3.68886121092171
N           -1.35519486680710       -6.62438913987468        3.87145178616556
C           -0.50195835044651       -6.40721376256536        5.02735523980412
C           -0.61993689118653       -4.95908123050712        5.46135094532659
C           -0.27438936306894       -4.09511335219340        4.26249748799524
H            0.31039211668688        0.40791123660129        0.40308700352567
H            0.35748383102404        0.46192986395979       -1.35304987786447
H            1.82827901191189        0.11722299202088       -0.44905928105785
H           -0.63934685071555       -1.68420520165939       -0.54636223387145
H            0.80800195163400       -1.91775065422946       -1.51482901869553
H            0.88130689246112       -3.41625387271148        0.38517727673106
H            2.18860053735313       -2.24593196089236        0.45451251681630
H            1.30122679384250       -2.58579280926991        2.66450217017025
H            1.05389942097710       -0.93148665558613        2.14564662396470
H           -0.94222905511002       -1.59846402021952        3.28926271031959
H           -1.28403022328795       -1.36769158645690        1.59676538309377
H           -2.52667234857189       -3.19454068233436        2.20466344061086
H           -1.20411794725620       -3.76236235067691        1.15716984936449
H           -2.88966795303602       -5.09134002108777        1.37762402858095
H           -3.41425782724665       -6.51925318514694        2.24124750780181
H           -0.79423825695679       -6.56297990612992        0.70268802030834
H           -2.33124648126265       -6.74182729851417       -0.13638564802710
H           -2.92275844793371       -8.69123963703533        1.21229516302870
H           -1.39588269582321       -8.93132940612872        0.37408119368570
H           -1.27611535739101       -9.77186671942101        2.66330405710062
H           -0.14051589583240       -8.44515698771654        2.44888188193063
H           -1.59034565576004       -8.53091709307746        4.59928586511651
H           -2.92662292822347       -7.99322421444473        3.58986258054524
H            0.53527669309532       -6.65267077041493        4.77325770029317
H           -0.82039928165859       -7.07511378076528        5.82831653805288
H            0.05524859710278       -4.74682545025427        6.28722153428465
H           -1.64120281754799       -4.75508606167126        5.78754197068994
H            0.77302755313140       -4.24918709248993        3.98343530458063
H           -0.41266586463216       -3.04518359993542        4.50791593545895
46
 energy: -52.434376644115 gnorm: 0.002731533158 xtb: 6.7.1 (edcfbbe)
C            0.75332388593009       -0.05535705545025       -0.47342214831235
C            0.43346554888979       -1.54368775896468       -0.55650258417367
C            1.10200815426425       -2.36859364407663        0.54589040492468
C            0.73177244703906       -1.96394312453717        1.97533104708720
C           -0.76394715206252       -2.02382514503970        2.29496611698418
C           -1.44548057634175       -3.38693729114550        2.15077847375522
N           -1.12129827882638       -4.43286663978487        3.13377976303915
C           -1.63062311694880       -5.65194947323907        3.01645612252216
C           -2.53448404142770       -5.99086661440348        1.86808738148482
C           -1.82654451983728       -6.87166264166029        0.81932491606238
C           -1.87921108480126       -8.35657724103321        1.16319982185785
C           -1.19486033654278       -8.68986184068844        2.48503302479367
C           -1.83248937494454       -7.98630970473270        3.68548497604691
N           -1.35382924958542       -6.62479255018872        3.87504253769245
C           -0.50815798983218       -6.40559342799287        5.03521697700682
C           -0.61926734023743       -4.95474720042682        5.46531592033789
C           -0.27296683097167       -4.09252910519133        4.26498907735993
H            0.31431096167762        0.39906161900923        0.41129066175755
H            0.35725441397459        0.45891075706827       -1.34508724724826
H            1.82893269280124        0.10128910194634       -0.44540026432882
H           -0.64946708291289       -1.68567768554428       -0.53544172705815
H            0.78807365890101       -1.92438600315181       -1.51634793833017
H            0.87210908999725       -3.42545744036274        0.38584344823905
H            2.18355912541437       -2.25996261056444        0.44601035639173
H            1.30133750021293       -2.58823356292654        2.66424457286249
H            1.05599692240008       -0.93646737665969        2.13956753668518
H           -0.94747240350551       -1.59445101589689        3.28085727090308
H           -1.28145802233175       -1.37586067356202        1.58577433127218
H           -2.52388976552224       -3.20132240399998        2.20285741428271
H           -1.20066794101040       -3.76751122955764        1.15654265548487
H           -2.89991497767181       -5.09029334475449        1.38679326893855
H           -3.40794955089906       -6.52584734030920        2.24400732245395
H           -0.78873329033318       -6.55222646201813        0.70749794943593
H           -2.32249169957019       -6.72307054860332       -0.13973663869872
H           -2.92140315394458       -8.67895433232464        1.20726305859206
H           -1.39797694444886       -8.92063260535494        0.36397079394115
H           -1.26576665359916       -9.76464340795482        2.65044017417883
H           -0.13520186402057       -8.43316094854414        2.43493414895338
H           -1.58713300911388       -8.53894194273227        4.59167134743861
H           -2.92127129807568       -7.99605977121285        3.58412078111948
H            0.53009590757070       -6.65841706235136        4.79201095081853
H           -0.83685313397898       -7.06652613440174        5.83874881802766
H            0.06209353979815       -4.74536752839333        6.28680088380113
H           -1.63774129686983       -4.74470177162422        5.79637086776374
H            0.77664095131850       -4.24269431389524        3.99120659270469
H           -0.41559282002185       -3.04300350276812        4.50980678114779
46
 energy: -52.434432524596 gnorm: 0.002880302365 xtb: 6.7.1 (edcfbbe)
C            0.75282586149740       -0.06229914747393       -0.47147155329891
C            0.42693760094985       -1.54911296867767       -0.55609223013278
C            1.09758627240570       -2.37644177959740        0.54298914515260
C            0.73239886099755       -1.96912299623938        1.97293401920644
C           -0.76316706384645       -2.02530877393678        2.29304220313315
C           -1.44539264460859       -3.38819163046770        2.15152311937035
N           -1.11964466655346       -4.43246524219754        3.13560955268033
C           -1.63153235553573       -5.65115013474941        3.01938305585503
C           -2.53539357371649       -5.98886249310887        1.87117189726340
C           -1.82339039035248       -6.86123038818041        0.81838796310946
C           -1.87581343868644       -8.34720731287115        1.15699229422274
C           -1.18860769614635       -8.68293452087737        2.47694236085140
C           -1.82747068132808       -7.98792476457979        3.68257563263255
N           -1.35430437219627       -6.62480626256080        3.87763709339269
C           -0.51443645656273       -6.40471987015312        5.04202271755311
C           -0.61976766009047       -4.95235851435083        5.46861852939158
C           -0.27260624827765       -4.09134841942420        4.26770212797882
H            0.31703614311796        0.39228277251095        0.41495524884079
H            0.35757814382273        0.45585902554770       -1.34131571676426
H            1.82920508676905        0.08975130125572       -0.44453815710719
H           -0.65639518452440       -1.68738528028455       -0.52982132046866
H            0.77458726595074       -1.92979571670062       -1.51855917589605
H            0.86413159423201       -3.43290965875548        0.38477909328190
H            2.17921815101002       -2.27165001992479        0.43858882646832
H            1.30096499774822       -2.59398147883196        2.66210674006915
H            1.06039659125584       -0.94250906123298        2.13563852803428
H           -0.94755324871724       -1.59386884097386        3.27772676109231
H           -1.27912176052127       -1.37843756796410        1.58210146699037
H           -2.52387677073265       -3.20266928318973        2.20416211349728
H           -1.20223134019511       -3.77058850043550        1.15743178266798
H           -2.90877467189027       -5.08850621357680        1.39499334183466
H           -3.40491002347549       -6.53096433627343        2.24583083177321
H           -0.78529563960573       -6.54065811017381        0.71179281430829
H           -2.31574015537148       -6.70809854449294       -0.14187727304457
H           -2.91812470709701       -8.66951237333781        1.20179880084312
H           -1.39626193784149       -8.90987097250346        0.35549098835131
H           -1.25343327757052       -9.75899560918699        2.63741443222587
H           -0.13040913624786       -8.42036167527700        2.42577474774615
H           -1.57810678548404       -8.54441159065161        4.58565102837153
H           -2.91644152249292       -8.00212678377149        3.58376004390098
H            0.52380278015782       -6.66429276143214        4.80613010186437
H           -0.85164138227244       -7.06077997042893        5.84667416174684
H            0.06521906985499       -4.74531997806106        6.28799048373490
H           -1.63608479577608       -4.73727342975294        5.80303570532426
H            0.77740480849626       -4.24043112106827        3.99529237889610
H           -0.41653364054959       -3.04171900158680        4.51261329305403
46
 energy: -52.434509188880 gnorm: 0.002378023745 xtb: 6.7.1 (edcfbbe)
C            0.75191375595205       -0.07152101663427       -0.47116394527719
C            0.41896517452703       -1.55632901230757       -0.55738336831018
C            1.09135850758663       -2.38735933156569        0.53744094857766
C            0.73390832807551       -1.97832474944621        1.96873783385169
C           -0.76092430655105       -2.02713467163193        2.29273807487881
C           -1.44751156176692       -3.38748158197179        2.15441178267135
N           -1.12071185573235       -4.43157994482228        3.13961209199045
C           -1.63475040711228       -5.64978175360615        3.02420750818039
C           -2.53800509277195       -5.98613928796764        1.87588802681265
C           -1.81972361399136       -6.84552511109528        0.81755843776761
C           -1.86894924945413       -8.33316408938320        1.14808994923360
C           -1.17821348323203       -8.67219901321223        2.46545898558635
C           -1.81924785136466       -7.99140624863031        3.67816512978647
N           -1.35665328878790       -6.62437492268687        3.88109470398288
C           -0.52516610592331       -6.40411103581628        5.05214271484836
C           -0.62209598022451       -4.95006564210531        5.47348565677770
C           -0.27290027632542       -4.09121080472315        4.27184607097276
H            0.31977739177422        0.38352781718429        0.41688640005262
H            0.35799104256263        0.45079780260601       -1.33909418708461
H            1.82898748469336        0.07544103084352       -0.44549442428392
H           -0.66476918420229       -1.69023472309080       -0.52577679704123
H            0.75926631224934       -1.93701120185924       -1.52249688551852
H            0.85273918211196       -3.44304201642357        0.38079531494658
H            2.17313674190685       -2.28783937691689        0.42762922013713
H            1.30082200086391       -2.60639606875038        2.65647221748288
H            1.06874318521696       -0.95359189452284        2.13090168366859
H           -0.94231028415166       -1.59491023032161        3.27750885924144
H           -1.27578773283103       -1.37860769486380        1.58255602339492
H           -2.52554644814082       -3.20006633609488        2.20989293529021
H           -1.20856501819479       -3.77342829451209        1.16064714684415
H           -2.92198554408752       -5.08548647182206        1.40765404995447
H           -3.40230401653890       -6.53858163626683        2.24839826995263
H           -0.78196988598552       -6.52125095330825        0.71761154143351
H           -2.30781568010902       -6.68708905998455       -0.14407077530972
H           -2.91077810477561       -8.65727390822960        1.19318230444468
H           -1.38985389033492       -8.89215577366825        0.34364525393737
H           -1.23258157518442       -9.75044159996828        2.61768362805951
H           -0.12242841078816       -8.39964661298859        2.41476334001935
H           -1.55930366950055       -8.55110154190098        4.57667892122800
H           -2.90875091421228       -8.01428225098166        3.58616038168722
H            0.51251695482437       -6.67400075673162        4.82596950029077
H           -0.87517823902373       -7.05386475380775        5.85707055265659
H            0.06632874483468       -4.74589919995979        6.29117791624207
H           -1.63576164681752       -4.72776129769412        5.81115142888216
H            0.77648770425688       -4.24178839763903        3.99899169228042
H           -0.41556919332068       -3.04101638072170        4.51676388477817
46
 energy: -52.434603699474 gnorm: 0.002478405174 xtb: 6.7.1 (edcfbbe)
C            0.75048340462057       -0.08270547969815       -0.47327138125434
C            0.40971690092187       -1.56532742746193       -0.56093320285710
C            1.08314249649669       -2.40154427538377        0.52896116776361
C            0.73666114391051       -1.99199835094038        1.96274615341781
C           -0.75669101041280       -2.02939954444568        2.29510290766704
C           -1.45246378903060       -3.38464005103700        2.16102871918355
N           -1.12528321160056       -4.43012436538639        3.14651771590204
C           -1.64015543690504       -5.64775321762071        3.03102116493448
C           -2.54286771621237       -5.98246970511220        1.88247489389097
C           -1.81643955648501       -6.82451591169549        0.81664970998373
C           -1.85749095648851       -8.31452308481063        1.13644145259776
C           -1.16259093220312       -8.65714818428879        2.45070390615723
C           -1.80709412454357       -7.99608540994801        3.67199418871565
N           -1.36083277157287       -6.62337458257063        3.88550440774535
C           -0.54066164586536       -6.40394214339027        5.06553110905477
C           -0.62739325559840       -4.94805829139609        5.48041076406894
C           -0.27406681392696       -4.09287986809129        4.27755150503180
H            0.32238173110108        0.37327140215521        0.41619647265269
H            0.35806285824816        0.44332660853453       -1.33949990015128
H            1.82822357040840        0.05878324316274       -0.44924844990633
H           -0.67445009045957       -1.69422195309851       -0.52436784113256
H            0.74325916174046       -1.94602108235651       -1.52836512782509
H            0.83747634030551       -3.45580466812548        0.37290188868578
H            2.16500351200960       -2.30856057371612        0.41309945524701
H            1.30159400318452       -2.62637075247411        2.64657438088758
H            1.08136489885829       -0.97032798478155        2.12530390522575
H           -0.92948417745238       -1.59691067742338        3.28133620035423
H           -1.27128245374900       -1.37638574596347        1.58849842798612
H           -2.52932531751162       -3.19239042540186        2.22217623769179
H           -1.22084576567373       -3.77490695580475        1.16733100228919
H           -2.93928456817903       -5.08102611927381        1.42509983374660
H           -3.40016902650816       -6.54844065586818        2.25217531670319
H           -0.78017796478887       -6.49307401615923        0.72347232126364
H           -2.30137852486156       -6.66058201370207       -0.14557684221531
H           -2.89771396707875       -8.64377026411345        1.18125049589191
H           -1.37670669794427       -8.86662287626980        0.32834628721067
H           -1.20309897288787       -9.73794271064311        2.59218070563832
H           -0.11004634792803       -8.37133815872193        2.40189685096539
H           -1.53105603563060       -8.55868100243815        4.56427620905965
H           -2.89724499181500       -8.03256236337543        3.58942565400045
H            0.49622172187496       -6.68686907736325        4.85192748874209
H           -0.90759103757030       -7.04634524019134        5.86929558497991
H            0.06326404157622       -4.74668138003226        6.29729657668935
H           -1.63858166246959       -4.71697661796518        5.81951471814819
H            0.77372513653052       -4.24921503828445        4.00278144079447
H           -0.41128209843512       -3.04157300702979        4.52185552437150
46
 energy: -52.434711452779 gnorm: 0.003285093613 xtb: 6.7.1 (edcfbbe)
C            0.74862415169210       -0.09508573680762       -0.47773103438271
C            0.39953576173683       -1.57560638433581       -0.56642953880638
C            1.07328664202926       -2.41833066279683        0.51817250328438
C            0.74053258265883       -2.00928252795553        1.95541854791289
C           -0.75054662101237       -2.03172437641690        2.30027572234539
C           -1.45969656127290       -3.37997714445986        2.17195909410879
N           -1.13248990131170       -4.42804390544716        3.15611027794073
C           -1.64654928665942       -5.64522693587590        3.03917463561954