      -----------------------------------------------------------      
     |                   =====================                   |     
     |                           x T B                           |     
     |                   =====================                   |     
     |                         S. Grimme                         |     
     |          Mulliken Center for Theoretical Chemistry        |     
     |                    University of Bonn                     |     
      -----------------------------------------------------------      

   * xtb version 6.7.1 (edcfbbe) compiled by 'conda@3ef47c1a292c' on 2024-11-25

   xtb is free software: you can redistribute it and/or modify it under
   the terms of the GNU Lesser General Public License as published by
   the Free Software Foundation, either version 3 of the License, or
   (at your option) any later version.
   
   xtb is distributed in the hope that it will be useful,
   but WITHOUT ANY WARRANTY; without even the implied warranty of
   MERCHANTABILITY or FITNESS FOR A PARTICULAR PURPOSE.  See the
   GNU Lesser General Public License for more details.
   
   Cite this work as:
   * C. Bannwarth, E. Caldeweyher, S. Ehlert, A. Hansen, P. Pracht,
     J. Seibert, S. Spicher, S. Grimme, WIREs Comput. Mol. Sci., 2020, 11,
     e01493. DOI: 10.1002/wcms.1493
   
   for GFN2-xTB:
   * C. Bannwarth, S. Ehlert and S. Grimme., J. Chem. Theory Comput., 2019,
     15, 1652-1671. DOI: 10.1021/acs.jctc.8b01176
   for GFN1-xTB:
   * S. Grimme, C. Bannwarth, P. Shushkov, J. Chem. Theory Comput., 2017,
     13, 1989-2009. DOI: 10.1021/acs.jctc.7b00118
   for GFN0-xTB:
   * P. Pracht, E. Caldeweyher, S. Ehlert, S. Grimme, ChemRxiv, 2019, preprint.
     DOI: 10.26434/chemrxiv.8326202.v1
   for GFN-FF:
   * S. Spicher and S. Grimme, Angew. Chem. Int. Ed., 2020, 59, 15665-15673.
     DOI: 10.1002/anie.202004239
   
   for ALPB and GBSA implicit solvation:
   * S. Ehlert, M. Stahn, S. Spicher, S. Grimme, J. Chem. Theory Comput.,
     2021, 17, 4250-4261. DOI: 10.1021/acs.jctc.1c00471
   
   for ddCOSMO and CPCM-X implicit solvation:
   * M. Stahn, S. Ehlert, S. Grimme, J. Phys. Chem. A,
     2023, XX, XXXX-XXXX. DOI: 10.1021/acs.jpca.3c04382
   
   for DFT-D4:
   * E. Caldeweyher, C. Bannwarth and S. Grimme, J. Chem. Phys., 2017,
     147, 034112. DOI: 10.1063/1.4993215
   * E. Caldeweyher, S. Ehlert, A. Hansen, H. Neugebauer, S. Spicher,
     C. Bannwarth and S. Grimme, J. Chem. Phys., 2019, 150, 154122.
     DOI: 10.1063/1.5090222
   * E. Caldeweyher, J.-M. Mewes, S. Ehlert and S. Grimme, Phys. Chem. Chem. Phys.
     2020, 22, 8499-8512. DOI: 10.1039/D0CP00502A
   
   for sTDA-xTB:
   * S. Grimme and C. Bannwarth, J. Chem. Phys., 2016, 145, 054103.
     DOI: 10.1063/1.4959605
   
   in the mass-spec context:
   * V. Asgeirsson, C. Bauer and S. Grimme, Chem. Sci., 2017, 8, 4879.
     DOI: 10.1039/c7sc00601b
   * J. Koopman and S. Grimme, ACS Omega 2019, 4, 12, 15120-15133.
     DOI: 10.1021/acsomega.9b02011
   
   for metadynamics refer to:
   * S. Grimme, J. Chem. Theory Comput., 2019, 155, 2847-2862
     DOI: 10.1021/acs.jctc.9b00143
   
   for SPH calculations refer to:
   * S. Spicher and S. Grimme, J. Chem. Theory Comput., 2021, 17, 1701-1714
     DOI: 10.1021/acs.jctc.0c01306
   
   for ONIOM refer to:
   * C. Plett, A. Katbashev, S. Ehlert, S. Grimme, M. Bursch,
     Phys. Chem. Chem. Phys., 2023, 25, 17860-17868. DOI: 10.1039/D3CP02178E
   
   for DIPRO refer to:
   * J. Kohn, N. Gildemeister, S. Grimme, D. Fazzi, A. Hansen,
     J. Chem. Phys., 2023, just accepted.
   
   for PTB refer to:
   * S. Grimme, M. Mueller, A. Hansen, J. Chem. Phys., 2023, 158, 124111.
     DOI: 10.1063/5.0137838
   
   with help from (in alphabetical order)
   P. Atkinson, C. Bannwarth, F. Bohle, G. Brandenburg, E. Caldeweyher
   M. Checinski, S. Dohm, S. Ehlert, S. Ehrlich, I. Gerasimov, C. Hölzer
   A. Katbashev, J. Kohn, J. Koopman, C. Lavigne, S. Lehtola, F. März, M. Müller,
   F. Musil, H. Neugebauer, J. Pisarek, C. Plett, P. Pracht, F. Pultar,
   J. Seibert, P. Shushkov, S. Spicher, M. Stahn, M. Steiner, T. Strunk,
   J. Stückrath, T. Rose, and J. Unsleber
   
 * started run on 2024/12/20 at 07:14:33.801     
   ID    Z sym.   atoms
    1    6 C      1-9, 11-14
    2    7 N      10
    3    1 H      15-36

           -------------------------------------------------
          |                Calculation Setup                |
           -------------------------------------------------

          program call               : xtb C1194.xyz --opt --namespace C1194 --charge +1
          calculation namespace      : C1194
          coordinate file            : C1194.xyz
          omp threads                :                     8


           -------------------------------------------------
          |                 G F N 2 - x T B                 |
           -------------------------------------------------

        Reference                      10.1021/acs.jctc.8b01176
      * Hamiltonian:
        H0-scaling (s, p, d)           1.850000    2.230000    2.230000
        zeta-weighting                 0.500000
      * Dispersion:
        s8                             2.700000
        a1                             0.520000
        a2                             5.000000
        s9                             5.000000
      * Repulsion:
        kExp                           1.500000    1.000000
        rExp                           1.000000
      * Coulomb:
        alpha                          2.000000
        third order                    shell-resolved
        anisotropic                    true
        a3                             3.000000
        a5                             4.000000
        cn-shift                       1.200000
        cn-exp                         4.000000
        max-rad                        5.000000


          ...................................................
          :                      SETUP                      :
          :.................................................:
          :  # basis functions                  78          :
          :  # atomic orbitals                  78          :
          :  # shells                           50          :
          :  # electrons                        78          :
          :  max. iterations                   250          :
          :  Hamiltonian                  GFN2-xTB          :
          :  restarted?                      false          :
          :  GBSA solvation                  false          :
          :  PC potential                    false          :
          :  electronic temp.          300.0000000     K    :
          :  accuracy                    1.0000000          :
          :  -> integral cutoff          0.2500000E+02      :
          :  -> integral neglect         0.1000000E-07      :
          :  -> SCF convergence          0.1000000E-05 Eh   :
          :  -> wf. convergence          0.1000000E-03 e    :
          :  Broyden damping             0.4000000          :
          :  net charge                          1          :
          :  unpaired electrons                  0          :
          ...................................................

 iter      E             dE          RMSdq      gap      omega  full diag
   1    -42.0926619 -0.420927E+02  0.327E+00    4.19       0.0  T
   2    -42.2115600 -0.118898E+00  0.221E+00    4.04       1.0  T
   3    -42.2142132 -0.265328E-02  0.109E+00    4.01       1.0  T
   4    -42.2128273  0.138596E-02  0.296E-01    3.93       1.0  T
   5    -42.2157230 -0.289572E-02  0.886E-02    3.96       1.0  T
   6    -42.2158138 -0.907602E-04  0.452E-02    3.96       1.0  T
   7    -42.2158217 -0.789657E-05  0.202E-02    3.96       1.0  T
   8    -42.2158299 -0.829077E-05  0.338E-03    3.96       4.9  T
   9    -42.2158300 -0.668514E-07  0.146E-03    3.96      11.4  T
  10    -42.2158300 -0.306530E-07  0.715E-04    3.96      23.3  T
  11    -42.2158301 -0.860969E-08  0.185E-04    3.96      89.9  T

   *** convergence criteria satisfied after 11 iterations ***

         #    Occupation            Energy/Eh            Energy/eV
      -------------------------------------------------------------
         1        2.0000           -0.8477746             -23.0691
       ...           ...                  ...                  ...
        33        2.0000           -0.5543698             -15.0852
        34        2.0000           -0.5536897             -15.0667
        35        2.0000           -0.5496215             -14.9560
        36        2.0000           -0.5307279             -14.4418
        37        2.0000           -0.5262911             -14.3211
        38        2.0000           -0.5031702             -13.6920
        39        2.0000           -0.4924968             -13.4015 (HOMO)
        40                         -0.3469339              -9.4406 (LUMO)
        41                         -0.3312921              -9.0149
        42                         -0.2638577              -7.1799
        43                         -0.2184341              -5.9439
        44                         -0.1837654              -5.0005
       ...                                ...                  ...
        78                          0.4961270              13.5003
      -------------------------------------------------------------
                  HL-Gap            0.1455628 Eh            3.9610 eV
             Fermi-level           -0.4197154 Eh          -11.4210 eV

 SCC (total)                   0 d,  0 h,  0 min,  0.020 sec
 SCC setup                      ...        0 min,  0.000 sec (  0.787%)
 Dispersion                     ...        0 min,  0.000 sec (  1.796%)
 classical contributions        ...        0 min,  0.000 sec (  0.275%)
 integral evaluation            ...        0 min,  0.001 sec (  7.331%)
 iterations                     ...        0 min,  0.013 sec ( 68.690%)
 molecular gradient             ...        0 min,  0.004 sec ( 20.458%)
 printout                       ...        0 min,  0.000 sec (  0.580%)

         :::::::::::::::::::::::::::::::::::::::::::::::::::::
         ::                     SUMMARY                     ::
         :::::::::::::::::::::::::::::::::::::::::::::::::::::
         :: total energy             -41.585468671493 Eh    ::
         :: gradient norm              0.059302189814 Eh/a0 ::
         :: HOMO-LUMO gap              3.960965985302 eV    ::
         ::.................................................::
         :: SCC energy               -42.215461134886 Eh    ::
         :: -> isotropic ES            0.078548468889 Eh    ::
         :: -> anisotropic ES         -0.005990317096 Eh    ::
         :: -> anisotropic XC          0.029167425611 Eh    ::
         :: -> dispersion             -0.030718247163 Eh    ::
         :: repulsion energy           0.629992463394 Eh    ::
         :: add. restraining           0.000000000000 Eh    ::
         :: total charge               1.000000000000 e     ::
         :::::::::::::::::::::::::::::::::::::::::::::::::::::

      ----------------------------------------------------------- 
     |                   =====================                   |
     |                        A N C O P T                        |
     |                   =====================                   |
     |               Approximate Normal Coordinate               |
     |                Rational Function Optimizer                |
      ----------------------------------------------------------- 
      ----------------------------------------------------------- 
     |                   =====================                   |
     |                        A N C O P T                        |
     |                   =====================                   |
     |               Approximate Normal Coordinate               |
     |                Rational Function Optimizer                |
      ----------------------------------------------------------- 

          ...................................................
          :                      SETUP                      :
          :.................................................:
          :   optimization level            normal          :
          :   max. optcycles                   200          :
          :   ANC micro-cycles                  20          :
          :   degrees of freedom               102          :
          :.................................................:
          :   RF solver                   davidson          :
          :   write xtbopt.log                true          :
          :   linear?                        false          :
          :   energy convergence         0.5000000E-05 Eh   :
          :   grad. convergence          0.1000000E-02 Eh/α :
          :   maxmium RF displ.          1.0000000          :
          :   Hlow (freq-cutoff)         0.1000000E-01      :
          :   Hmax (freq-cutoff)         5.0000000          :
          :   S6 in model hess.         20.0000000          :
          ...................................................

generating ANC from exact Hessian ...
Using Lindh-Hessian (1995)
 Shifting diagonal of input Hessian by    9.5601354902712134E-003
 Lowest  eigenvalues of input Hessian
    0.000000    0.000000    0.000000    0.000000    0.000000    0.000000
    0.010000    0.010212    0.010726    0.011647    0.013992    0.015623
    0.015973    0.016573    0.017475    0.017743    0.018973    0.019071
 Highest eigenvalues
    1.357677    1.487236    1.563142    1.786990    1.859836    1.893282


........................................................................
.............................. CYCLE    1 ..............................
........................................................................

 iter      E             dE          RMSdq      gap      omega  full diag
   1    -42.2158301 -0.422158E+02  0.984E-05    3.96       0.0  T
   2    -42.2158301 -0.274056E-10  0.602E-05    3.96     276.9  T
   3    -42.2158301  0.478195E-11  0.349E-05    3.96     478.0  T
     SCC iter.                  ...        0 min,  0.003 sec
     gradient                   ...        0 min,  0.004 sec
 * total energy  :   -41.5854687 Eh     change       -0.2111449E-09 Eh
   gradient norm :     0.0593022 Eh/α   predicted     0.0000000E+00 (-100.00%)
   displ. norm   :     0.2848749 α      lambda       -0.1032047E-01
   maximum displ.:     0.0887956 α      in ANC's #28, #22, #65, ...

........................................................................
.............................. CYCLE    2 ..............................
........................................................................

 iter      E             dE          RMSdq      gap      omega  full diag
   1    -42.2574591 -0.422575E+02  0.185E-01    4.07       0.0  T
   2    -42.2576208 -0.161695E-03  0.107E-01    4.06       1.0  T
   3    -42.2576231 -0.235843E-05  0.430E-02    4.06       1.0  T
   4    -42.2576240 -0.829297E-06  0.515E-03    4.06       3.2  T
   5    -42.2576244 -0.473123E-06  0.282E-03    4.06       5.9  T
   6    -42.2576245 -0.245182E-07  0.632E-04    4.06      26.4  T
   7    -42.2576245 -0.643079E-08  0.222E-04    4.06      75.1  T
     SCC iter.                  ...        0 min,  0.007 sec
     gradient                   ...        0 min,  0.004 sec
 * total energy  :   -41.5926023 Eh     change       -0.7133643E-02 Eh
   gradient norm :     0.0271932 Eh/α   predicted    -0.5579430E-02 ( -21.79%)
   displ. norm   :     0.2662630 α      lambda       -0.3207297E-02
   maximum displ.:     0.1143451 α      in ANC's #6, #4, #8, ...

........................................................................
.............................. CYCLE    3 ..............................
........................................................................

 iter      E             dE          RMSdq      gap      omega  full diag
   1    -42.2769212 -0.422769E+02  0.111E-01    4.12       0.0  T
   2    -42.2770173 -0.961333E-04  0.657E-02    4.11       1.0  T
   3    -42.2770182 -0.880779E-06  0.319E-02    4.11       1.0  T
   4    -42.2770179  0.268556E-06  0.466E-03    4.11       3.6  T
   5    -42.2770186 -0.723037E-06  0.175E-03    4.11       9.5  T
   6    -42.2770186 -0.692506E-08  0.604E-04    4.11      27.6  T
   7    -42.2770186 -0.612374E-08  0.160E-04    4.11     104.1  T
     SCC iter.                  ...        0 min,  0.007 sec
     gradient                   ...        0 min,  0.004 sec
 * total energy  :   -41.5943540 Eh     change       -0.1751722E-02 Eh
   gradient norm :     0.0053469 Eh/α   predicted    -0.1717838E-02 (  -1.93%)
   displ. norm   :     0.1394706 α      lambda       -0.2982159E-03
   maximum displ.:     0.0745035 α      in ANC's #6, #4, #14, ...

........................................................................
.............................. CYCLE    4 ..............................
........................................................................

 iter      E             dE          RMSdq      gap      omega  full diag
   1    -42.2755669 -0.422756E+02  0.312E-02    4.12       0.0  T
   2    -42.2755687 -0.182729E-05  0.183E-02    4.12       1.0  T
   3    -42.2755681  0.627434E-06  0.643E-03    4.12       2.6  T
   4    -42.2755688 -0.744147E-06  0.186E-03    4.12       8.9  T
   5    -42.2755689 -0.127567E-06  0.417E-04    4.12      40.0  T
   6    -42.2755689 -0.866294E-10  0.193E-04    4.12      86.3  T
     SCC iter.                  ...        0 min,  0.006 sec
     gradient                   ...        0 min,  0.004 sec
 * total energy  :   -41.5945829 Eh     change       -0.2288262E-03 Eh
   gradient norm :     0.0037045 Eh/α   predicted    -0.1520213E-03 ( -33.56%)
   displ. norm   :     0.2413560 α      lambda       -0.3322152E-03
   maximum displ.:     0.1146202 α      in ANC's #6, #4, #14, ...

........................................................................
.............................. CYCLE    5 ..............................
........................................................................

 iter      E             dE          RMSdq      gap      omega  full diag
   1    -42.2727065 -0.422727E+02  0.482E-02    4.13       0.0  T
   2    -42.2727079 -0.134244E-05  0.283E-02    4.13       1.0  T
   3    -42.2727066  0.130716E-05  0.781E-03    4.13       2.1  T
   4    -42.2727082 -0.160339E-05  0.153E-03    4.13      10.9  T
   5    -42.2727082 -0.476524E-07  0.603E-04    4.13      27.7  T
   6    -42.2727082 -0.158309E-09  0.227E-04    4.13      73.3  T
     SCC iter.                  ...        0 min,  0.006 sec
     gradient                   ...        0 min,  0.004 sec
 * total energy  :   -41.5947947 Eh     change       -0.2118084E-03 Eh
   gradient norm :     0.0049273 Eh/α   predicted    -0.1757899E-03 ( -17.01%)
   displ. norm   :     0.1558931 α      lambda       -0.1375428E-03
   maximum displ.:     0.0676012 α      in ANC's #15, #4, #14, ...

........................................................................
.............................. CYCLE    6 ..............................
........................................................................

 iter      E             dE          RMSdq      gap      omega  full diag
   1    -42.2721870 -0.422722E+02  0.323E-02    4.13       0.0  T
   2    -42.2721872 -0.194150E-06  0.192E-02    4.13       1.0  T
   3    -42.2721869  0.262713E-06  0.316E-03    4.13       5.3  T
   4    -42.2721873 -0.329581E-06  0.663E-04    4.13      25.1  T
   5    -42.2721873 -0.479059E-08  0.299E-04    4.13      55.7  T
     SCC iter.                  ...        0 min,  0.005 sec
     gradient                   ...        0 min,  0.004 sec
 * total energy  :   -41.5949051 Eh     change       -0.1104689E-03 Eh
   gradient norm :     0.0047064 Eh/α   predicted    -0.7044338E-04 ( -36.23%)
   displ. norm   :     0.2724066 α      lambda       -0.2400957E-03
   maximum displ.:     0.1429048 α      in ANC's #15, #2, #14, ...

........................................................................
.............................. CYCLE    7 ..............................
........................................................................

 iter      E             dE          RMSdq      gap      omega  full diag
   1    -42.2725479 -0.422725E+02  0.598E-02    4.13       0.0  T
   2    -42.2725488 -0.903008E-06  0.355E-02    4.13       1.0  T
   3    -42.2725484  0.451209E-06  0.423E-03    4.13       3.9  T
   4    -42.2725490 -0.583316E-06  0.133E-03    4.13      12.5  T
   5    -42.2725490 -0.429355E-07  0.533E-04    4.13      31.2  T
   6    -42.2725490 -0.630322E-10  0.201E-04    4.13      83.0  T
     SCC iter.                  ...        0 min,  0.006 sec
     gradient                   ...        0 min,  0.004 sec
 * total energy  :   -41.5950738 Eh     change       -0.1686588E-03 Eh
   gradient norm :     0.0041700 Eh/α   predicted    -0.1289570E-03 ( -23.54%)
   displ. norm   :     0.2066441 α      lambda       -0.1385959E-03
   maximum displ.:     0.1125984 α      in ANC's #15, #2, #5, ...

........................................................................
.............................. CYCLE    8 ..............................
........................................................................

 iter      E             dE          RMSdq      gap      omega  full diag
   1    -42.2737400 -0.422737E+02  0.453E-02    4.13       0.0  T
   2    -42.2737405 -0.542825E-06  0.269E-02    4.13       1.0  T
   3    -42.2737402  0.339673E-06  0.349E-03    4.13       4.8  T
   4    -42.2737406 -0.423490E-06  0.985E-04    4.13      16.9  T
   5    -42.2737406 -0.250056E-07  0.413E-04    4.13      40.4  T
     SCC iter.                  ...        0 min,  0.005 sec
     gradient                   ...        0 min,  0.004 sec
 * total energy  :   -41.5951734 Eh     change       -0.9964218E-04 Eh
   gradient norm :     0.0036611 Eh/α   predicted    -0.7226128E-04 ( -27.48%)
   displ. norm   :     0.1820687 α      lambda       -0.9734049E-04
   maximum displ.:     0.0911130 α      in ANC's #15, #5, #2, ...

........................................................................
.............................. CYCLE    9 ..............................
........................................................................

 iter      E             dE          RMSdq      gap      omega  full diag
   1    -42.2749308 -0.422749E+02  0.371E-02    4.12       0.0  T
   2    -42.2749311 -0.284233E-06  0.220E-02    4.12       1.0  T
   3    -42.2749309  0.209805E-06  0.283E-03    4.12       5.9  T
   4    -42.2749311 -0.266982E-06  0.758E-04    4.12      22.0  T
   5    -42.2749312 -0.113629E-07  0.347E-04    4.12      48.0  T
     SCC iter.                  ...        0 min,  0.005 sec
     gradient                   ...        0 min,  0.004 sec
 * total energy  :   -41.5952454 Eh     change       -0.7198792E-04 Eh
   gradient norm :     0.0029254 Eh/α   predicted    -0.5029512E-04 ( -30.13%)
   displ. norm   :     0.1979087 α      lambda       -0.8623787E-04
   maximum displ.:     0.1060165 α      in ANC's #5, #2, #15, ...

........................................................................
.............................. CYCLE   10 ..............................
........................................................................

 iter      E             dE          RMSdq      gap      omega  full diag
   1    -42.2753216 -0.422753E+02  0.367E-02    4.12       0.0  T
   2    -42.2753217 -0.153054E-06  0.219E-02    4.12       1.0  T
   3    -42.2753216  0.746548E-07  0.193E-03    4.12       8.6  T
   4    -42.2753217 -0.115158E-06  0.649E-04    4.12      25.7  T
   5    -42.2753218 -0.573311E-08  0.309E-04    4.12      53.9  T
     SCC iter.                  ...        0 min,  0.005 sec
     gradient                   ...        0 min,  0.004 sec
 * total energy  :   -41.5953113 Eh     change       -0.6583234E-04 Eh
   gradient norm :     0.0029440 Eh/α   predicted    -0.4480905E-04 ( -31.93%)
   displ. norm   :     0.2244788 α      lambda       -0.9969209E-04
   maximum displ.:     0.1224673 α      in ANC's #5, #2, #15, ...

........................................................................
.............................. CYCLE   11 ..............................
........................................................................

 iter      E             dE          RMSdq      gap      omega  full diag
   1    -42.2759360 -0.422759E+02  0.397E-02    4.12       0.0  T
   2    -42.2759361 -0.140322E-06  0.237E-02    4.12       1.0  T
   3    -42.2759361  0.401746E-07  0.168E-03    4.12       9.9  T
   4    -42.2759361 -0.838038E-07  0.715E-04    4.12      23.3  T
   5    -42.2759361 -0.668935E-08  0.307E-04    4.12      54.2  T
     SCC iter.                  ...        0 min,  0.005 sec
     gradient                   ...        0 min,  0.004 sec
 * total energy  :   -41.5953850 Eh     change       -0.7373101E-04 Eh
   gradient norm :     0.0032475 Eh/α   predicted    -0.5235905E-04 ( -28.99%)
   displ. norm   :     0.2817187 α      lambda       -0.9586193E-04
   maximum displ.:     0.1358902 α      in ANC's #5, #2, #15, ...

........................................................................
.............................. CYCLE   12 ..............................
........................................................................

 iter      E             dE          RMSdq      gap      omega  full diag
   1    -42.2736585 -0.422737E+02  0.498E-02    4.12       0.0  T
   2    -42.2736592 -0.675484E-06  0.297E-02    4.12       1.0  T
   3    -42.2736592  0.447297E-08  0.234E-03    4.12       7.1  T
   4    -42.2736593 -0.867800E-07  0.105E-03    4.12      15.9  T
   5    -42.2736593 -0.182232E-07  0.513E-04    4.12      32.5  T
   6    -42.2736593 -0.206300E-08  0.130E-04    4.12     128.5  T
     SCC iter.                  ...        0 min,  0.006 sec
     gradient                   ...        0 min,  0.004 sec
 * total energy  :   -41.5954366 Eh     change       -0.5165501E-04 Eh
   gradient norm :     0.0045998 Eh/α   predicted    -0.5175264E-04 (   0.19%)
   displ. norm   :     0.2072939 α      lambda       -0.1449636E-03
   maximum displ.:     0.1121650 α      in ANC's #4, #14, #5, ...

........................................................................
.............................. CYCLE   13 ..............................
........................................................................

 iter      E             dE          RMSdq      gap      omega  full diag
   1    -42.2762797 -0.422763E+02  0.425E-02    4.12       0.0  T
   2    -42.2762817 -0.196998E-05  0.247E-02    4.12       1.0  T
   3    -42.2762817 -0.439712E-08  0.422E-03    4.12       3.9  T
   4    -42.2762818 -0.111453E-06  0.132E-03    4.12      12.6  T
   5    -42.2762819 -0.394057E-07  0.644E-04    4.12      25.9  T
   6    -42.2762819 -0.415416E-08  0.229E-04    4.12      72.7  T
     SCC iter.                  ...        0 min,  0.006 sec
     gradient                   ...        0 min,  0.005 sec
 * total energy  :   -41.5954683 Eh     change       -0.3165400E-04 Eh
   gradient norm :     0.0043499 Eh/α   predicted    -0.7559740E-04 ( 138.82%)
   displ. norm   :     0.0704354 α      lambda       -0.5998187E-04
   maximum displ.:     0.0444338 α      in ANC's #15, #10, #6, ...

........................................................................
.............................. CYCLE   14 ..............................
........................................................................

 iter      E             dE          RMSdq      gap      omega  full diag
   1    -42.2748845 -0.422749E+02  0.191E-02    4.12       0.0  T
   2    -42.2748850 -0.491395E-06  0.110E-02    4.12       1.5  T
   3    -42.2748850 -0.103946E-07  0.227E-03    4.12       7.3  T
   4    -42.2748850 -0.238770E-07  0.782E-04    4.12      21.3  T
   5    -42.2748850 -0.819644E-08  0.335E-04    4.12      49.8  T
     SCC iter.                  ...        0 min,  0.005 sec
     gradient                   ...        0 min,  0.004 sec
 * total energy  :   -41.5955041 Eh     change       -0.3580130E-04 Eh
   gradient norm :     0.0020149 Eh/α   predicted    -0.3014007E-04 ( -15.81%)
   displ. norm   :     0.0547315 α      lambda       -0.2475954E-04
   maximum displ.:     0.0344056 α      in ANC's #4, #5, #2, ...

........................................................................
.............................. CYCLE   15 ..............................
........................................................................

 iter      E             dE          RMSdq      gap      omega  full diag
   1    -42.2751826 -0.422752E+02  0.132E-02    4.12       0.0  T
   2    -42.2751827 -0.902972E-07  0.767E-03    4.12       2.2  T
   3    -42.2751827  0.499993E-07  0.156E-03    4.12      10.7  T
   4    -42.2751827 -0.630231E-07  0.405E-04    4.12      41.2  T
   5    -42.2751827 -0.379134E-08  0.153E-04    4.12     108.8  T
     SCC iter.                  ...        0 min,  0.005 sec
     gradient                   ...        0 min,  0.004 sec
 * total energy  :   -41.5955206 Eh     change       -0.1649861E-04 Eh
   gradient norm :     0.0012855 Eh/α   predicted    -0.1242211E-04 ( -24.71%)
   displ. norm   :     0.1259132 α      lambda       -0.2940010E-04
   maximum displ.:     0.0645136 α      in ANC's #10, #15, #14, ...

........................................................................
.............................. CYCLE   16 ..............................
........................................................................

 iter      E             dE          RMSdq      gap      omega  full diag
   1    -42.2748858 -0.422749E+02  0.288E-02    4.13       0.0  T
   2    -42.2748861 -0.306759E-06  0.170E-02    4.13       1.0  T
   3    -42.2748859  0.123545E-06  0.280E-03    4.13       5.9  T
   4    -42.2748861 -0.170230E-06  0.859E-04    4.13      19.4  T
   5    -42.2748861 -0.117712E-07  0.341E-04    4.13      48.9  T
     SCC iter.                  ...        0 min,  0.005 sec
     gradient                   ...        0 min,  0.004 sec
 * total energy  :   -41.5955385 Eh     change       -0.1792327E-04 Eh
   gradient norm :     0.0035176 Eh/α   predicted    -0.1480731E-04 ( -17.38%)
   displ. norm   :     0.0419072 α      lambda       -0.2294436E-04
   maximum displ.:     0.0250570 α      in ANC's #14, #2, #1, ...

........................................................................
.............................. CYCLE   17 ..............................
........................................................................

 iter      E             dE          RMSdq      gap      omega  full diag
   1    -42.2753743 -0.422754E+02  0.905E-03    4.13       0.0  T
   2    -42.2753744 -0.126298E-06  0.523E-03    4.13       3.2  T
   3    -42.2753744 -0.646104E-08  0.109E-03    4.13      15.3  T
   4    -42.2753744 -0.289053E-08  0.278E-04    4.13      60.0  T
   5    -42.2753744 -0.415106E-09  0.174E-04    4.13      95.9  T
     SCC iter.                  ...        0 min,  0.005 sec
     gradient                   ...        0 min,  0.004 sec
 * total energy  :   -41.5955550 Eh     change       -0.1643125E-04 Eh
   gradient norm :     0.0021300 Eh/α   predicted    -0.1149614E-04 ( -30.03%)
   displ. norm   :     0.0790405 α      lambda       -0.2825845E-04
   maximum displ.:     0.0341974 α      in ANC's #1, #5, #14, ...

........................................................................
.............................. CYCLE   18 ..............................
........................................................................

 iter      E             dE          RMSdq      gap      omega  full diag
   1    -42.2755329 -0.422755E+02  0.150E-02    4.13       0.0  T
   2    -42.2755330 -0.821609E-07  0.888E-03    4.13       1.9  T
   3    -42.2755330  0.542700E-08  0.970E-04    4.13      17.2  T
   4    -42.2755330 -0.149206E-07  0.438E-04    4.13      38.0  T
     SCC iter.                  ...        0 min,  0.008 sec
     gradient                   ...        0 min,  0.004 sec
 * total energy  :   -41.5955761 Eh     change       -0.2118406E-04 Eh
   gradient norm :     0.0010531 Eh/α   predicted    -0.1422011E-04 ( -32.87%)
   displ. norm   :     0.2345836 α      lambda       -0.3441128E-04
   maximum displ.:     0.1061133 α      in ANC's #5, #1, #10, ...

........................................................................
.............................. CYCLE   19 ..............................
........................................................................

 iter      E             dE          RMSdq      gap      omega  full diag
   1    -42.2741971 -0.422742E+02  0.416E-02    4.13       0.0  T
   2    -42.2741975 -0.431925E-06  0.249E-02    4.13       1.0  T
   3    -42.2741974  0.112804E-06  0.274E-03    4.13       6.1  T
   4    -42.2741976 -0.183367E-06  0.106E-03    4.13      15.7  T
   5    -42.2741976 -0.222795E-07  0.429E-04    4.13      38.9  T
   6    -42.2741976 -0.109858E-08  0.118E-04    4.13     141.6  T
     SCC iter.                  ...        0 min,  0.006 sec
     gradient                   ...        0 min,  0.004 sec
 * total energy  :   -41.5956031 Eh     change       -0.2691673E-04 Eh
   gradient norm :     0.0032065 Eh/α   predicted    -0.1762760E-04 ( -34.51%)
   displ. norm   :     0.0711902 α      lambda       -0.2534926E-04
   maximum displ.:     0.0491452 α      in ANC's #2, #4, #11, ...

........................................................................
.............................. CYCLE   20 ..............................
........................................................................

 iter      E             dE          RMSdq      gap      omega  full diag
   1    -42.2750923 -0.422751E+02  0.126E-02    4.13       0.0  T
   2    -42.2750924 -0.125337E-06  0.735E-03    4.13       2.3  T
   3    -42.2750924  0.272360E-07  0.133E-03    4.13      12.6  T
   4    -42.2750925 -0.333016E-07  0.480E-04    4.13      34.7  T
   5    -42.2750925 -0.817793E-08  0.172E-04    4.13      96.9  T
     SCC iter.                  ...        0 min,  0.005 sec
     gradient                   ...        0 min,  0.004 sec
 * total energy  :   -41.5956214 Eh     change       -0.1833590E-04 Eh
   gradient norm :     0.0027227 Eh/α   predicted    -0.1274011E-04 ( -30.52%)
   displ. norm   :     0.1548925 α      lambda       -0.4130268E-04
   maximum displ.:     0.0835930 α      in ANC's #2, #10, #1, ...
 * RMSD in coord.:     0.3743916 α      energy gain  -0.1015272E-01 Eh

generating ANC from exact Hessian ...
Using Lindh-Hessian (1995)
 Shifting diagonal of input Hessian by    9.4709024157620669E-003
 Lowest  eigenvalues of input Hessian
    0.000000    0.000000    0.000000    0.000000    0.000000    0.000000
    0.010000    0.010220    0.010809    0.011884    0.014464    0.016356
    0.017020    0.017957    0.018312    0.018488    0.019949    0.021176
 Highest eigenvalues
    1.459175    1.558651    1.627077    1.870522    1.936196    2.004588


........................................................................
.............................. CYCLE   21 ..............................
........................................................................

 iter      E             dE          RMSdq      gap      omega  full diag
   1    -42.2752382 -0.422752E+02  0.248E-02    4.13       0.0  T
   2    -42.2752383 -0.136606E-06  0.148E-02    4.13       1.1  T
   3    -42.2752381  0.199704E-06  0.237E-03    4.13       7.0  T
   4    -42.2752384 -0.245256E-06  0.607E-04    4.13      27.5  T
   5    -42.2752384 -0.491126E-08  0.249E-04    4.13      67.0  T
     SCC iter.                  ...        0 min,  0.005 sec
     gradient                   ...        0 min,  0.004 sec
 * total energy  :   -41.5956525 Eh     change       -0.3110634E-04 Eh
   gradient norm :     0.0020711 Eh/α   predicted     0.0000000E+00 (-100.00%)
   displ. norm   :     0.0217772 α      lambda       -0.1455302E-04
   maximum displ.:     0.0112355 α      in ANC's #9, #10, #15, ...

........................................................................
.............................. CYCLE   22 ..............................
........................................................................

 iter      E             dE          RMSdq      gap      omega  full diag
   1    -42.2755169 -0.422755E+02  0.625E-03    4.13       0.0  T
   2    -42.2755169 -0.447369E-07  0.362E-03    4.13       4.6  T
   3    -42.2755169  0.673559E-08  0.805E-04    4.13      20.7  T
   4    -42.2755169 -0.107910E-07  0.268E-04    4.13      62.2  T
     SCC iter.                  ...        0 min,  0.004 sec
     gradient                   ...        0 min,  0.004 sec
 * total energy  :   -41.5956645 Eh     change       -0.1197245E-04 Eh
   gradient norm :     0.0010360 Eh/α   predicted    -0.7321535E-05 ( -38.85%)
   displ. norm   :     0.1026542 α      lambda       -0.2797787E-04
   maximum displ.:     0.0569389 α      in ANC's #9, #10, #15, ...

........................................................................
.............................. CYCLE   23 ..............................
........................................................................

 iter      E             dE          RMSdq      gap      omega  full diag
   1    -42.2758633 -0.422759E+02  0.224E-02    4.14       0.0  T
   2    -42.2758636 -0.331230E-06  0.132E-02    4.14       1.3  T
   3    -42.2758635  0.151084E-06  0.270E-03    4.14       6.2  T
   4    -42.2758637 -0.194176E-06  0.781E-04    4.14      21.3  T
   5    -42.2758637 -0.165160E-07  0.310E-04    4.14      53.7  T
     SCC iter.                  ...        0 min,  0.005 sec
     gradient                   ...        0 min,  0.004 sec
 * total energy  :   -41.5956863 Eh     change       -0.2179483E-04 Eh
   gradient norm :     0.0020637 Eh/α   predicted    -0.1405485E-04 ( -35.51%)
   displ. norm   :     0.0361940 α      lambda       -0.1014673E-04
   maximum displ.:     0.0231520 α      in ANC's #10, #9, #5, ...

........................................................................
.............................. CYCLE   24 ..............................
........................................................................

 iter      E             dE          RMSdq      gap      omega  full diag
   1    -42.2757306 -0.422757E+02  0.693E-03    4.14       0.0  T
   2    -42.2757306 -0.188453E-07  0.414E-03    4.14       4.0  T
   3    -42.2757306  0.458135E-08  0.569E-04    4.14      29.3  T
   4    -42.2757306 -0.728895E-08  0.201E-04    4.14      83.0  T
     SCC iter.                  ...        0 min,  0.004 sec
     gradient                   ...        0 min,  0.004 sec
 * total energy  :   -41.5956958 Eh     change       -0.9551561E-05 Eh
   gradient norm :     0.0017160 Eh/α   predicted    -0.5274302E-05 ( -44.78%)
   displ. norm   :     0.2874341 α      lambda       -0.4823757E-04
   maximum displ.:     0.1889833 α      in ANC's #10, #9, #5, ...

........................................................................
.............................. CYCLE   25 ..............................
........................................................................

 iter      E             dE          RMSdq      gap      omega  full diag
   1    -42.2735242 -0.422735E+02  0.543E-02    4.14       0.0  T
   2    -42.2735262 -0.199650E-05  0.322E-02    4.14       1.0  T
   3    -42.2735261  0.492233E-07  0.448E-03    4.14       3.7  T
   4    -42.2735264 -0.221664E-06  0.168E-03    4.14       9.9  T
   5    -42.2735264 -0.622848E-07  0.809E-04    4.14      20.6  T
   6    -42.2735264 -0.612841E-08  0.211E-04    4.14      79.0  T
     SCC iter.                  ...        0 min,  0.006 sec
     gradient                   ...        0 min,  0.004 sec
 * total energy  :   -41.5956873 Eh     change        0.8506522E-05 Eh
   gradient norm :     0.0057200 Eh/α   predicted    -0.2509057E-04 (-394.96%)
   displ. norm   :     0.1073981 α      lambda       -0.7060052E-04
   maximum displ.:     0.0690190 α      in ANC's #10, #9, #5, ...

........................................................................
.............................. CYCLE   26 ..............................
........................................................................

 iter      E             dE          RMSdq      gap      omega  full diag
   1    -42.2750642 -0.422751E+02  0.226E-02    4.14       0.0  T
   2    -42.2750649 -0.689380E-06  0.131E-02    4.14       1.3  T
   3    -42.2750648  0.184070E-07  0.285E-03    4.14       5.8  T
   4    -42.2750649 -0.595793E-07  0.889E-04    4.14      18.7  T
   5    -42.2750649 -0.201255E-07  0.407E-04    4.14      41.0  T
     SCC iter.                  ...        0 min,  0.005 sec
     gradient                   ...        0 min,  0.004 sec
 * total energy  :   -41.5957247 Eh     change       -0.3734002E-04 Eh
   gradient norm :     0.0019300 Eh/α   predicted    -0.3570779E-04 (  -4.37%)
   displ. norm   :     0.0238110 α      lambda       -0.8884429E-05
   maximum displ.:     0.0121567 α      in ANC's #4, #15, #10, ...

........................................................................
.............................. CYCLE   27 ..............................
........................................................................

 iter      E             dE          RMSdq      gap      omega  full diag
   1    -42.2754476 -0.422754E+02  0.694E-03    4.14       0.0  T
   2    -42.2754477 -0.572425E-07  0.399E-03    4.14       4.2  T
   3    -42.2754477  0.342472E-08  0.906E-04    4.14      18.4  T
   4    -42.2754477 -0.775671E-08  0.280E-04    4.14      59.5  T
     SCC iter.                  ...        0 min,  0.004 sec
     gradient                   ...        0 min,  0.004 sec
 * total energy  :   -41.5957350 Eh     change       -0.1030252E-04 Eh
   gradient norm :     0.0006866 Eh/α   predicted    -0.4444886E-05 ( -56.86%)
   displ. norm   :     0.1091865 α      lambda       -0.1641831E-04
   maximum displ.:     0.0689719 α      in ANC's #10, #9, #4, ...

........................................................................
.............................. CYCLE   28 ..............................
........................................................................

 iter      E             dE          RMSdq      gap      omega  full diag
   1    -42.2756655 -0.422757E+02  0.206E-02    4.14       0.0  T
   2    -42.2756656 -0.916785E-07  0.123E-02    4.14       1.4  T
   3    -42.2756656  0.118533E-07  0.119E-03    4.14      14.0  T
   4    -42.2756656 -0.302662E-07  0.484E-04    4.14      34.4  T
   5    -42.2756656 -0.319262E-08  0.204E-04    4.14      81.8  T
     SCC iter.                  ...        0 min,  0.005 sec
     gradient                   ...        0 min,  0.004 sec
 * total energy  :   -41.5957546 Eh     change       -0.1959942E-04 Eh
   gradient norm :     0.0007373 Eh/α   predicted    -0.8252736E-05 ( -57.89%)
   displ. norm   :     0.2970290 α      lambda       -0.3094147E-04
   maximum displ.:     0.1977881 α      in ANC's #10, #9, #4, ...

........................................................................
.............................. CYCLE   29 ..............................
........................................................................

 iter      E             dE          RMSdq      gap      omega  full diag
   1    -42.2741096 -0.422741E+02  0.536E-02    4.14       0.0  T
   2    -42.2741107 -0.116239E-05  0.320E-02    4.14       1.0  T
   3    -42.2741108 -0.939912E-07  0.295E-03    4.14       5.7  T
   4    -42.2741109 -0.654968E-07  0.118E-03    4.14      14.1  T
   5    -42.2741109 -0.698941E-08  0.651E-04    4.14      25.6  T
   6    -42.2741109 -0.592590E-08  0.152E-04    4.14     109.8  T
     SCC iter.                  ...        0 min,  0.006 sec
     gradient                   ...        0 min,  0.004 sec
 * total energy  :   -41.5957690 Eh     change       -0.1445334E-04 Eh
   gradient norm :     0.0043039 Eh/α   predicted    -0.1607792E-04 (  11.24%)
   displ. norm   :     0.0511225 α      lambda       -0.2966700E-04
   maximum displ.:     0.0332430 α      in ANC's #9, #10, #5, ...

........................................................................
.............................. CYCLE   30 ..............................
........................................................................

 iter      E             dE          RMSdq      gap      omega  full diag
   1    -42.2751760 -0.422752E+02  0.121E-02    4.14       0.0  T
   2    -42.2751763 -0.308978E-06  0.689E-03    4.14       2.4  T
   3    -42.2751763 -0.288266E-08  0.190E-03    4.14       8.8  T
   4    -42.2751763 -0.135869E-07  0.544E-04    4.14      30.6  T
   5    -42.2751763 -0.618293E-08  0.271E-04    4.14      61.5  T
     SCC iter.                  ...        0 min,  0.005 sec
     gradient                   ...        0 min,  0.004 sec
 * total energy  :   -41.5957867 Eh     change       -0.1765397E-04 Eh
   gradient norm :     0.0016688 Eh/α   predicted    -0.1488565E-04 ( -15.68%)
   displ. norm   :     0.0957053 α      lambda       -0.1398420E-04
   maximum displ.:     0.0583881 α      in ANC's #10, #4, #9, ...

........................................................................
.............................. CYCLE   31 ..............................
........................................................................

 iter      E             dE          RMSdq      gap      omega  full diag
   1    -42.2756555 -0.422757E+02  0.174E-02    4.15       0.0  T
   2    -42.2756556 -0.122529E-06  0.104E-02    4.15       1.6  T
   3    -42.2756556  0.160888E-07  0.127E-03    4.15      13.1  T
   4    -42.2756556 -0.301126E-07  0.513E-04    4.15      32.5  T
   5    -42.2756556 -0.550040E-08  0.218E-04    4.15      76.6  T
     SCC iter.                  ...        0 min,  0.005 sec
     gradient                   ...        0 min,  0.004 sec
 * total energy  :   -41.5958024 Eh     change       -0.1570083E-04 Eh
   gradient norm :     0.0008762 Eh/α   predicted    -0.7028729E-05 ( -55.23%)
   displ. norm   :     0.2675907 α      lambda       -0.2533057E-04
   maximum displ.:     0.1749995 α      in ANC's #10, #9, #4, ...

........................................................................
.............................. CYCLE   32 ..............................
........................................................................

 iter      E             dE          RMSdq      gap      omega  full diag
   1    -42.2745115 -0.422745E+02  0.470E-02    4.15       0.0  T
   2    -42.2745123 -0.797738E-06  0.281E-02    4.15       1.0  T
   3    -42.2745123  0.303253E-09  0.273E-03    4.15       6.1  T
   4    -42.2745124 -0.107859E-06  0.119E-03    4.15      14.0  T
   5    -42.2745125 -0.207853E-07  0.582E-04    4.15      28.6  T
   6    -42.2745125 -0.401572E-08  0.148E-04    4.15     112.8  T
     SCC iter.                  ...        0 min,  0.006 sec
     gradient                   ...        0 min,  0.004 sec
 * total energy  :   -41.5958197 Eh     change       -0.1732363E-04 Eh
   gradient norm :     0.0037352 Eh/α   predicted    -0.1305481E-04 ( -24.64%)
   displ. norm   :     0.0329866 α      lambda       -0.2279114E-04
   maximum displ.:     0.0143159 α      in ANC's #9, #1, #2, ...

........................................................................
.............................. CYCLE   33 ..............................
........................................................................

 iter      E             dE          RMSdq      gap      omega  full diag
   1    -42.2753147 -0.422753E+02  0.845E-03    4.15       0.0  T
   2    -42.2753149 -0.153070E-06  0.474E-03    4.15       3.5  T
   3    -42.2753149  0.156408E-08  0.135E-03    4.15      12.4  T
   4    -42.2753149 -0.802700E-08  0.429E-04    4.15      38.8  T
   5    -42.2753149 -0.590255E-08  0.191E-04    4.15      87.4  T
     SCC iter.                  ...        0 min,  0.054 sec
     gradient                   ...        0 min,  0.014 sec
 * total energy  :   -41.5958357 Eh     change       -0.1604324E-04 Eh
   gradient norm :     0.0020636 Eh/α   predicted    -0.1141848E-04 ( -28.83%)
   displ. norm   :     0.1162358 α      lambda       -0.2334813E-04
   maximum displ.:     0.0638929 α      in ANC's #10, #1, #5, ...

........................................................................
.............................. CYCLE   34 ..............................
........................................................................

 iter      E             dE          RMSdq      gap      omega  full diag
   1    -42.2756139 -0.422756E+02  0.202E-02    4.16       0.0  T
   2    -42.2756140 -0.742676E-07  0.121E-02    4.16       1.4  T
   3    -42.2756139  0.405469E-07  0.132E-03    4.16      12.6  T
   4    -42.2756140 -0.587878E-07  0.475E-04    4.16      35.1  T
   5    -42.2756140 -0.383792E-08  0.200E-04    4.16      83.2  T
     SCC iter.                  ...        0 min,  0.013 sec
     gradient                   ...        0 min,  0.010 sec
 * total energy  :   -41.5958543 Eh     change       -0.1860576E-04 Eh
   gradient norm :     0.0017999 Eh/α   predicted    -0.1185437E-04 ( -36.29%)
   displ. norm   :     0.3949459 α      lambda       -0.3809549E-04
   maximum displ.:     0.2330230 α      in ANC's #10, #1, #5, ...

........................................................................
.............................. CYCLE   35 ..............................
........................................................................

 iter      E             dE          RMSdq      gap      omega  full diag
   1    -42.2735073 -0.422735E+02  0.700E-02    4.16       0.0  T
   2    -42.2735087 -0.147177E-05  0.416E-02    4.16       1.0  T
   3    -42.2735085  0.247302E-06  0.472E-03    4.16       3.5  T
   4    -42.2735090 -0.463957E-06  0.182E-03    4.16       9.1  T
   5    -42.2735090 -0.569614E-07  0.798E-04    4.16      20.9  T
   6    -42.2735090 -0.336733E-08  0.237E-04    4.16      70.3  T
     SCC iter.                  ...        0 min,  0.015 sec
     gradient                   ...        0 min,  0.010 sec
 * total energy  :   -41.5958646 Eh     change       -0.1027404E-04 Eh
   gradient norm :     0.0051400 Eh/α   predicted    -0.2048490E-04 (  99.39%)
   displ. norm   :     0.0823887 α      lambda       -0.6107581E-04
   maximum displ.:     0.0505517 α      in ANC's #10, #9, #4, ...

........................................................................
.............................. CYCLE   36 ..............................
........................................................................

 iter      E             dE          RMSdq      gap      omega  full diag
   1    -42.2754412 -0.422754E+02  0.197E-02    4.15       0.0  T
   2    -42.2754420 -0.811066E-06  0.112E-02    4.15       1.5  T
   3    -42.2754420 -0.239979E-09  0.313E-03    4.15       5.3  T
   4    -42.2754420 -0.437969E-07  0.886E-04    4.15      18.8  T
   5    -42.2754420 -0.173086E-07  0.411E-04    4.15      40.5  T
     SCC iter.                  ...        0 min,  0.013 sec
     gradient                   ...        0 min,  0.010 sec
 * total energy  :   -41.5958928 Eh     change       -0.2824086E-04 Eh
   gradient norm :     0.0008532 Eh/α   predicted    -0.3061903E-04 (   8.42%)
   displ. norm   :     0.0656670 α      lambda       -0.7971671E-05
   maximum displ.:     0.0361910 α      in ANC's #1, #10, #2, ...

........................................................................
.............................. CYCLE   37 ..............................
........................................................................

 iter      E             dE          RMSdq      gap      omega  full diag
   1    -42.2756089 -0.422756E+02  0.130E-02    4.15       0.0  T
   2    -42.2756090 -0.310951E-07  0.774E-03    4.15       2.2  T
   3    -42.2756089  0.196436E-07  0.839E-04    4.15      19.9  T
   4    -42.2756090 -0.259424E-07  0.289E-04    4.15      57.7  T
     SCC iter.                  ...        0 min,  0.010 sec
     gradient                   ...        0 min,  0.010 sec
 * total energy  :   -41.5959034 Eh     change       -0.1052637E-04 Eh
   gradient norm :     0.0008530 Eh/α   predicted    -0.4037478E-05 ( -61.64%)
   displ. norm   :     0.2799178 α      lambda       -0.5709829E-04
   maximum displ.:     0.1573144 α      in ANC's #1, #10, #2, ...

........................................................................
.............................. CYCLE   38 ..............................
........................................................................

 iter      E             dE          RMSdq      gap      omega  full diag
   1    -42.2749642 -0.422750E+02  0.549E-02    4.16       0.0  T
   2    -42.2749648 -0.579457E-06  0.325E-02    4.16       1.0  T
   3    -42.2749645  0.310472E-06  0.347E-03    4.16       4.8  T
   4    -42.2749649 -0.424774E-06  0.122E-03    4.16      13.7  T
   5    -42.2749649 -0.316471E-07  0.516E-04    4.16      32.3  T
   6    -42.2749649 -0.931294E-09  0.147E-04    4.16     113.5  T
     SCC iter.                  ...        0 min,  0.016 sec
     gradient                   ...        0 min,  0.024 sec
 * total energy  :   -41.5959220 Eh     change       -0.1862615E-04 Eh
   gradient norm :     0.0033943 Eh/α   predicted    -0.1514095E-04 ( -18.71%)
   displ. norm   :     0.0410842 α      lambda       -0.5245816E-04
   maximum displ.:     0.0195876 α      in ANC's #3, #13, #10, ...

........................................................................
.............................. CYCLE   39 ..............................
........................................................................

 iter      E             dE          RMSdq      gap      omega  full diag
   1    -42.2758547 -0.422759E+02  0.932E-03    4.16       0.0  T
   2    -42.2758549 -0.179119E-06  0.529E-03    4.16       3.2  T
   3    -42.2758549  0.304988E-08  0.149E-03    4.16      11.2  T
   4    -42.2758549 -0.118286E-07  0.461E-04    4.16      36.1  T
   5    -42.2758549 -0.543847E-08  0.201E-04    4.16      82.9  T
     SCC iter.                  ...        0 min,  0.024 sec
     gradient                   ...        0 min,  0.016 sec
 * total energy  :   -41.5959338 Eh     change       -0.1183531E-04 Eh
   gradient norm :     0.0017333 Eh/α   predicted    -0.9574804E-05 ( -19.10%)
   displ. norm   :     0.0699612 α      lambda       -0.3553218E-04
   maximum displ.:     0.0430971 α      in ANC's #1, #2, #13, ...

........................................................................
.............................. CYCLE   40 ..............................
........................................................................

 iter      E             dE          RMSdq      gap      omega  full diag
   1    -42.2761158 -0.422761E+02  0.136E-02    4.16       0.0  T
   2    -42.2761159 -0.731845E-07  0.806E-03    4.16       2.1  T
   3    -42.2761159  0.180882E-07  0.948E-04    4.16      17.6  T
   4    -42.2761159 -0.226509E-07  0.386E-04    4.16      43.2  T
     SCC iter.                  ...        0 min,  0.020 sec
     gradient                   ...        0 min,  0.009 sec
 * total energy  :   -41.5959447 Eh     change       -0.1090661E-04 Eh
   gradient norm :     0.0008926 Eh/α   predicted    -0.4791787E-05 ( -56.07%)
   displ. norm   :     0.0932588 α      lambda       -0.7029540E-04
   maximum displ.:     0.0469582 α      in ANC's #1, #13, #5, ...

........................................................................
.............................. CYCLE   41 ..............................
........................................................................

 iter      E             dE          RMSdq      gap      omega  full diag
   1    -42.2759624 -0.422760E+02  0.173E-02    4.16       0.0  T
   2    -42.2759625 -0.165986E-06  0.103E-02    4.16       1.6  T
   3    -42.2759625 -0.156739E-09  0.102E-03    4.16      16.3  T
   4    -42.2759626 -0.954467E-08  0.325E-04    4.16      51.3  T
   5    -42.2759626 -0.159728E-08  0.163E-04    4.16     102.4  T
     SCC iter.                  ...        0 min,  0.007 sec
     gradient                   ...        0 min,  0.009 sec
 * total energy  :   -41.5959593 Eh     change       -0.1455358E-04 Eh
   gradient norm :     0.0009235 Eh/α   predicted    -0.7501017E-05 ( -48.46%)
   displ. norm   :     0.1701446 α      lambda       -0.6602169E-04
   maximum displ.:     0.1057265 α      in ANC's #1, #5, #10, ...

........................................................................
.............................. CYCLE   42 ..............................
........................................................................

 iter      E             dE          RMSdq      gap      omega  full diag
   1    -42.2750353 -0.422750E+02  0.311E-02    4.17       0.0  T
   2    -42.2750356 -0.226936E-06  0.184E-02    4.17       1.0  T
   3    -42.2750356  0.193595E-07  0.170E-03    4.17       9.8  T
   4    -42.2750356 -0.512259E-07  0.673E-04    4.17      24.8  T
   5    -42.2750356 -0.671538E-08  0.313E-04    4.17      53.3  T
     SCC iter.                  ...        0 min,  0.007 sec
     gradient                   ...        0 min,  0.006 sec
 * total energy  :   -41.5959676 Eh     change       -0.8345118E-05 Eh
   gradient norm :     0.0020867 Eh/α   predicted    -0.5978016E-05 ( -28.37%)
   displ. norm   :     0.0738268 α      lambda       -0.6786005E-06
   maximum displ.:     0.0486590 α      in ANC's #1, #5, #10, ...
 * RMSD in coord.:     0.3202941 α      energy gain  -0.3462494E-03 Eh

generating ANC from exact Hessian ...
Using Lindh-Hessian (1995)
 Shifting diagonal of input Hessian by    9.4628125463992550E-003
 Lowest  eigenvalues of input Hessian
    0.000000    0.000000    0.000000    0.000000    0.000000    0.000000
    0.010000    0.010207    0.010782    0.011861    0.014488    0.016380
    0.016595    0.017927    0.018292    0.018459    0.019929    0.021200
 Highest eigenvalues
    1.459163    1.555488    1.629439    1.870408    1.937541    2.003639


........................................................................
.............................. CYCLE   43 ..............................
........................................................................

 iter      E             dE          RMSdq      gap      omega  full diag
   1    -42.2751079 -0.422751E+02  0.133E-02    4.17       0.0  T
   2    -42.2751079 -0.217279E-07  0.792E-03    4.17       2.1  T
   3    -42.2751079  0.198279E-08  0.601E-04    4.17      27.7  T
   4    -42.2751079 -0.661002E-08  0.245E-04    4.17      68.0  T
     SCC iter.                  ...        0 min,  0.006 sec
     gradient                   ...        0 min,  0.008 sec
 * total energy  :   -41.5959716 Eh     change       -0.3967156E-05 Eh
   gradient norm :     0.0018974 Eh/α   predicted     0.0000000E+00 (-100.00%)
   displ. norm   :     0.0198183 α      lambda       -0.9398585E-05
   maximum displ.:     0.0104895 α      in ANC's #2, #9, #14, ...

........................................................................
.............................. CYCLE   44 ..............................
........................................................................

 iter      E             dE          RMSdq      gap      omega  full diag
   1    -42.2761701 -0.422762E+02  0.811E-03    4.17       0.0  T
   2    -42.2761702 -0.160660E-06  0.455E-03    4.17       3.7  T
   3    -42.2761702 -0.600411E-08  0.130E-03    4.17      12.9  T
   4    -42.2761702 -0.382120E-08  0.353E-04    4.17      47.2  T
   5    -42.2761702 -0.185128E-08  0.183E-04    4.17      91.1  T
     SCC iter.                  ...        0 min,  0.007 sec
     gradient                   ...        0 min,  0.007 sec
 * total energy  :   -41.5959788 Eh     change       -0.7199753E-05 Eh
   gradient norm :     0.0004845 Eh/α   predicted    -0.4751313E-05 ( -34.01%)
   displ. norm   :     0.0193198 α      lambda       -0.2251400E-05
   maximum displ.:     0.0116962 α      in ANC's #2, #9, #1, ...

........................................................................
.............................. CYCLE   45 ..............................
........................................................................

 iter      E             dE          RMSdq      gap      omega  full diag
   1    -42.2761903 -0.422762E+02  0.429E-03    4.17       0.0  T
   2    -42.2761903 -0.524691E-08  0.256E-03    4.17       6.5  T
   3    -42.2761903  0.886192E-08  0.478E-04    4.17      34.9  T
   4    -42.2761903 -0.102496E-07  0.101E-04    4.17     165.6  T
     SCC iter.                  ...        0 min,  0.006 sec
     gradient                   ...        0 min,  0.008 sec
 * total energy  :   -41.5959817 Eh     change       -0.2865884E-05 Eh
   gradient norm :     0.0003977 Eh/α   predicted    -0.1133522E-05 ( -60.45%)
   displ. norm   :     0.0604875 α      lambda       -0.5252339E-05
   maximum displ.:     0.0341142 α      in ANC's #2, #9, #1, ...

   *** GEOMETRY OPTIMIZATION CONVERGED AFTER 45 ITERATIONS ***

------------------------------------------------------------------------
 total energy gain   :        -0.0105130 Eh       -6.5970 kcal/mol
 total RMSD          :         0.6110420 a0        0.3233 Å
 total power (kW/mol):        -0.6133752 (step)  -32.7294 (real)
------------------------------------------------------------------------

 ANCopt (total)                0 d,  0 h,  0 min,  0.843 sec
 optimizer setup                ...        0 min,  0.000 sec (  0.009%)
 model hessian                  ...        0 min,  0.090 sec ( 10.648%)
 ANC generation                 ...        0 min,  0.002 sec (  0.285%)
 coordinate transformation      ...        0 min,  0.001 sec (  0.078%)
 single point calculation       ...        0 min,  0.735 sec ( 87.199%)
 optimization log               ...        0 min,  0.005 sec (  0.565%)
 hessian update                 ...        0 min,  0.003 sec (  0.319%)
 rational function              ...        0 min,  0.006 sec (  0.680%)

================
 final structure:
================
36
 xtb: 6.7.1 (edcfbbe)
C            2.92997851633084        0.40083957731760        0.43127065931156
C            1.49520266843375        0.01193717587660        0.21922898761029
C            0.54119409901152        1.02432868215232        0.26063908082715
C           -0.80846824484339        0.80414601420250        0.04552826368996
C           -1.78135773005003        1.93393112005145        0.10733470909797
C           -1.23792915024699       -0.49431086322024       -0.25922205121453
C           -0.29794002014294       -1.50755522125156       -0.29539230988112
C            1.05649486056012       -1.29032054868805       -0.03445050244399
C            1.98297577591876       -2.47590970509738       -0.09519985986082
N            2.09955624355511       -3.24327979241157        1.19868399554007
C            0.79048679150864       -3.78930723468455        1.59390205102278
C            3.04726483127437       -4.35410716157132        1.00449198276470
C            2.59243704058325       -2.36410505367250        2.27092065213785
C           -2.67553875439064       -0.77965087715348       -0.54805689371024
H            3.62823097923076       -0.26272437047790       -0.07141433974272
H            3.08993804793880        1.40147286496664        0.03867069609861
H            3.17799422083056        0.43124896046424        1.49191280503372
H            0.87552003976385        2.03150144603920        0.46140290400108
H           -1.28353797438389        2.86353976717679        0.36725738457100
H           -2.27561525943465        2.06209041400656       -0.85461030764273
H           -2.55480488979939        1.73281340535454        0.84727198632865
H           -0.62880178030285       -2.50205760454704       -0.56158850192425
H            1.61974114223678       -3.17844019776318       -0.84831730693531
H            2.99005798409400       -2.16484725846009       -0.37442775118227
H            0.41260790103178       -4.45677087961048        0.82186497605177
H            0.88494860714946       -4.34850715138144        2.52293360689509
H            0.07958095939458       -2.97771761805170        1.73846912750653
H            4.02784234059795       -3.97198621166202        0.72603707282631
H            3.14629065746957       -4.92773092274527        1.92466514459210
H            2.69593346310028       -5.01797618505386        0.21649466393118
H            3.57949164966630       -1.98302079509046        2.01850950647151
H            1.90926601496194       -1.52682587468095        2.39973434031931
H            2.65824779828335       -2.91588031230507        3.20694145781910
H           -3.29691151916009       -0.52285919931013        0.30886550396612
H           -3.01901179792094       -0.18133215012636       -1.39019644646613
H           -2.82746551225260       -1.82902623859230       -0.78581528741194

 Bond Distances (Angstroems)
 ---------------------------
C1-C2=1.5016         C1-H15=1.0865        C1-H16=1.0867        C1-H17=1.0897        C2-C1=1.5016         C2-C3=1.3917         
C2-C8=1.3974         C3-C2=1.3917         C3-C4=1.3843         C3-H18=1.0800        C4-C3=1.3843         C4-C5=1.4922         
C4-C6=1.4012         C5-C4=1.4922         C5-H19=1.0861        C5-H20=1.0891        C5-H21=1.0891        C6-C4=1.4012         
C6-C7=1.3826         C6-C14=1.4938        C7-C6=1.3826         C7-C8=1.3963         C7-H22=1.0814        C8-C2=1.3974         
C8-C7=1.3963         C8-C9=1.5059         C9-C8=1.5059         C9-N10=1.5088        C9-H23=1.0921        C9-H24=1.0904        
N10-C9=1.5088        N10-C11=1.4724       N10-C12=1.4730       N10-C13=1.4716       C11-N10=1.4724       C11-H25=1.0883       
C11-H26=1.0885       C11-H27=1.0886       C12-N10=1.4730       C12-H28=1.0886       C12-H29=1.0888       C12-H30=1.0886       
C13-N10=1.4716       C13-H31=1.0878       C13-H32=1.0883       C13-H33=1.0885       C14-C6=1.4938        C14-H34=1.0892       
C14-H35=1.0886       C14-H36=1.0866       H15-C1=1.0865        H16-C1=1.0867        H17-C1=1.0897        H18-C3=1.0800        
H19-C5=1.0861        H20-C5=1.0891        H21-C5=1.0891        H22-C7=1.0814        H23-C9=1.0921        H24-C9=1.0904        
H25-C11=1.0883       H26-C11=1.0885       H27-C11=1.0886       H28-C12=1.0886       H29-C12=1.0888       H30-C12=1.0886       
H31-C13=1.0878       H32-C13=1.0883       H33-C13=1.0885       H34-C14=1.0892       H35-C14=1.0886       H36-C14=1.0866       
 C  H  Rav=1.0878 sigma=0.0026  Rmin=1.0800  Rmax=1.0921    22
 C  C  Rav=1.4347 sigma=0.0524  Rmin=1.3826  Rmax=1.5059    10
 N  C  Rav=1.4815 sigma=0.0158  Rmin=1.4716  Rmax=1.5088     4

 selected bond angles (degree)
 --------------------
H15-C1-C2=112.99               H16-C1-C2=109.15               H16-C1-H15=107.49              H17-C1-C2=111.23               
H17-C1-H15=108.73              H17-C1-H16=107.00              C3-C2-C1=117.54                C8-C2-C1=124.54                
C8-C2-C3=117.91                C4-C3-C2=123.23                H18-C3-C2=118.15               H18-C3-C4=118.62               
C5-C4-C3=120.58                C6-C4-C3=118.69                C6-C4-C5=120.72                H19-C5-C4=111.05               
H20-C5-C4=110.39               H20-C5-H19=108.58              H21-C5-C4=110.57               H21-C5-H19=108.72              
H21-C5-H20=107.43              C7-C6-C4=118.45                C14-C6-C4=120.93               C14-C6-C7=120.61               
C8-C7-C6=122.72                H22-C7-C6=118.19               H22-C7-C8=119.07               C7-C8-C2=118.91                
C9-C8-C2=123.22                C9-C8-C7=117.82                N10-C9-C8=114.42               H23-C9-C8=109.25               
H23-C9-N10=106.85              H24-C9-C8=110.73               H24-C9-N10=107.06              H24-C9-H23=108.31              
C11-N10-C9=110.49              C12-N10-C9=108.67              C12-N10-C11=109.13             C13-N10-C9=110.30              
C13-N10-C11=108.89             C13-N10-C12=109.34             

 selected dihedral angles (degree)
 ---------------------------------
C3-C2-C1-H15=208.41           C3-C2-C1-H16=327.94           C3-C2-C1-H17= 85.79           C8-C2-C1-H15= 27.47           
C8-C2-C1-H16=147.01           C8-C2-C1-H17=264.86           C4-C3-C2-C1=178.22            C4-C3-C2-C8=359.09            
H18-C3-C2-C1=358.83           H18-C3-C2-C8=179.70           C5-C4-C3-C2=179.85            C5-C4-C3-H18=359.24           
C6-C4-C3-C2=358.50            C6-C4-C3-H18=177.89           H19-C5-C4-C3=357.91           H19-C5-C4-C6=179.29           
H20-C5-C4-C3=118.40           H20-C5-C4-C6=299.77           H21-C5-C4-C3=237.13           H21-C5-C4-C6= 58.51           
C7-C6-C4-C3=  1.77            C7-C6-C4-C5=180.42            C14-C6-C4-C3=182.18           C14-C6-C4-C5=  0.83           
C8-C7-C6-C4=  0.34            C8-C7-C6-C14=179.93           H22-C7-C6-C4=181.90           H22-C7-C6-C14=  1.49          
C7-C8-C2-C1=183.90            C7-C8-C2-C3=  2.97            C9-C8-C2-C1=  1.41            C9-C8-C2-C3=180.48            
C2-C8-C7-C6=357.24            C2-C8-C7-H22=175.66           C9-C8-C7-C6=179.59            C9-C8-C7-H22=358.02           
N10-C9-C8-C2= 95.09           N10-C9-C8-C7=272.62           H23-C9-C8-C2=214.81           H23-C9-C8-C7= 32.34           
H24-C9-C8-C2=334.01           H24-C9-C8-C7=151.54           C11-N10-C9-C8= 61.23          C11-N10-C9-H23=300.18         
C11-N10-C9-H24=184.31         C12-N10-C9-C8=180.94          C12-N10-C9-H23= 59.89         C12-N10-C9-H24=304.02         
C13-N10-C9-C8=300.78          C13-N10-C9-H23=179.73         C13-N10-C9-H24= 63.87         
           -------------------------------------------------
          |                Final Singlepoint                |
           -------------------------------------------------

          ...................................................
          :                      SETUP                      :
          :.................................................:
          :  # basis functions                  78          :
          :  # atomic orbitals                  78          :
          :  # shells                           50          :
          :  # electrons                        78          :
          :  max. iterations                   250          :
          :  Hamiltonian                  GFN2-xTB          :
          :  restarted?                      false          :
          :  GBSA solvation                  false          :
          :  PC potential                    false          :
          :  electronic temp.          300.0000000     K    :
          :  accuracy                    1.0000000          :
          :  -> integral cutoff          0.2500000E+02      :
          :  -> integral neglect         0.1000000E-07      :
          :  -> SCF convergence          0.1000000E-05 Eh   :
          :  -> wf. convergence          0.1000000E-03 e    :
          :  Broyden damping             0.4000000          :
          :  net charge                          1          :
          :  unpaired electrons                  0          :
          ...................................................

 iter      E             dE          RMSdq      gap      omega  full diag
   1    -42.2761903 -0.422762E+02  0.394E-05    4.17       0.0  T
   2    -42.2761903 -0.203926E-11  0.228E-05    4.17     729.8  T
   3    -42.2761903  0.323297E-11  0.120E-05    4.17    1385.1  T

   *** convergence criteria satisfied after 3 iterations ***

         #    Occupation            Energy/Eh            Energy/eV
      -------------------------------------------------------------
         1        2.0000           -0.8599268             -23.3998
       ...           ...                  ...                  ...
        33        2.0000           -0.5596571             -15.2290
        34        2.0000           -0.5568486             -15.1526
        35        2.0000           -0.5530903             -15.0504
        36        2.0000           -0.5320403             -14.4776
        37        2.0000           -0.5292523             -14.4017
        38        2.0000           -0.5068303             -13.7916
        39        2.0000           -0.4957781             -13.4908 (HOMO)
        40                         -0.3427026              -9.3254 (LUMO)
        41                         -0.3298487              -8.9756
        42                         -0.2279182              -6.2020
        43                         -0.1953433              -5.3156
        44                         -0.1420966              -3.8666
       ...                                ...                  ...
        78                          0.5387700              14.6607
      -------------------------------------------------------------
                  HL-Gap            0.1530756 Eh            4.1654 eV
             Fermi-level           -0.4192404 Eh          -11.4081 eV

 SCC (total)                   0 d,  0 h,  0 min,  0.015 sec
 SCC setup                      ...        0 min,  0.000 sec (  1.072%)
 Dispersion                     ...        0 min,  0.000 sec (  2.338%)
 classical contributions        ...        0 min,  0.000 sec (  0.650%)
 integral evaluation            ...        0 min,  0.002 sec ( 15.840%)
 iterations                     ...        0 min,  0.004 sec ( 29.084%)
 molecular gradient             ...        0 min,  0.007 sec ( 50.109%)
 printout                       ...        0 min,  0.000 sec (  0.789%)

         :::::::::::::::::::::::::::::::::::::::::::::::::::::
         ::                     SUMMARY                     ::
         :::::::::::::::::::::::::::::::::::::::::::::::::::::
         :: total energy             -41.595981674983 Eh    ::
         :: gradient norm              0.000398087764 Eh/a0 ::
         :: HOMO-LUMO gap              4.165398774519 eV    ::
         ::.................................................::
         :: SCC energy               -42.275820948840 Eh    ::
         :: -> isotropic ES            0.079687048163 Eh    ::
         :: -> anisotropic ES         -0.006877531154 Eh    ::
         :: -> anisotropic XC          0.026895737104 Eh    ::
         :: -> dispersion             -0.031527508963 Eh    ::
         :: repulsion energy           0.679839273857 Eh    ::
         :: add. restraining           0.000000000000 Eh    ::
         :: total charge               1.000000000000 e     ::
         :::::::::::::::::::::::::::::::::::::::::::::::::::::

           -------------------------------------------------
          |                Property Printout                |
           -------------------------------------------------

    * Orbital Energies and Occupations

         #    Occupation            Energy/Eh            Energy/eV
      -------------------------------------------------------------
         1        2.0000           -0.8599268             -23.3998
       ...           ...                  ...                  ...
        27        2.0000           -0.6050323             -16.4638
        28        2.0000           -0.5956012             -16.2071
        29        2.0000           -0.5847909             -15.9130
        30        2.0000           -0.5819745             -15.8363
        31        2.0000           -0.5771001             -15.7037
        32        2.0000           -0.5673066             -15.4372
        33        2.0000           -0.5596571             -15.2290
        34        2.0000           -0.5568486             -15.1526
        35        2.0000           -0.5530903             -15.0504
        36        2.0000           -0.5320403             -14.4776
        37        2.0000           -0.5292523             -14.4017
        38        2.0000           -0.5068303             -13.7916
        39        2.0000           -0.4957781             -13.4908 (HOMO)
        40                         -0.3427026              -9.3254 (LUMO)
        41                         -0.3298487              -8.9756
        42                         -0.2279182              -6.2020
        43                         -0.1953433              -5.3156
        44                         -0.1420966              -3.8666
        45                         -0.1359379              -3.6991
        46                         -0.1343206              -3.6551
        47                         -0.0584662              -1.5909
        48                         -0.0304439              -0.8284
        49                         -0.0242125              -0.6589
        50                          0.0045436               0.1236
       ...                                ...                  ...
        78                          0.5387700              14.6607
      -------------------------------------------------------------
                  HL-Gap            0.1530756 Eh            4.1654 eV
             Fermi-level           -0.4192404 Eh          -11.4081 eV

     #   Z          covCN         q      C6AA      α(0)
     1   6 C        3.758    -0.120    22.843     6.814
     2   6 C        2.964     0.005    27.919     8.667
     3   6 C        2.933    -0.050    29.238     8.868
     4   6 C        2.969     0.020    27.561     8.611
     5   6 C        3.759    -0.117    22.797     6.807
     6   6 C        2.968     0.012    27.748     8.640
     7   6 C        2.929    -0.059    29.459     8.901
     8   6 C        2.968    -0.029    28.717     8.790
     9   6 C        3.764    -0.041    21.344     6.585
    10   7 N        3.622     0.141    18.846     6.448
    11   6 C        3.723    -0.095    22.420     6.762
    12   6 C        3.725    -0.095    22.425     6.762
    13   6 C        3.723    -0.095    22.423     6.762
    14   6 C        3.758    -0.117    22.783     6.805
    15   1 H        0.925     0.039     2.467     2.456
    16   1 H        0.925     0.066     2.126     2.280
    17   1 H        0.925     0.051     2.312     2.378
    18   1 H        0.926     0.052     2.295     2.369
    19   1 H        0.925     0.055     2.258     2.350
    20   1 H        0.925     0.065     2.142     2.288
    21   1 H        0.925     0.061     2.183     2.311
    22   1 H        0.925     0.033     2.544     2.494
    23   1 H        0.924     0.081     1.971     2.196
    24   1 H        0.924     0.082     1.959     2.189
    25   1 H        0.925     0.096     1.826     2.113
    26   1 H        0.925     0.094     1.843     2.123
    27   1 H        0.925     0.106     1.731     2.057
    28   1 H        0.925     0.096     1.819     2.109
    29   1 H        0.925     0.097     1.808     2.103
    30   1 H        0.925     0.097     1.813     2.105
    31   1 H        0.925     0.099     1.794     2.095
    32   1 H        0.925     0.104     1.745     2.066
    33   1 H        0.925     0.093     1.848     2.126
    34   1 H        0.925     0.060     2.204     2.321
    35   1 H        0.925     0.064     2.151     2.294
    36   1 H        0.925     0.048     2.350     2.397

 Mol. C6AA /au·bohr⁶  :      10163.691830
 Mol. C8AA /au·bohr⁸  :     229894.134028
 Mol. α(0) /au        :        155.442985


Wiberg/Mayer (AO) data.
largest (>0.10) Wiberg bond orders for each atom

 ---------------------------------------------------------------------------
     #   Z sym  total        # sym  WBO       # sym  WBO       # sym  WBO
 ---------------------------------------------------------------------------
     1   6 C    3.993 --     2 C    1.026    16 H    0.976    15 H    0.975
                            17 H    0.966
     2   6 C    3.988 --     3 C    1.402     8 C    1.386     1 C    1.026
     3   6 C    3.989 --     4 C    1.433     2 C    1.402    18 H    0.964
     4   6 C    3.988 --     3 C    1.433     6 C    1.343     5 C    1.038
     5   6 C    3.993 --     4 C    1.038    19 H    0.984    21 H    0.964
                            20 H    0.961
     6   6 C    3.989 --     7 C    1.440     4 C    1.343    14 C    1.035
     7   6 C    3.989 --     6 C    1.440     8 C    1.384    22 H    0.965
     8   6 C    3.969 --     2 C    1.386     7 C    1.384     9 C    1.008
     9   6 C    3.922 --     8 C    1.008    23 H    0.965    24 H    0.959
                            10 N    0.899
    10   7 N    3.813 --    12 C    0.962    11 C    0.960    13 C    0.959
                             9 C    0.899
    11   6 C    3.928 --    25 H    0.975    26 H    0.975    27 H    0.969
                            10 N    0.960
    12   6 C    3.931 --    30 H    0.975    28 H    0.975    29 H    0.974
                            10 N    0.962
    13   6 C    3.928 --    33 H    0.975    31 H    0.974    32 H    0.971
                            10 N    0.959
    14   6 C    3.993 --     6 C    1.035    36 H    0.984    34 H    0.965
                            35 H    0.964
    15   1 H    0.998 --     1 C    0.975
    16   1 H    0.995 --     1 C    0.976
    17   1 H    0.997 --     1 C    0.966
    18   1 H    0.997 --     3 C    0.964
    19   1 H    0.997 --     5 C    0.984
    20   1 H    0.995 --     5 C    0.961
    21   1 H    0.996 --     5 C    0.964
    22   1 H    0.998 --     7 C    0.965
    23   1 H    0.993 --     9 C    0.965
    24   1 H    0.993 --     9 C    0.959
    25   1 H    0.991 --    11 C    0.975
    26   1 H    0.991 --    11 C    0.975
    27   1 H    0.989 --    11 C    0.969
    28   1 H    0.991 --    12 C    0.975
    29   1 H    0.990 --    12 C    0.974
    30   1 H    0.991 --    12 C    0.975
    31   1 H    0.990 --    13 C    0.974
    32   1 H    0.989 --    13 C    0.971
    33   1 H    0.991 --    13 C    0.975
    34   1 H    0.996 --    14 C    0.965
    35   1 H    0.995 --    14 C    0.964
    36   1 H    0.997 --    14 C    0.984
 ---------------------------------------------------------------------------

Topologies differ in total number of bonds
Writing topology from bond orders to xtbtopo.mol

molecular dipole:
                 x           y           z       tot (Debye)
 q only:        3.037      -4.959       2.141
   full:        3.118      -5.049       2.107      16.006
molecular quadrupole (traceless):
                xx          xy          yy          xz          yz          zz
 q only:       -0.767     -33.034      24.165      13.987     -19.050     -23.398
  q+dip:       -0.176     -33.403      26.341      14.680     -18.444     -26.165
   full:       -0.822     -33.568      25.141      14.226     -18.989     -24.319

           -------------------------------------------------
          |                Geometry Summary                 |
           -------------------------------------------------

      molecular mass/u    :      192.3209664
   center of mass at/Å    :        0.7287140      -1.2095824       0.4553299
  moments of inertia/u·Å² :        0.4186814E+03   0.1154180E+04   0.1416717E+04
rotational constants/cm⁻¹ :        0.4026363E-01   0.1460572E-01   0.1189909E-01

 * 32 selected distances

     #   Z          #   Z                                           value/Å
     2   6 C        3   6 C                                       1.3916839
     3   6 C        4   6 C                                       1.3843200
     4   6 C        6   6 C                                       1.4011781
     6   6 C        7   6 C                                       1.3825890
     2   6 C        8   6 C                                       1.3973881
     7   6 C        8   6 C                                       1.3963437
     9   6 C       10   7 N                                       1.5088352 (max)
    10   7 N       11   6 C                                       1.4724152
    10   7 N       12   6 C                                       1.4730241
    10   7 N       13   6 C                                       1.4715881
     1   6 C       15   1 H                                       1.0865386
     1   6 C       16   1 H                                       1.0867332
     1   6 C       17   1 H                                       1.0896782
     3   6 C       18   1 H                                       1.0800357 (min)
     5   6 C       19   1 H                                       1.0860740
     5   6 C       20   1 H                                       1.0890609
     5   6 C       21   1 H                                       1.0891172
     7   6 C       22   1 H                                       1.0813719
     9   6 C       23   1 H                                       1.0920964
     9   6 C       24   1 H                                       1.0903866
    11   6 C       25   1 H                                       1.0882746
    11   6 C       26   1 H                                       1.0884519
    11   6 C       27   1 H                                       1.0885608
    12   6 C       28   1 H                                       1.0886166
    12   6 C       29   1 H                                       1.0888385
    12   6 C       30   1 H                                       1.0886211
    13   6 C       31   1 H                                       1.0877562
    13   6 C       32   1 H                                       1.0882795
    13   6 C       33   1 H                                       1.0885413
    14   6 C       34   1 H                                       1.0892026
    14   6 C       35   1 H                                       1.0886497
    14   6 C       36   1 H                                       1.0866461

 * 3 distinct bonds (by element types)

   Z      Z             #   av. dist./Å        max./Å        min./Å
   1 H    6 C          22     1.0877969     1.0920964     1.0800357
   6 C    6 C           6     1.3922505     1.4011781     1.3825890
   6 C    7 N           4     1.4814657     1.5088352     1.4715881


optimized geometry written to: xtbopt.xyz


           -------------------------------------------------
          | TOTAL ENERGY              -41.595981674983 Eh   |
          | GRADIENT NORM               0.000398087764 Eh/α |
          | HOMO-LUMO GAP               4.165398774519 eV   |
           -------------------------------------------------

------------------------------------------------------------------------
 * finished run on 2024/12/20 at 07:14:34.699     
------------------------------------------------------------------------
 total:
 * wall-time:     0 d,  0 h,  0 min,  0.898 sec
 *  cpu-time:     0 d,  0 h,  0 min,  6.618 sec
 * ratio c/w:     7.367 speedup
 SCF:
 * wall-time:     0 d,  0 h,  0 min,  0.020 sec
 *  cpu-time:     0 d,  0 h,  0 min,  0.156 sec
 * ratio c/w:     7.927 speedup
 ANC optimizer:
 * wall-time:     0 d,  0 h,  0 min,  0.859 sec
 *  cpu-time:     0 d,  0 h,  0 min,  6.328 sec
 * ratio c/w:     7.365 speedup

