      -----------------------------------------------------------      
     |                   =====================                   |     
     |                           x T B                           |     
     |                   =====================                   |     
     |                         S. Grimme                         |     
     |          Mulliken Center for Theoretical Chemistry        |     
     |                    University of Bonn                     |     
      -----------------------------------------------------------      

   * xtb version 6.7.1 (edcfbbe) compiled by 'conda@3ef47c1a292c' on 2024-11-25

   xtb is free software: you can redistribute it and/or modify it under
   the terms of the GNU Lesser General Public License as published by
   the Free Software Foundation, either version 3 of the License, or
   (at your option) any later version.
   
   xtb is distributed in the hope that it will be useful,
   but WITHOUT ANY WARRANTY; without even the implied warranty of
   MERCHANTABILITY or FITNESS FOR A PARTICULAR PURPOSE.  See the
   GNU Lesser General Public License for more details.
   
   Cite this work as:
   * C. Bannwarth, E. Caldeweyher, S. Ehlert, A. Hansen, P. Pracht,
     J. Seibert, S. Spicher, S. Grimme, WIREs Comput. Mol. Sci., 2020, 11,
     e01493. DOI: 10.1002/wcms.1493
   
   for GFN2-xTB:
   * C. Bannwarth, S. Ehlert and S. Grimme., J. Chem. Theory Comput., 2019,
     15, 1652-1671. DOI: 10.1021/acs.jctc.8b01176
   for GFN1-xTB:
   * S. Grimme, C. Bannwarth, P. Shushkov, J. Chem. Theory Comput., 2017,
     13, 1989-2009. DOI: 10.1021/acs.jctc.7b00118
   for GFN0-xTB:
   * P. Pracht, E. Caldeweyher, S. Ehlert, S. Grimme, ChemRxiv, 2019, preprint.
     DOI: 10.26434/chemrxiv.8326202.v1
   for GFN-FF:
   * S. Spicher and S. Grimme, Angew. Chem. Int. Ed., 2020, 59, 15665-15673.
     DOI: 10.1002/anie.202004239
   
   for ALPB and GBSA implicit solvation:
   * S. Ehlert, M. Stahn, S. Spicher, S. Grimme, J. Chem. Theory Comput.,
     2021, 17, 4250-4261. DOI: 10.1021/acs.jctc.1c00471
   
   for ddCOSMO and CPCM-X implicit solvation:
   * M. Stahn, S. Ehlert, S. Grimme, J. Phys. Chem. A,
     2023, XX, XXXX-XXXX. DOI: 10.1021/acs.jpca.3c04382
   
   for DFT-D4:
   * E. Caldeweyher, C. Bannwarth and S. Grimme, J. Chem. Phys., 2017,
     147, 034112. DOI: 10.1063/1.4993215
   * E. Caldeweyher, S. Ehlert, A. Hansen, H. Neugebauer, S. Spicher,
     C. Bannwarth and S. Grimme, J. Chem. Phys., 2019, 150, 154122.
     DOI: 10.1063/1.5090222
   * E. Caldeweyher, J.-M. Mewes, S. Ehlert and S. Grimme, Phys. Chem. Chem. Phys.
     2020, 22, 8499-8512. DOI: 10.1039/D0CP00502A
   
   for sTDA-xTB:
   * S. Grimme and C. Bannwarth, J. Chem. Phys., 2016, 145, 054103.
     DOI: 10.1063/1.4959605
   
   in the mass-spec context:
   * V. Asgeirsson, C. Bauer and S. Grimme, Chem. Sci., 2017, 8, 4879.
     DOI: 10.1039/c7sc00601b
   * J. Koopman and S. Grimme, ACS Omega 2019, 4, 12, 15120-15133.
     DOI: 10.1021/acsomega.9b02011
   
   for metadynamics refer to:
   * S. Grimme, J. Chem. Theory Comput., 2019, 155, 2847-2862
     DOI: 10.1021/acs.jctc.9b00143
   
   for SPH calculations refer to:
   * S. Spicher and S. Grimme, J. Chem. Theory Comput., 2021, 17, 1701-1714
     DOI: 10.1021/acs.jctc.0c01306
   
   for ONIOM refer to:
   * C. Plett, A. Katbashev, S. Ehlert, S. Grimme, M. Bursch,
     Phys. Chem. Chem. Phys., 2023, 25, 17860-17868. DOI: 10.1039/D3CP02178E
   
   for DIPRO refer to:
   * J. Kohn, N. Gildemeister, S. Grimme, D. Fazzi, A. Hansen,
     J. Chem. Phys., 2023, just accepted.
   
   for PTB refer to:
   * S. Grimme, M. Mueller, A. Hansen, J. Chem. Phys., 2023, 158, 124111.
     DOI: 10.1063/5.0137838
   
   with help from (in alphabetical order)
   P. Atkinson, C. Bannwarth, F. Bohle, G. Brandenburg, E. Caldeweyher
   M. Checinski, S. Dohm, S. Ehlert, S. Ehrlich, I. Gerasimov, C. Hölzer
   A. Katbashev, J. Kohn, J. Koopman, C. Lavigne, S. Lehtola, F. März, M. Müller,
   F. Musil, H. Neugebauer, J. Pisarek, C. Plett, P. Pracht, F. Pultar,
   J. Seibert, P. Shushkov, S. Spicher, M. Stahn, M. Steiner, T. Strunk,
   J. Stückrath, T. Rose, and J. Unsleber
   
 * started run on 2024/12/20 at 07:14:24.217     
   ID    Z sym.   atoms
    1    6 C      1-7, 10, 12-20
    2    7 N      8, 9, 11
    3    9 F      21-33
    4    1 H      34-54

           -------------------------------------------------
          |                Calculation Setup                |
           -------------------------------------------------

          program call               : xtb C1190.xyz --opt --namespace C1190 --charge +1
          calculation namespace      : C1190
          coordinate file            : C1190.xyz
          omp threads                :                     8


           -------------------------------------------------
          |                 G F N 2 - x T B                 |
           -------------------------------------------------

        Reference                      10.1021/acs.jctc.8b01176
      * Hamiltonian:
        H0-scaling (s, p, d)           1.850000    2.230000    2.230000
        zeta-weighting                 0.500000
      * Dispersion:
        s8                             2.700000
        a1                             0.520000
        a2                             5.000000
        s9                             5.000000
      * Repulsion:
        kExp                           1.500000    1.000000
        rExp                           1.000000
      * Coulomb:
        alpha                          2.000000
        third order                    shell-resolved
        anisotropic                    true
        a3                             3.000000
        a5                             4.000000
        cn-shift                       1.200000
        cn-exp                         4.000000
        max-rad                        5.000000


          ...................................................
          :                      SETUP                      :
          :.................................................:
          :  # basis functions                 153          :
          :  # atomic orbitals                 153          :
          :  # shells                           87          :
          :  # electrons                       194          :
          :  max. iterations                   250          :
          :  Hamiltonian                  GFN2-xTB          :
          :  restarted?                      false          :
          :  GBSA solvation                  false          :
          :  PC potential                    false          :
          :  electronic temp.          300.0000000     K    :
          :  accuracy                    1.0000000          :
          :  -> integral cutoff          0.2500000E+02      :
          :  -> integral neglect         0.1000000E-07      :
          :  -> SCF convergence          0.1000000E-05 Eh   :
          :  -> wf. convergence          0.1000000E-03 e    :
          :  Broyden damping             0.4000000          :
          :  net charge                          1          :
          :  unpaired electrons                  0          :
          ...................................................

 iter      E             dE          RMSdq      gap      omega  full diag
   1   -117.4781381 -0.117478E+03  0.392E+00    5.18       0.0  T
   2   -117.7179823 -0.239844E+00  0.220E+00    3.82       1.0  T
   3   -117.7331239 -0.151416E-01  0.118E+00    2.41       1.0  T
   4   -117.7366284 -0.350455E-02  0.256E-01    1.33       1.0  T
   5   -117.7381408 -0.151238E-02  0.904E-02    1.36       1.0  T
   6   -117.7382600 -0.119132E-03  0.373E-02    1.48       1.0  T
   7   -117.7382651 -0.516571E-05  0.137E-02    1.49       1.0  T
   8   -117.7382668 -0.170106E-05  0.342E-03    1.49       4.0  T
   9   -117.7382671 -0.283082E-06  0.145E-03    1.49       9.4  T
  10   -117.7382671 -0.305131E-07  0.473E-04    1.49      28.8  T
  11   -117.7382671 -0.315909E-08  0.156E-04    1.49      87.2  T

   *** convergence criteria satisfied after 11 iterations ***

         #    Occupation            Energy/Eh            Energy/eV
      -------------------------------------------------------------
         1        2.0000           -1.0441896             -28.4138
       ...           ...                  ...                  ...
        91        2.0000           -0.5629444             -15.3185
        92        2.0000           -0.5455502             -14.8452
        93        2.0000           -0.5377470             -14.6328
        94        2.0000           -0.5317128             -14.4686
        95        2.0000           -0.5093007             -13.8588
        96        2.0000           -0.5052286             -13.7480
        97        2.0000           -0.4998518             -13.6017 (HOMO)
        98                         -0.4449623             -12.1080 (LUMO)
        99                         -0.4173904             -11.3578
       100                         -0.2615448              -7.1170
       101                         -0.2604234              -7.0865
       102                         -0.2443853              -6.6501
       ...                                ...                  ...
       153                          0.3245385               8.8311
      -------------------------------------------------------------
                  HL-Gap            0.0548894 Eh            1.4936 eV
             Fermi-level           -0.4724071 Eh          -12.8549 eV

 SCC (total)                   0 d,  0 h,  0 min,  0.074 sec
 SCC setup                      ...        0 min,  0.000 sec (  0.349%)
 Dispersion                     ...        0 min,  0.001 sec (  1.395%)
 classical contributions        ...        0 min,  0.000 sec (  0.184%)
 integral evaluation            ...        0 min,  0.005 sec (  7.170%)
 iterations                     ...        0 min,  0.049 sec ( 66.269%)
 molecular gradient             ...        0 min,  0.018 sec ( 24.153%)
 printout                       ...        0 min,  0.000 sec (  0.451%)

         :::::::::::::::::::::::::::::::::::::::::::::::::::::
         ::                     SUMMARY                     ::
         :::::::::::::::::::::::::::::::::::::::::::::::::::::
         :: total energy            -116.962792329207 Eh    ::
         :: gradient norm              0.121276931082 Eh/a0 ::
         :: HOMO-LUMO gap              1.493617439036 eV    ::
         ::.................................................::
         :: SCC energy              -117.737609185617 Eh    ::
         :: -> isotropic ES            0.269174724538 Eh    ::
         :: -> anisotropic ES          0.015270833111 Eh    ::
         :: -> anisotropic XC         -0.054106254304 Eh    ::
         :: -> dispersion             -0.053686885418 Eh    ::
         :: repulsion energy           0.774816856410 Eh    ::
         :: add. restraining           0.000000000000 Eh    ::
         :: total charge               1.000000000000 e     ::
         :::::::::::::::::::::::::::::::::::::::::::::::::::::

      ----------------------------------------------------------- 
     |                   =====================                   |
     |                        A N C O P T                        |
     |                   =====================                   |
     |               Approximate Normal Coordinate               |
     |                Rational Function Optimizer                |
      ----------------------------------------------------------- 
      ----------------------------------------------------------- 
     |                   =====================                   |
     |                        A N C O P T                        |
     |                   =====================                   |
     |               Approximate Normal Coordinate               |
     |                Rational Function Optimizer                |
      ----------------------------------------------------------- 

          ...................................................
          :                      SETUP                      :
          :.................................................:
          :   optimization level            normal          :
          :   max. optcycles                   200          :
          :   ANC micro-cycles                  20          :
          :   degrees of freedom               156          :
          :.................................................:
          :   RF solver                   davidson          :
          :   write xtbopt.log                true          :
          :   linear?                        false          :
          :   energy convergence         0.5000000E-05 Eh   :
          :   grad. convergence          0.1000000E-02 Eh/α :
          :   maxmium RF displ.          1.0000000          :
          :   Hlow (freq-cutoff)         0.1000000E-01      :
          :   Hmax (freq-cutoff)         5.0000000          :
          :   S6 in model hess.         20.0000000          :
          ...................................................

generating ANC from exact Hessian ...
Using Lindh-Hessian (1995)
 Shifting diagonal of input Hessian by    9.9278164333060706E-003
 Lowest  eigenvalues of input Hessian
    0.000000    0.000000    0.000000    0.000000    0.000000    0.000000
    0.010000    0.010182    0.010359    0.010520    0.010569    0.010874
    0.011319    0.011771    0.012584    0.013364    0.014008    0.014680
 Highest eigenvalues
    1.706617    1.751756    1.865682    2.009219    2.129057    2.219496


........................................................................
.............................. CYCLE    1 ..............................
........................................................................

 iter      E             dE          RMSdq      gap      omega  full diag
   1   -117.7382671 -0.117738E+03  0.601E-05    1.49       0.0  T
   2   -117.7382671 -0.203642E-10  0.346E-05    1.49     393.4  T
   3   -117.7382671 -0.568434E-12  0.174E-05    1.49     784.3  T
     SCC iter.                  ...        0 min,  0.012 sec
     gradient                   ...        0 min,  0.022 sec
 * total energy  :  -116.9627923 Eh     change       -0.1295746E-09 Eh
   gradient norm :     0.1212769 Eh/α   predicted     0.0000000E+00 (-100.00%)
   displ. norm   :     0.3181585 α      lambda       -0.1845973E-01
   maximum displ.:     0.1104009 α      in ANC's #22, #18, #21, ...

........................................................................
.............................. CYCLE    2 ..............................
........................................................................

 iter      E             dE          RMSdq      gap      omega  full diag
   1   -117.7670531 -0.117767E+03  0.183E-01    1.64       0.0  T
   2   -117.7672288 -0.175754E-03  0.104E-01    1.63       1.0  T
   3   -117.7672279  0.952179E-06  0.390E-02    1.63       1.0  T
   4   -117.7672416 -0.137469E-04  0.102E-02    1.64       1.3  T
   5   -117.7672449 -0.332979E-05  0.341E-03    1.64       4.0  T
   6   -117.7672450 -0.354694E-07  0.116E-03    1.64      11.8  T
   7   -117.7672450 -0.204659E-07  0.357E-04    1.64      38.1  T
   8   -117.7672450 -0.186911E-08  0.156E-04    1.64      87.5  T
     SCC iter.                  ...        0 min,  0.041 sec
     gradient                   ...        0 min,  0.011 sec
 * total energy  :  -116.9759160 Eh     change       -0.1312370E-01 Eh
   gradient norm :     0.0620063 Eh/α   predicted    -0.1016992E-01 ( -22.51%)
   displ. norm   :     0.2872721 α      lambda       -0.7176036E-02
   maximum displ.:     0.1053332 α      in ANC's #22, #18, #17, ...

........................................................................
.............................. CYCLE    3 ..............................
........................................................................

 iter      E             dE          RMSdq      gap      omega  full diag
   1   -117.7859644 -0.117786E+03  0.125E-01    1.75       0.0  T
   2   -117.7860881 -0.123675E-03  0.711E-02    1.75       1.0  T
   3   -117.7860922 -0.406576E-05  0.346E-02    1.74       1.0  T
   4   -117.7861013 -0.915100E-05  0.823E-03    1.75       1.7  T
   5   -117.7861031 -0.178316E-05  0.223E-03    1.75       6.1  T
   6   -117.7861031 -0.198901E-07  0.883E-04    1.75      15.4  T
   7   -117.7861031 -0.950280E-08  0.285E-04    1.75      47.7  T
     SCC iter.                  ...        0 min,  0.022 sec
     gradient                   ...        0 min,  0.011 sec
 * total energy  :  -116.9801633 Eh     change       -0.4247274E-02 Eh
   gradient norm :     0.0133975 Eh/α   predicted    -0.3885946E-02 (  -8.51%)
   displ. norm   :     0.2311817 α      lambda       -0.1064793E-02
   maximum displ.:     0.0817555 α      in ANC's #8, #9, #22, ...

........................................................................
.............................. CYCLE    4 ..............................
........................................................................

 iter      E             dE          RMSdq      gap      omega  full diag
   1   -117.7870709 -0.117787E+03  0.451E-02    1.76       0.0  T
   2   -117.7870768 -0.592157E-05  0.265E-02    1.76       1.0  T
   3   -117.7870761  0.755776E-06  0.112E-02    1.76       1.2  T
   4   -117.7870785 -0.243036E-05  0.190E-03    1.76       7.1  T
   5   -117.7870785 -0.422901E-07  0.909E-04    1.76      15.0  T
   6   -117.7870785 -0.370599E-08  0.257E-04    1.76      53.0  T
     SCC iter.                  ...        0 min,  0.019 sec
     gradient                   ...        0 min,  0.011 sec
 * total energy  :  -116.9809476 Eh     change       -0.7843432E-03 Eh
   gradient norm :     0.0061993 Eh/α   predicted    -0.5608850E-03 ( -28.49%)
   displ. norm   :     0.3126628 α      lambda       -0.7406881E-03
   maximum displ.:     0.1216839 α      in ANC's #8, #9, #11, ...

........................................................................
.............................. CYCLE    5 ..............................
........................................................................

 iter      E             dE          RMSdq      gap      omega  full diag
   1   -117.7851075 -0.117785E+03  0.524E-02    1.75       0.0  T
   2   -117.7851121 -0.455884E-05  0.311E-02    1.76       1.0  T
   3   -117.7851122 -0.174875E-06  0.721E-03    1.75       1.9  T
   4   -117.7851134 -0.120337E-05  0.221E-03    1.76       6.1  T
   5   -117.7851135 -0.370464E-07  0.112E-03    1.76      12.2  T
   6   -117.7851135 -0.107231E-07  0.213E-04    1.76      64.0  T
   7   -117.7851135 -0.390358E-09  0.989E-05    1.76     137.6  T
     SCC iter.                  ...        0 min,  0.025 sec
     gradient                   ...        0 min,  0.011 sec
 * total energy  :  -116.9814421 Eh     change       -0.4944537E-03 Eh
   gradient norm :     0.0069314 Eh/α   predicted    -0.4065490E-03 ( -17.78%)
   displ. norm   :     0.2370449 α      lambda       -0.2876593E-03
   maximum displ.:     0.1000429 α      in ANC's #8, #9, #5, ...

........................................................................
.............................. CYCLE    6 ..............................
........................................................................

 iter      E             dE          RMSdq      gap      omega  full diag
   1   -117.7841405 -0.117784E+03  0.358E-02    1.75       0.0  T
   2   -117.7841423 -0.187190E-05  0.215E-02    1.75       1.0  T
   3   -117.7841426 -0.262940E-06  0.358E-03    1.75       3.8  T
   4   -117.7841430 -0.367789E-06  0.152E-03    1.75       8.9  T
   5   -117.7841430 -0.209025E-07  0.760E-04    1.75      17.9  T
   6   -117.7841430 -0.567890E-08  0.147E-04    1.75      92.9  T
     SCC iter.                  ...        0 min,  0.019 sec
     gradient                   ...        0 min,  0.011 sec
 * total energy  :  -116.9816557 Eh     change       -0.2135547E-03 Eh
   gradient norm :     0.0066316 Eh/α   predicted    -0.1519118E-03 ( -28.87%)
   displ. norm   :     0.2665785 α      lambda       -0.2643365E-03
   maximum displ.:     0.1157337 α      in ANC's #8, #9, #5, ...

........................................................................
.............................. CYCLE    7 ..............................
........................................................................

 iter      E             dE          RMSdq      gap      omega  full diag
   1   -117.7842146 -0.117784E+03  0.407E-02    1.75       0.0  T
   2   -117.7842170 -0.246456E-05  0.245E-02    1.75       1.0  T
   3   -117.7842170  0.675024E-07  0.512E-03    1.75       2.7  T
   4   -117.7842179 -0.875571E-06  0.176E-03    1.75       7.7  T
   5   -117.7842179 -0.332443E-07  0.844E-04    1.75      16.1  T
   6   -117.7842179 -0.479042E-08  0.185E-04    1.75      73.7  T
     SCC iter.                  ...        0 min,  0.019 sec
     gradient                   ...        0 min,  0.011 sec
 * total energy  :  -116.9818511 Eh     change       -0.1954693E-03 Eh
   gradient norm :     0.0044217 Eh/α   predicted    -0.1416293E-03 ( -27.54%)
   displ. norm   :     0.2594094 α      lambda       -0.2068699E-03
   maximum displ.:     0.1144039 α      in ANC's #2, #5, #8, ...

........................................................................
.............................. CYCLE    8 ..............................
........................................................................

 iter      E             dE          RMSdq      gap      omega  full diag
   1   -117.7850953 -0.117785E+03  0.410E-02    1.75       0.0  T
   2   -117.7850975 -0.219990E-05  0.245E-02    1.75       1.0  T
   3   -117.7850973  0.170458E-06  0.518E-03    1.75       2.6  T
   4   -117.7850982 -0.924171E-06  0.171E-03    1.75       7.9  T
   5   -117.7850983 -0.334427E-07  0.817E-04    1.75      16.7  T
   6   -117.7850983 -0.525429E-08  0.174E-04    1.75      78.2  T
     SCC iter.                  ...        0 min,  0.020 sec
     gradient                   ...        0 min,  0.011 sec
 * total energy  :  -116.9820062 Eh     change       -0.1550957E-03 Eh
   gradient norm :     0.0038155 Eh/α   predicted    -0.1103961E-03 ( -28.82%)
   displ. norm   :     0.2810853 α      lambda       -0.1801524E-03
   maximum displ.:     0.1406458 α      in ANC's #2, #5, #8, ...

........................................................................
.............................. CYCLE    9 ..............................
........................................................................

 iter      E             dE          RMSdq      gap      omega  full diag
   1   -117.7859266 -0.117786E+03  0.440E-02    1.76       0.0  T
   2   -117.7859285 -0.192614E-05  0.261E-02    1.76       1.0  T
   3   -117.7859282  0.356637E-06  0.562E-03    1.75       2.4  T
   4   -117.7859294 -0.124356E-05  0.173E-03    1.76       7.9  T
   5   -117.7859294 -0.186835E-07  0.689E-04    1.76      19.8  T
   6   -117.7859294 -0.408976E-08  0.162E-04    1.76      84.2  T
     SCC iter.                  ...        0 min,  0.019 sec
     gradient                   ...        0 min,  0.011 sec
 * total energy  :  -116.9821500 Eh     change       -0.1437817E-03 Eh
   gradient norm :     0.0050860 Eh/α   predicted    -0.9719405E-04 ( -32.40%)
   displ. norm   :     0.3519294 α      lambda       -0.2133997E-03
   maximum displ.:     0.1886341 α      in ANC's #2, #5, #12, ...

........................................................................
.............................. CYCLE   10 ..............................
........................................................................

 iter      E             dE          RMSdq      gap      omega  full diag
   1   -117.7863674 -0.117786E+03  0.534E-02    1.76       0.0  T
   2   -117.7863702 -0.282392E-05  0.316E-02    1.76       1.0  T
   3   -117.7863693  0.920335E-06  0.760E-03    1.76       1.8  T
   4   -117.7863716 -0.233801E-05  0.207E-03    1.76       6.6  T
   5   -117.7863716 -0.159498E-07  0.740E-04    1.76      18.4  T
   6   -117.7863716 -0.582251E-08  0.213E-04    1.76      63.9  T
     SCC iter.                  ...        0 min,  0.019 sec
     gradient                   ...        0 min,  0.013 sec
 * total energy  :  -116.9823261 Eh     change       -0.1760781E-03 Eh
   gradient norm :     0.0054845 Eh/α   predicted    -0.1199176E-03 ( -31.90%)
   displ. norm   :     0.4178593 α      lambda       -0.2508473E-03
   maximum displ.:     0.2335986 α      in ANC's #2, #5, #12, ...

........................................................................
.............................. CYCLE   11 ..............................
........................................................................

 iter      E             dE          RMSdq      gap      omega  full diag
   1   -117.7862943 -0.117786E+03  0.608E-02    1.76       0.0  T
   2   -117.7862987 -0.438857E-05  0.360E-02    1.77       1.0  T
   3   -117.7862973  0.142950E-05  0.942E-03    1.76       1.4  T
   4   -117.7863007 -0.340307E-05  0.241E-03    1.76       5.6  T
   5   -117.7863007 -0.331846E-07  0.108E-03    1.76      12.6  T
   6   -117.7863007 -0.809632E-08  0.279E-04    1.76      48.8  T
   7   -117.7863007 -0.130132E-08  0.112E-04    1.76     121.8  T
     SCC iter.                  ...        0 min,  0.022 sec
     gradient                   ...        0 min,  0.011 sec
 * total energy  :  -116.9825296 Eh     change       -0.2035226E-03 Eh
   gradient norm :     0.0043900 Eh/α   predicted    -0.1473251E-03 ( -27.61%)
   displ. norm   :     0.4254766 α      lambda       -0.2380065E-03
   maximum displ.:     0.2451581 α      in ANC's #2, #5, #12, ...

........................................................................
.............................. CYCLE   12 ..............................
........................................................................

 iter      E             dE          RMSdq      gap      omega  full diag
   1   -117.7861393 -0.117786E+03  0.589E-02    1.76       0.0  T
   2   -117.7861440 -0.470261E-05  0.349E-02    1.77       1.0  T
   3   -117.7861430  0.103726E-05  0.912E-03    1.76       1.5  T
   4   -117.7861459 -0.291352E-05  0.243E-03    1.76       5.6  T
   5   -117.7861459 -0.491772E-07  0.116E-03    1.76      11.8  T
   6   -117.7861459 -0.834204E-08  0.300E-04    1.76      45.4  T
   7   -117.7861459 -0.157678E-08  0.121E-04    1.76     112.9  T
     SCC iter.                  ...        0 min,  0.022 sec
     gradient                   ...        0 min,  0.011 sec
 * total energy  :  -116.9827156 Eh     change       -0.1860408E-03 Eh
   gradient norm :     0.0036089 Eh/α   predicted    -0.1405469E-03 ( -24.45%)
   displ. norm   :     0.3927774 α      lambda       -0.1901515E-03
   maximum displ.:     0.2319987 α      in ANC's #2, #5, #12, ...

........................................................................
.............................. CYCLE   13 ..............................
........................................................................

 iter      E             dE          RMSdq      gap      omega  full diag
   1   -117.7860324 -0.117786E+03  0.523E-02    1.76       0.0  T
   2   -117.7860359 -0.344310E-05  0.310E-02    1.76       1.0  T
   3   -117.7860358  0.999804E-07  0.676E-03    1.76       2.0  T
   4   -117.7860372 -0.147354E-05  0.218E-03    1.76       6.3  T
   5   -117.7860373 -0.398452E-07  0.100E-03    1.76      13.6  T
   6   -117.7860373 -0.812243E-08  0.250E-04    1.76      54.4  T
   7   -117.7860373 -0.950749E-09  0.105E-04    1.76     129.7  T
     SCC iter.                  ...        0 min,  0.022 sec
     gradient                   ...        0 min,  0.011 sec
 * total energy  :  -116.9828643 Eh     change       -0.1486283E-03 Eh
   gradient norm :     0.0046320 Eh/α   predicted    -0.1097445E-03 ( -26.16%)
   displ. norm   :     0.3771640 α      lambda       -0.1718602E-03
   maximum displ.:     0.2285016 α      in ANC's #2, #5, #1, ...

........................................................................
.............................. CYCLE   14 ..............................
........................................................................

 iter      E             dE          RMSdq      gap      omega  full diag
   1   -117.7862881 -0.117786E+03  0.489E-02    1.76       0.0  T
   2   -117.7862906 -0.247116E-05  0.290E-02    1.76       1.0  T
   3   -117.7862911 -0.501682E-06  0.468E-03    1.76       2.9  T
   4   -117.7862917 -0.587229E-06  0.195E-03    1.76       7.0  T
   5   -117.7862917 -0.233802E-07  0.798E-04    1.76      17.1  T
   6   -117.7862917 -0.979298E-08  0.200E-04    1.76      68.1  T
     SCC iter.                  ...        0 min,  0.019 sec
     gradient                   ...        0 min,  0.011 sec
 * total energy  :  -116.9830009 Eh     change       -0.1366744E-03 Eh
   gradient norm :     0.0052628 Eh/α   predicted    -0.9815481E-04 ( -28.18%)
   displ. norm   :     0.4134768 α      lambda       -0.1801306E-03
   maximum displ.:     0.2580720 α      in ANC's #2, #5, #1, ...

........................................................................
.............................. CYCLE   15 ..............................
........................................................................

 iter      E             dE          RMSdq      gap      omega  full diag
   1   -117.7859522 -0.117786E+03  0.542E-02    1.76       0.0  T
   2   -117.7859548 -0.265391E-05  0.323E-02    1.76       1.0  T
   3   -117.7859559 -0.110486E-05  0.362E-03    1.75       3.8  T
   4   -117.7859561 -0.184673E-06  0.199E-03    1.76       6.9  T
   5   -117.7859561 -0.227539E-07  0.666E-04    1.76      20.4  T
   6   -117.7859562 -0.126520E-07  0.189E-04    1.76      72.0  T
     SCC iter.                  ...        0 min,  0.019 sec
     gradient                   ...        0 min,  0.011 sec
 * total energy  :  -116.9831417 Eh     change       -0.1407430E-03 Eh
   gradient norm :     0.0051191 Eh/α   predicted    -0.1054651E-03 ( -25.07%)
   displ. norm   :     0.3979251 α      lambda       -0.1961184E-03
   maximum displ.:     0.2536737 α      in ANC's #2, #5, #1, ...

........................................................................
.............................. CYCLE   16 ..............................
........................................................................

 iter      E             dE          RMSdq      gap      omega  full diag
   1   -117.7888634 -0.117789E+03  0.511E-02    1.76       0.0  T
   2   -117.7888678 -0.442262E-05  0.305E-02    1.76       1.0  T
   3   -117.7888682 -0.466012E-06  0.522E-03    1.76       2.6  T
   4   -117.7888688 -0.567720E-06  0.177E-03    1.76       7.7  T
   5   -117.7888688 -0.132369E-07  0.888E-04    1.76      15.3  T
   6   -117.7888688 -0.112582E-07  0.249E-04    1.76      54.6  T
     SCC iter.                  ...        0 min,  0.019 sec
     gradient                   ...        0 min,  0.011 sec
 * total energy  :  -116.9832487 Eh     change       -0.1069954E-03 Eh
   gradient norm :     0.0047223 Eh/α   predicted    -0.1135896E-03 (   6.16%)
   displ. norm   :     0.5277266 α      lambda       -0.2140363E-03
   maximum displ.:     0.3397687 α      in ANC's #2, #5, #1, ...

........................................................................
.............................. CYCLE   17 ..............................
........................................................................

 iter      E             dE          RMSdq      gap      omega  full diag
   1   -117.7834514 -0.117783E+03  0.750E-02    1.75       0.0  T
   2   -117.7834616 -0.102068E-04  0.449E-02    1.75       1.0  T
   3   -117.7834624 -0.865741E-06  0.945E-03    1.75       1.4  T
   4   -117.7834646 -0.220290E-05  0.298E-03    1.75       4.6  T
   5   -117.7834647 -0.509993E-07  0.152E-03    1.75       8.9  T
   6   -117.7834647 -0.214537E-07  0.343E-04    1.75      39.7  T
   7   -117.7834647 -0.222900E-08  0.137E-04    1.75      99.2  T
     SCC iter.                  ...        0 min,  0.022 sec
     gradient                   ...        0 min,  0.012 sec
 * total energy  :  -116.9833112 Eh     change       -0.6251854E-04 Eh
   gradient norm :     0.0083648 Eh/α   predicted    -0.1368242E-03 ( 118.85%)
   displ. norm   :     0.0975159 α      lambda       -0.1175779E-03
   maximum displ.:     0.0445330 α      in ANC's #5, #2, #12, ...

........................................................................
.............................. CYCLE   18 ..............................
........................................................................

 iter      E             dE          RMSdq      gap      omega  full diag
   1   -117.7871919 -0.117787E+03  0.197E-02    1.76       0.0  T
   2   -117.7871938 -0.183669E-05  0.116E-02    1.75       1.2  T
   3   -117.7871938 -0.321705E-07  0.395E-03    1.75       3.4  T
   4   -117.7871940 -0.165892E-06  0.854E-04    1.75      15.9  T
   5   -117.7871940 -0.187185E-07  0.436E-04    1.75      31.2  T
     SCC iter.                  ...        0 min,  0.016 sec
     gradient                   ...        0 min,  0.011 sec
 * total energy  :  -116.9833884 Eh     change       -0.7716997E-04 Eh
   gradient norm :     0.0038513 Eh/α   predicted    -0.5935028E-04 ( -23.09%)
   displ. norm   :     0.2165105 α      lambda       -0.9053019E-04
   maximum displ.:     0.1475104 α      in ANC's #2, #5, #1, ...

........................................................................
.............................. CYCLE   19 ..............................
........................................................................

 iter      E             dE          RMSdq      gap      omega  full diag
   1   -117.7883384 -0.117788E+03  0.270E-02    1.76       0.0  T
   2   -117.7883399 -0.144381E-05  0.162E-02    1.76       1.0  T
   3   -117.7883397  0.212519E-06  0.431E-03    1.75       3.2  T
   4   -117.7883402 -0.567955E-06  0.108E-03    1.76      12.6  T
   5   -117.7883402 -0.231782E-07  0.569E-04    1.76      23.9  T
   6   -117.7883402 -0.202931E-08  0.136E-04    1.76      99.8  T
     SCC iter.                  ...        0 min,  0.024 sec
     gradient                   ...        0 min,  0.012 sec
 * total energy  :  -116.9834566 Eh     change       -0.6824005E-04 Eh
   gradient norm :     0.0028052 Eh/α   predicted    -0.4738927E-04 ( -30.56%)
   displ. norm   :     0.3870714 α      lambda       -0.1191363E-03
   maximum displ.:     0.2642728 α      in ANC's #2, #5, #1, ...

........................................................................
.............................. CYCLE   20 ..............................
........................................................................

 iter      E             dE          RMSdq      gap      omega  full diag
   1   -117.7894512 -0.117789E+03  0.466E-02    1.77       0.0  T
   2   -117.7894537 -0.252059E-05  0.281E-02    1.77       1.0  T
   3   -117.7894530  0.684872E-06  0.700E-03    1.76       1.9  T
   4   -117.7894549 -0.190206E-05  0.170E-03    1.76       8.0  T
   5   -117.7894549 -0.225225E-07  0.813E-04    1.76      16.7  T
   6   -117.7894549 -0.413445E-08  0.218E-04    1.76      62.5  T
     SCC iter.                  ...        0 min,  0.020 sec
     gradient                   ...        0 min,  0.012 sec
 * total energy  :  -116.9835411 Eh     change       -0.8447517E-04 Eh
   gradient norm :     0.0041166 Eh/α   predicted    -0.6849807E-04 ( -18.91%)
   displ. norm   :     0.4948540 α      lambda       -0.1132768E-03
   maximum displ.:     0.3371898 α      in ANC's #2, #5, #1, ...
 * RMSD in coord.:     0.7195814 α      energy gain  -0.2074876E-01 Eh

generating ANC from exact Hessian ...
Using Lindh-Hessian (1995)
 Shifting diagonal of input Hessian by    9.9402686757724054E-003
 Lowest  eigenvalues of input Hessian
    0.000000    0.000000    0.000000    0.000000    0.000000    0.000000
    0.010000    0.010204    0.010356    0.010438    0.010563    0.010866
    0.011236    0.011727    0.012526    0.012945    0.013498    0.014430
 Highest eigenvalues
    1.847143    1.861922    1.993909    2.088119    2.245891    2.296650


........................................................................
.............................. CYCLE   21 ..............................
........................................................................

 iter      E             dE          RMSdq      gap      omega  full diag
   1   -117.7866538 -0.117787E+03  0.597E-02    1.75       0.0  T
   2   -117.7866581 -0.428924E-05  0.357E-02    1.76       1.0  T
   3   -117.7866591 -0.106421E-05  0.501E-03    1.75       2.7  T
   4   -117.7866596 -0.515452E-06  0.227E-03    1.75       6.0  T
   5   -117.7866597 -0.693109E-07  0.119E-03    1.75      11.4  T
   6   -117.7866597 -0.115271E-07  0.242E-04    1.75      56.3  T
   7   -117.7866597 -0.102705E-08  0.946E-05    1.75     143.9  T
     SCC iter.                  ...        0 min,  0.022 sec
     gradient                   ...        0 min,  0.011 sec
 * total energy  :  -116.9836108 Eh     change       -0.6975796E-04 Eh
   gradient norm :     0.0037750 Eh/α   predicted     0.0000000E+00 (-100.00%)
   displ. norm   :     0.0444560 α      lambda       -0.5845357E-04
   maximum displ.:     0.0181856 α      in ANC's #2, #15, #13, ...

........................................................................
.............................. CYCLE   22 ..............................
........................................................................

 iter      E             dE          RMSdq      gap      omega  full diag
   1   -117.7880196 -0.117788E+03  0.120E-02    1.75       0.0  T
   2   -117.7880199 -0.326325E-06  0.686E-03    1.75       2.0  T
   3   -117.7880199  0.282382E-07  0.183E-03    1.75       7.4  T
   4   -117.7880200 -0.822123E-07  0.507E-04    1.75      26.8  T
   5   -117.7880200 -0.536019E-08  0.252E-04    1.75      53.9  T
     SCC iter.                  ...        0 min,  0.027 sec
     gradient                   ...        0 min,  0.011 sec
 * total energy  :  -116.9836579 Eh     change       -0.4705603E-04 Eh
   gradient norm :     0.0020342 Eh/α   predicted    -0.2929622E-04 ( -37.74%)
   displ. norm   :     0.1226918 α      lambda       -0.9068245E-04
   maximum displ.:     0.0536723 α      in ANC's #2, #15, #6, ...

........................................................................
.............................. CYCLE   23 ..............................
........................................................................

 iter      E             dE          RMSdq      gap      omega  full diag
   1   -117.7895047 -0.117790E+03  0.267E-02    1.75       0.0  T
   2   -117.7895060 -0.123854E-05  0.154E-02    1.75       1.0  T
   3   -117.7895058  0.192559E-06  0.393E-03    1.76       3.5  T
   4   -117.7895063 -0.478442E-06  0.114E-03    1.75      11.9  T
   5   -117.7895063 -0.221848E-07  0.544E-04    1.75      25.0  T
   6   -117.7895063 -0.266877E-08  0.142E-04    1.75      95.9  T
     SCC iter.                  ...        0 min,  0.020 sec
     gradient                   ...        0 min,  0.011 sec
 * total energy  :  -116.9837175 Eh     change       -0.5958407E-04 Eh
   gradient norm :     0.0017977 Eh/α   predicted    -0.4602409E-04 ( -22.76%)
   displ. norm   :     0.1612839 α      lambda       -0.4066368E-04
   maximum displ.:     0.0761166 α      in ANC's #2, #10, #6, ...

........................................................................
.............................. CYCLE   24 ..............................
........................................................................

 iter      E             dE          RMSdq      gap      omega  full diag
   1   -117.7894367 -0.117789E+03  0.314E-02    1.76       0.0  T
   2   -117.7894378 -0.108317E-05  0.182E-02    1.76       1.0  T
   3   -117.7894376  0.158064E-06  0.376E-03    1.76       3.6  T
   4   -117.7894382 -0.539274E-06  0.125E-03    1.76      10.9  T
   5   -117.7894382 -0.142172E-07  0.514E-04    1.76      26.5  T
   6   -117.7894382 -0.201511E-08  0.141E-04    1.76      96.5  T
     SCC iter.                  ...        0 min,  0.023 sec
     gradient                   ...        0 min,  0.012 sec
 * total energy  :  -116.9837603 Eh     change       -0.4279270E-04 Eh
   gradient norm :     0.0028677 Eh/α   predicted    -0.2071602E-04 ( -51.59%)
   displ. norm   :     0.1244696 α      lambda       -0.4529504E-04
   maximum displ.:     0.0612727 α      in ANC's #2, #10, #6, ...

........................................................................
.............................. CYCLE   25 ..............................
........................................................................

 iter      E             dE          RMSdq      gap      omega  full diag
   1   -117.7888104 -0.117789E+03  0.226E-02    1.76       0.0  T
   2   -117.7888109 -0.481977E-06  0.132E-02    1.76       1.0  T
   3   -117.7888110 -0.725387E-07  0.191E-03    1.76       7.1  T
   4   -117.7888111 -0.107193E-06  0.860E-04    1.76      15.8  T
   5   -117.7888111 -0.707557E-08  0.373E-04    1.76      36.5  T
     SCC iter.                  ...        0 min,  0.023 sec
     gradient                   ...        0 min,  0.019 sec
 * total energy  :  -116.9837991 Eh     change       -0.3883671E-04 Eh
   gradient norm :     0.0023573 Eh/α   predicted    -0.2299893E-04 ( -40.78%)
   displ. norm   :     0.2682028 α      lambda       -0.8423592E-04
   maximum displ.:     0.1319007 α      in ANC's #2, #10, #6, ...

........................................................................
.............................. CYCLE   26 ..............................
........................................................................

 iter      E             dE          RMSdq      gap      omega  full diag
   1   -117.7874068 -0.117787E+03  0.476E-02    1.77       0.0  T
   2   -117.7874088 -0.204843E-05  0.278E-02    1.77       1.0  T
   3   -117.7874092 -0.403662E-06  0.392E-03    1.77       3.5  T
   4   -117.7874096 -0.395771E-06  0.175E-03    1.77       7.8  T
   5   -117.7874097 -0.210496E-07  0.747E-04    1.77      18.2  T
   6   -117.7874097 -0.732172E-08  0.176E-04    1.77      77.2  T
     SCC iter.                  ...        0 min,  0.030 sec
     gradient                   ...        0 min,  0.012 sec
 * total energy  :  -116.9838584 Eh     change       -0.5926355E-04 Eh
   gradient norm :     0.0022374 Eh/α   predicted    -0.4516293E-04 ( -23.79%)
   displ. norm   :     0.1888277 α      lambda       -0.4286670E-04
   maximum displ.:     0.0955979 α      in ANC's #2, #6, #10, ...

........................................................................
.............................. CYCLE   27 ..............................
........................................................................

 iter      E             dE          RMSdq      gap      omega  full diag
   1   -117.7870474 -0.117787E+03  0.319E-02    1.77       0.0  T
   2   -117.7870483 -0.843736E-06  0.187E-02    1.77       1.0  T
   3   -117.7870485 -0.230576E-06  0.238E-03    1.77       5.7  T
   4   -117.7870486 -0.121635E-06  0.112E-03    1.77      12.1  T
   5   -117.7870486 -0.750212E-08  0.439E-04    1.77      31.0  T
   6   -117.7870486 -0.276704E-08  0.120E-04    1.77     113.1  T
     SCC iter.                  ...        0 min,  0.019 sec
     gradient                   ...        0 min,  0.011 sec
 * total energy  :  -116.9838912 Eh     change       -0.3279242E-04 Eh
   gradient norm :     0.0024848 Eh/α   predicted    -0.2219775E-04 ( -32.31%)
   displ. norm   :     0.1909795 α      lambda       -0.4898213E-04
   maximum displ.:     0.0987009 α      in ANC's #2, #8, #6, ...

........................................................................
.............................. CYCLE   28 ..............................
........................................................................

 iter      E             dE          RMSdq      gap      omega  full diag
   1   -117.7876342 -0.117788E+03  0.302E-02    1.77       0.0  T
   2   -117.7876350 -0.715704E-06  0.178E-02    1.77       1.0  T
   3   -117.7876352 -0.241614E-06  0.193E-03    1.77       7.1  T
   4   -117.7876353 -0.542354E-07  0.978E-04    1.77      13.9  T
   5   -117.7876353 -0.527129E-08  0.370E-04    1.77      36.7  T
     SCC iter.                  ...        0 min,  0.016 sec
     gradient                   ...        0 min,  0.012 sec
 * total energy  :  -116.9839280 Eh     change       -0.3685219E-04 Eh
   gradient norm :     0.0021256 Eh/α   predicted    -0.2540013E-04 ( -31.08%)
   displ. norm   :     0.1792849 α      lambda       -0.3847788E-04
   maximum displ.:     0.0945819 α      in ANC's #2, #8, #6, ...

........................................................................
.............................. CYCLE   29 ..............................
........................................................................

 iter      E             dE          RMSdq      gap      omega  full diag
   1   -117.7884088 -0.117788E+03  0.264E-02    1.77       0.0  T
   2   -117.7884093 -0.515267E-06  0.157E-02    1.77       1.0  T
   3   -117.7884094 -0.174347E-06  0.164E-03    1.77       8.3  T
   4   -117.7884095 -0.475546E-07  0.840E-04    1.77      16.2  T
   5   -117.7884095 -0.368560E-08  0.326E-04    1.77      41.7  T
     SCC iter.                  ...        0 min,  0.016 sec
     gradient                   ...        0 min,  0.012 sec
 * total energy  :  -116.9839563 Eh     change       -0.2828179E-04 Eh
   gradient norm :     0.0016207 Eh/α   predicted    -0.1985815E-04 ( -29.78%)
   displ. norm   :     0.2421777 α      lambda       -0.2496468E-04
   maximum displ.:     0.1313474 α      in ANC's #2, #8, #5, ...

........................................................................
.............................. CYCLE   30 ..............................
........................................................................

 iter      E             dE          RMSdq      gap      omega  full diag
   1   -117.7888895 -0.117789E+03  0.329E-02    1.77       0.0  T
   2   -117.7888903 -0.813695E-06  0.195E-02    1.77       1.0  T
   3   -117.7888905 -0.203808E-06  0.245E-03    1.77       5.5  T
   4   -117.7888907 -0.174651E-06  0.114E-03    1.77      11.9  T
   5   -117.7888907 -0.857467E-08  0.431E-04    1.77      31.6  T
   6   -117.7888907 -0.273863E-08  0.117E-04    1.77     115.9  T
     SCC iter.                  ...        0 min,  0.019 sec
     gradient                   ...        0 min,  0.014 sec
 * total energy  :  -116.9839809 Eh     change       -0.2458261E-04 Eh
   gradient norm :     0.0013141 Eh/α   predicted    -0.1280866E-04 ( -47.90%)
   displ. norm   :     0.1243048 α      lambda       -0.1415205E-04
   maximum displ.:     0.0693339 α      in ANC's #2, #5, #1, ...

........................................................................
.............................. CYCLE   31 ..............................
........................................................................

 iter      E             dE          RMSdq      gap      omega  full diag
   1   -117.7891193 -0.117789E+03  0.142E-02    1.77       0.0  T
   2   -117.7891195 -0.216940E-06  0.851E-03    1.77       1.6  T
   3   -117.7891195 -0.172630E-07  0.143E-03    1.77       9.5  T
   4   -117.7891196 -0.716358E-07  0.594E-04    1.77      22.9  T
   5   -117.7891196 -0.416911E-08  0.216E-04    1.77      63.1  T
     SCC iter.                  ...        0 min,  0.017 sec
     gradient                   ...        0 min,  0.011 sec
 * total energy  :  -116.9839984 Eh     change       -0.1753081E-04 Eh
   gradient norm :     0.0010360 Eh/α   predicted    -0.7127637E-05 ( -59.34%)
   displ. norm   :     0.1663714 α      lambda       -0.1966289E-04
   maximum displ.:     0.0912696 α      in ANC's #2, #5, #1, ...

........................................................................
.............................. CYCLE   32 ..............................
........................................................................

 iter      E             dE          RMSdq      gap      omega  full diag
   1   -117.7888683 -0.117789E+03  0.186E-02    1.77       0.0  T
   2   -117.7888687 -0.407614E-06  0.111E-02    1.77       1.2  T
   3   -117.7888687 -0.492199E-07  0.182E-03    1.77       7.5  T
   4   -117.7888688 -0.990355E-07  0.795E-04    1.77      17.1  T
   5   -117.7888688 -0.814717E-08  0.296E-04    1.77      46.0  T
     SCC iter.                  ...        0 min,  0.016 sec
     gradient                   ...        0 min,  0.011 sec
 * total energy  :  -116.9840205 Eh     change       -0.2211332E-04 Eh
   gradient norm :     0.0009988 Eh/α   predicted    -0.9956966E-05 ( -54.97%)
   displ. norm   :     0.1459872 α      lambda       -0.1303425E-04
   maximum displ.:     0.0765645 α      in ANC's #2, #5, #3, ...

........................................................................
.............................. CYCLE   33 ..............................
........................................................................

 iter      E             dE          RMSdq      gap      omega  full diag
   1   -117.7890155 -0.117789E+03  0.174E-02    1.78       0.0  T
   2   -117.7890158 -0.314171E-06  0.104E-02    1.78       1.3  T
   3   -117.7890158 -0.454331E-07  0.154E-03    1.77       8.8  T
   4   -117.7890159 -0.590415E-07  0.643E-04    1.77      21.2  T
   5   -117.7890159 -0.362446E-08  0.277E-04    1.77      49.1  T
     SCC iter.                  ...        0 min,  0.016 sec
     gradient                   ...        0 min,  0.011 sec
 * total energy  :  -116.9840353 Eh     change       -0.1474313E-04 Eh
   gradient norm :     0.0012862 Eh/α   predicted    -0.6588112E-05 ( -55.31%)
   displ. norm   :     0.1421559 α      lambda       -0.1163434E-04
   maximum displ.:     0.0777205 α      in ANC's #2, #5, #3, ...

........................................................................
.............................. CYCLE   34 ..............................
........................................................................

 iter      E             dE          RMSdq      gap      omega  full diag
   1   -117.7885067 -0.117789E+03  0.166E-02    1.77       0.0  T
   2   -117.7885070 -0.229577E-06  0.989E-03    1.77       1.4  T
   3   -117.7885070 -0.781819E-07  0.105E-03    1.77      13.0  T
   4   -117.7885070 -0.138339E-07  0.521E-04    1.77      26.1  T
   5   -117.7885070 -0.878273E-09  0.163E-04    1.77      83.4  T
     SCC iter.                  ...        0 min,  0.017 sec
     gradient                   ...        0 min,  0.011 sec
 * total energy  :  -116.9840490 Eh     change       -0.1375800E-04 Eh
   gradient norm :     0.0010788 Eh/α   predicted    -0.5873665E-05 ( -57.31%)
   displ. norm   :     0.1848662 α      lambda       -0.1584156E-04
   maximum displ.:     0.0897203 α      in ANC's #2, #5, #3, ...

........................................................................
.............................. CYCLE   35 ..............................
........................................................................

 iter      E             dE          RMSdq      gap      omega  full diag
   1   -117.7887780 -0.117789E+03  0.259E-02    1.78       0.0  T
   2   -117.7887784 -0.473745E-06  0.152E-02    1.78       1.0  T
   3   -117.7887785 -0.658228E-07  0.196E-03    1.77       6.9  T
   4   -117.7887786 -0.106839E-06  0.894E-04    1.78      15.2  T
   5   -117.7887786 -0.664161E-08  0.354E-04    1.78      38.4  T
     SCC iter.                  ...        0 min,  0.016 sec
     gradient                   ...        0 min,  0.011 sec
 * total energy  :  -116.9840669 Eh     change       -0.1785922E-04 Eh
   gradient norm :     0.0009185 Eh/α   predicted    -0.8042992E-05 ( -54.96%)
   displ. norm   :     0.2038923 α      lambda       -0.1577256E-04
   maximum displ.:     0.1102453 α      in ANC's #2, #5, #3, ...

........................................................................
.............................. CYCLE   36 ..............................
........................................................................

 iter      E             dE          RMSdq      gap      omega  full diag
   1   -117.7881854 -0.117788E+03  0.249E-02    1.78       0.0  T
   2   -117.7881859 -0.458623E-06  0.148E-02    1.78       1.0  T
   3   -117.7881860 -0.941090E-07  0.195E-03    1.78       7.0  T
   4   -117.7881861 -0.108610E-06  0.879E-04    1.78      15.5  T
   5   -117.7881861 -0.546646E-08  0.342E-04    1.78      39.8  T
     SCC iter.                  ...        0 min,  0.016 sec
     gradient                   ...        0 min,  0.011 sec
 * total energy  :  -116.9840841 Eh     change       -0.1721657E-04 Eh
   gradient norm :     0.0014093 Eh/α   predicted    -0.8038942E-05 ( -53.31%)
   displ. norm   :     0.1899016 α      lambda       -0.1378841E-04
   maximum displ.:     0.1005428 α      in ANC's #2, #3, #5, ...

........................................................................
.............................. CYCLE   37 ..............................
........................................................................

 iter      E             dE          RMSdq      gap      omega  full diag
   1   -117.7883540 -0.117788E+03  0.232E-02    1.78       0.0  T
   2   -117.7883544 -0.375866E-06  0.138E-02    1.78       1.0  T
   3   -117.7883544 -0.649615E-07  0.186E-03    1.78       7.3  T
   4   -117.7883545 -0.108549E-06  0.831E-04    1.78      16.4  T
   5   -117.7883545 -0.479004E-08  0.293E-04    1.78      46.5  T
     SCC iter.                  ...        0 min,  0.016 sec
     gradient                   ...        0 min,  0.011 sec
 * total energy  :  -116.9840988 Eh     change       -0.1467373E-04 Eh
   gradient norm :     0.0013434 Eh/α   predicted    -0.7008553E-05 ( -52.24%)
   displ. norm   :     0.1399076 α      lambda       -0.9310010E-05
   maximum displ.:     0.0789358 α      in ANC's #2, #5, #3, ...

........................................................................
.............................. CYCLE   38 ..............................
........................................................................

 iter      E             dE          RMSdq      gap      omega  full diag
   1   -117.7886905 -0.117789E+03  0.150E-02    1.78       0.0  T
   2   -117.7886907 -0.220860E-06  0.912E-03    1.78       1.5  T
   3   -117.7886908 -0.598652E-07  0.128E-03    1.78      10.7  T
   4   -117.7886908 -0.472794E-07  0.541E-04    1.78      25.2  T
   5   -117.7886908 -0.312546E-08  0.236E-04    1.78      57.6  T
     SCC iter.                  ...        0 min,  0.016 sec
     gradient                   ...        0 min,  0.011 sec
 * total energy  :  -116.9841084 Eh     change       -0.9617139E-05 Eh
   gradient norm :     0.0010196 Eh/α   predicted    -0.4697654E-05 ( -51.15%)
   displ. norm   :     0.0968377 α      lambda       -0.5218357E-05
   maximum displ.:     0.0573498 α      in ANC's #2, #5, #3, ...

........................................................................
.............................. CYCLE   39 ..............................
........................................................................

 iter      E             dE          RMSdq      gap      omega  full diag
   1   -117.7888726 -0.117789E+03  0.103E-02    1.78       0.0  T
   2   -117.7888727 -0.141984E-06  0.630E-03    1.78       2.2  T
   3   -117.7888728 -0.415723E-07  0.898E-04    1.78      15.2  T
   4   -117.7888728 -0.169348E-07  0.366E-04    1.78      37.1  T
     SCC iter.                  ...        0 min,  0.013 sec
     gradient                   ...        0 min,  0.011 sec
 * total energy  :  -116.9841137 Eh     change       -0.5304772E-05 Eh
   gradient norm :     0.0004619 Eh/α   predicted    -0.2621554E-05 ( -50.58%)
   displ. norm   :     0.0772999 α      lambda       -0.3016535E-05
   maximum displ.:     0.0490716 α      in ANC's #2, #5, #1, ...

........................................................................
.............................. CYCLE   40 ..............................
........................................................................

 iter      E             dE          RMSdq      gap      omega  full diag
   1   -117.7888918 -0.117789E+03  0.875E-03    1.78       0.0  T
   2   -117.7888919 -0.881647E-07  0.534E-03    1.78       2.6  T
   3   -117.7888919 -0.324746E-07  0.679E-04    1.78      20.0  T
   4   -117.7888919 -0.837666E-08  0.330E-04    1.78      41.3  T
     SCC iter.                  ...        0 min,  0.013 sec
     gradient                   ...        0 min,  0.011 sec
 * total energy  :  -116.9841170 Eh     change       -0.3322388E-05 Eh
   gradient norm :     0.0003470 Eh/α   predicted    -0.1515523E-05 ( -54.38%)
   displ. norm   :     0.0561200 α      lambda       -0.2403511E-05
   maximum displ.:     0.0341818 α      in ANC's #2, #5, #1, ...

   *** GEOMETRY OPTIMIZATION CONVERGED AFTER 40 ITERATIONS ***

------------------------------------------------------------------------
 total energy gain   :        -0.0213247 Eh      -13.3814 kcal/mol
 total RMSD          :         0.9582804 a0        0.5071 Å
 total power (kW/mol):        -1.3996995 (step)  -35.8174 (real)
------------------------------------------------------------------------

 ANCopt (total)                0 d,  0 h,  0 min,  1.563 sec
 optimizer setup                ...        0 min,  0.000 sec (  0.013%)
 model hessian                  ...        0 min,  0.099 sec (  6.345%)
 ANC generation                 ...        0 min,  0.004 sec (  0.236%)
 coordinate transformation      ...        0 min,  0.001 sec (  0.073%)
 single point calculation       ...        0 min,  1.444 sec ( 92.400%)
 optimization log               ...        0 min,  0.006 sec (  0.392%)
 hessian update                 ...        0 min,  0.002 sec (  0.132%)
 rational function              ...        0 min,  0.005 sec (  0.295%)

================
 final structure:
================
54
 xtb: 6.7.1 (edcfbbe)
C            1.44290644751543        0.76205777042109       -0.58471876700301
C            1.29202666137449        0.65835111087657       -2.09762065871584
C            1.57708917153639       -0.74456093104507       -2.63768579548694
C            0.64881048721069       -1.83860750932435       -2.10467122989421
C           -0.84031599649051       -1.60466889004092       -2.37063525793332
C           -1.20841405028208       -1.41221356276832       -3.84263802883464
C           -0.78044390124557       -2.57787686582669       -4.74352022292342
N           -1.35411946784785       -3.81731546770830       -4.28798850627612
N           -0.61963661454320       -4.71625835937730       -3.64666440344065
C           -1.42322124981352       -5.67307559840423       -3.30810434223134
N           -2.69063157002839       -5.40301262976241       -3.73054866326023
C           -2.61204485525194       -4.21505242660783       -4.34874092792866
C           -3.87327484811841       -6.20382590780558       -3.50187619909093
C           -4.29150467377793       -6.20875956099066       -2.02594597174600
C           -4.60232892640806       -4.83577275020264       -1.42282864524481
C           -5.76710602642869       -3.99320360809909       -2.04121766434723
C           -7.16903870423864       -4.66215422478976       -2.18343373580264
C           -7.88024734513391       -5.22852506531464       -0.91575931431683
C           -8.25235756440274       -4.23706198178826        0.23009106486134
C           -9.22572677123173       -3.07892231035770       -0.17694561436370
F          -10.20439448440289       -3.52008353414957       -0.95414997694443
F           -9.74859378840871       -2.53188477029234        0.90177151468791
F           -8.55394856183023       -2.14371650405977       -0.84413287902236
F           -8.81735000294304       -4.95376492976409        1.20816549593043
F           -7.12714356584130       -3.69337591389487        0.72646064735186
F           -8.99141009859883       -5.84670284535495       -1.33386390511083
F           -7.07595202660114       -6.18869504683298       -0.40848268118887
F           -7.98036517572243       -3.79821115099127       -2.80286545394062
F           -7.00131235440343       -5.71001570212238       -3.02926645451320
F           -5.87234857102874       -2.83845261762526       -1.37932003864984
F           -5.38547549443392       -3.67036120890032       -3.30831409501541
F           -4.82195701237957       -4.96624934721278       -0.10611080168210
F           -3.49840429146552       -4.04005425537635       -1.53879833826427
H            0.68089417702152        0.18386212654182       -0.06821716351628
H            1.34758786755101        1.79802151389839       -0.27038127188545
H            2.42057992810113        0.40099312377435       -0.27461164921395
H            0.28872441378287        0.97824717279296       -2.38607087855478
H            1.99697661951408        1.34670022031684       -2.56817267824546
H            1.53378586220101       -0.71592451272023       -3.72929152250091
H            2.59905822454906       -1.01655613732247       -2.36608204090081
H            0.95547632486562       -2.79811979666968       -2.52798374724572
H            0.78249514414640       -1.91631225700560       -1.02566628076153
H           -1.40535907824496       -2.44275803555921       -1.95404514779672
H           -1.16218546139100       -0.71289311826854       -1.83350426725658
H           -2.28767367655454       -1.26826551988580       -3.92483424419200
H           -0.72432610292418       -0.51531449351664       -4.22647336169161
H           -1.09867048488996       -2.39355630738519       -5.77165602750647
H            0.30181683429834       -2.70568962446470       -4.71074366974700
H           -1.12314053289411       -6.55503221502570       -2.77947492739604
H           -3.42560034791507       -3.68841110499880       -4.80798153023139
H           -4.67522596388732       -5.83257693876026       -4.14205221125790
H           -3.65584053785151       -7.23649615336444       -3.78875836995918
H           -5.15540052328775       -6.86118227832702       -1.89803544456971
H           -3.48411746046902       -6.61084906859153       -1.40613371526795

 Bond Distances (Angstroems)
 ---------------------------
C1-C2=1.5239         C1-H34=1.0871        C1-H35=1.0868        C1-H36=1.0874        C2-C1=1.5239         C2-C3=1.5301         
C2-H37=1.0919        C2-H38=1.0919        C3-C2=1.5301         C3-C4=1.5306         C3-H39=1.0928        C3-H40=1.0919        
C4-C3=1.5306         C4-C5=1.5307         C4-H41=1.0927        C4-H42=1.0900        C5-C4=1.5307         C5-C6=1.5295         
C5-H43=1.0933        C5-H44=1.0897        C6-C5=1.5295         C6-C7=1.5341         C6-H45=1.0919        C6-H46=1.0891        
C7-C6=1.5341         C7-N8=1.4397         C7-H47=1.0919        C7-H48=1.0903        N8-C7=1.4397         N8-N9=1.3262         
N8-C12=1.3207        N9-N8=1.3262         N9-C10=1.2946        C10-N9=1.2946        C10-N11=1.3630       C10-H49=1.0711       
N11-C10=1.3630       N11-C12=1.3415       N11-C13=1.4465       C12-N8=1.3207        C12-N11=1.3415       C12-H50=1.0724       
C13-N11=1.4465       C13-C14=1.5341       C13-H51=1.0912       C13-H52=1.0936       C14-C13=1.5341       C14-C15=1.5315       
C14-H53=1.0901       C14-H54=1.0944       C15-C14=1.5315       C15-C16=1.5649       C15-F32=1.3413       C15-F33=1.3657       
C16-C15=1.5649       C16-C17=1.5599       C16-F30=1.3352       C16-F31=1.3621       C17-C16=1.5599       C17-C18=1.5600       
C17-F28=1.3373       C17-F29=1.3570       C18-C17=1.5600       C18-C19=1.5603       C18-F26=1.3385       C18-F27=1.3514       
C19-C18=1.5603       C19-C20=1.5667       C19-F24=1.3377       C19-F25=1.3447       C20-C19=1.5667       C20-F21=1.3253       
C20-F22=1.3177       C20-F23=1.3308       F21-C20=1.3253       F22-C20=1.3177       F23-C20=1.3308       F24-C19=1.3377       
F25-C19=1.3447       F26-C18=1.3385       F27-C18=1.3514       F28-C17=1.3373       F29-C17=1.3570       F30-C16=1.3352       
F31-C16=1.3621       F32-C15=1.3413       F33-C15=1.3657       H34-C1=1.0871        H35-C1=1.0868        H36-C1=1.0874        
H37-C2=1.0919        H38-C2=1.0919        H39-C3=1.0928        H40-C3=1.0919        H41-C4=1.0927        H42-C4=1.0900        
H43-C5=1.0933        H44-C5=1.0897        H45-C6=1.0919        H46-C6=1.0891        H47-C7=1.0919        H48-C7=1.0903        
H49-C10=1.0711       H50-C12=1.0724       H51-C13=1.0912       H52-C13=1.0936       H53-C14=1.0901       H54-C14=1.0944       
 C  H  Rav=1.0891 sigma=0.0060  Rmin=1.0711  Rmax=1.0944    21
 C  C  Rav=1.5428 sigma=0.0157  Rmin=1.5239  Rmax=1.5667    13
 N  C  Rav=1.3677 sigma=0.0572  Rmin=1.2946  Rmax=1.4465     6
 N  N  Rav=1.3262 sigma=0.0000  Rmin=1.3262  Rmax=1.3262     1
 F  C  Rav=1.3419 sigma=0.0135  Rmin=1.3177  Rmax=1.3657    13

 selected bond angles (degree)
 --------------------
H34-C1-C2=111.47               H35-C1-C2=110.08               H35-C1-H34=107.94              H36-C1-C2=110.46               
H36-C1-H34=108.55              H36-C1-H35=108.23              C3-C2-C1=113.23                H37-C2-C1=109.47               
H37-C2-C3=110.28               H38-C2-C1=108.72               H38-C2-C3=107.80               H38-C2-H37=107.14              
C4-C3-C2=114.80                H39-C3-C2=108.73               H39-C3-C4=110.03               H40-C3-C2=108.36               
H40-C3-C4=107.64               H40-C3-H39=106.98              C5-C4-C3=114.85                H41-C4-C3=108.82               
H41-C4-C5=109.87               H42-C4-C3=108.74               H42-C4-C5=107.59               H42-C4-H41=106.65              
C6-C5-C4=114.87                H43-C5-C4=108.63               H43-C5-C6=109.80               H44-C5-C4=109.07               
H44-C5-C6=107.48               H44-C5-H43=106.67              C7-C6-C5=113.73                H45-C6-C5=109.08               
H45-C6-C7=109.37               H46-C6-C5=109.62               H46-C6-C7=107.14               H46-C6-H45=107.71              
N8-C7-C6=110.93                H47-C7-C6=110.08               H47-C7-N8=109.09               H48-C7-C6=110.39               
H48-C7-N8=106.56               H48-C7-H47=109.72              N9-N8-C7=121.05                C12-N8-C7=128.63               
C12-N8-N9=110.22               C10-N9-N8=106.48               N11-C10-N9=110.47              H49-C10-N9=124.31              
H49-C10-N11=125.21             

 selected dihedral angles (degree)
 ---------------------------------
C3-C2-C1-H34=292.97           C3-C2-C1-H35=173.22           C3-C2-C1-H36= 53.75           H37-C2-C1-H34= 56.46          
H37-C2-C1-H35=296.70          H37-C2-C1-H36=177.23          H38-C2-C1-H34=173.19          H38-C2-C1-H35= 53.44          
H38-C2-C1-H36=293.97          C4-C3-C2-C1= 61.15            C4-C3-C2-H37=298.11           C4-C3-C2-H38=181.46           
H39-C3-C2-C1=184.88           H39-C3-C2-H37= 61.84          H39-C3-C2-H38=305.18          H40-C3-C2-C1=300.82           
H40-C3-C2-H37=177.78          H40-C3-C2-H38= 61.13          C5-C4-C3-C2= 58.01            C5-C4-C3-H39=294.98           
C5-C4-C3-H40=178.74           H41-C4-C3-C2=181.63           H41-C4-C3-H39= 58.60          H41-C4-C3-H40=302.36          
H42-C4-C3-C2=297.43           H42-C4-C3-H39=174.40          H42-C4-C3-H40= 58.16          C6-C5-C4-C3= 56.37            
C6-C5-C4-H41=293.32           C6-C5-C4-H42=177.59           H43-C5-C4-C3=179.77           H43-C5-C4-H41= 56.71          
H43-C5-C4-H42=300.98          H44-C5-C4-C3=295.67           H44-C5-C4-H41=172.62          H44-C5-C4-H42= 56.89          
C7-C6-C5-C4= 56.80            C7-C6-C5-H43=294.04           C7-C6-C5-H44=178.38           H45-C6-C5-C4=179.18           
H45-C6-C5-H43= 56.41          H45-C6-C5-H44=300.75          H46-C6-C5-C4=296.90           H46-C6-C5-H43=174.13          
H46-C6-C5-H44= 58.47          N8-C7-C6-C5= 57.40            N8-C7-C6-H45=295.19           N8-C7-C6-H46=178.70           
H47-C7-C6-C5=178.24           H47-C7-C6-H45= 56.03          H47-C7-C6-H46=299.54          H48-C7-C6-C5=299.52           
H48-C7-C6-H45=177.30          H48-C7-C6-H46= 60.82          N9-N8-C7-C6=255.43            N9-N8-C7-H47=134.00           
N9-N8-C7-H48= 15.62           C12-N8-C7-C6= 71.39           C12-N8-C7-H47=309.97          C12-N8-C7-H48=191.58          
C10-N9-N8-C7=176.60           C10-N9-N8-C12=359.96          N11-C10-N9-N8=  0.10          H49-C10-N9-N8=179.48          
           -------------------------------------------------
          |                Final Singlepoint                |
           -------------------------------------------------

          ...................................................
          :                      SETUP                      :
          :.................................................:
          :  # basis functions                 153          :
          :  # atomic orbitals                 153          :
          :  # shells                           87          :
          :  # electrons                       194          :
          :  max. iterations                   250          :
          :  Hamiltonian                  GFN2-xTB          :
          :  restarted?                      false          :
          :  GBSA solvation                  false          :
          :  PC potential                    false          :
          :  electronic temp.          300.0000000     K    :
          :  accuracy                    1.0000000          :
          :  -> integral cutoff          0.2500000E+02      :
          :  -> integral neglect         0.1000000E-07      :
          :  -> SCF convergence          0.1000000E-05 Eh   :
          :  -> wf. convergence          0.1000000E-03 e    :
          :  Broyden damping             0.4000000          :
          :  net charge                          1          :
          :  unpaired electrons                  0          :
          ...................................................

 iter      E             dE          RMSdq      gap      omega  full diag
   1   -117.7888919 -0.117789E+03  0.137E-04    1.78       0.0  T
   2   -117.7888919 -0.994760E-10  0.801E-05    1.78     169.9  T
   3   -117.7888919 -0.999023E-11  0.458E-05    1.78     297.4  T

   *** convergence criteria satisfied after 3 iterations ***

         #    Occupation            Energy/Eh            Energy/eV
      -------------------------------------------------------------
         1        2.0000           -1.0408074             -28.3218
       ...           ...                  ...                  ...
        91        2.0000           -0.5625681             -15.3083
        92        2.0000           -0.5454951             -14.8437
        93        2.0000           -0.5366733             -14.6036
        94        2.0000           -0.5318164             -14.4715
        95        2.0000           -0.5106916             -13.8966
        96        2.0000           -0.5057568             -13.7623
        97        2.0000           -0.5009839             -13.6325 (HOMO)
        98                         -0.4354320             -11.8487 (LUMO)
        99                         -0.4118265             -11.2064
       100                         -0.2426839              -6.6038
       101                         -0.2370605              -6.4507
       102                         -0.2233693              -6.0782
       ...                                ...                  ...
       153                          0.3512908               9.5591
      -------------------------------------------------------------
                  HL-Gap            0.0655519 Eh            1.7838 eV
             Fermi-level           -0.4682079 Eh          -12.7406 eV

 SCC (total)                   0 d,  0 h,  0 min,  0.026 sec
 SCC setup                      ...        0 min,  0.000 sec (  0.462%)
 Dispersion                     ...        0 min,  0.000 sec (  1.282%)
 classical contributions        ...        0 min,  0.000 sec (  0.208%)
 integral evaluation            ...        0 min,  0.003 sec ( 13.204%)
 iterations                     ...        0 min,  0.011 sec ( 40.291%)
 molecular gradient             ...        0 min,  0.011 sec ( 43.485%)
 printout                       ...        0 min,  0.000 sec (  1.002%)

         :::::::::::::::::::::::::::::::::::::::::::::::::::::
         ::                     SUMMARY                     ::
         :::::::::::::::::::::::::::::::::::::::::::::::::::::
         :: total energy            -116.984117025261 Eh    ::
         :: gradient norm              0.000343070605 Eh/a0 ::
         :: HOMO-LUMO gap              1.783757058045 eV    ::
         ::.................................................::
         :: SCC energy              -117.788253905081 Eh    ::
         :: -> isotropic ES            0.262277082544 Eh    ::
         :: -> anisotropic ES          0.015190356141 Eh    ::
         :: -> anisotropic XC         -0.057315641461 Eh    ::
         :: -> dispersion             -0.053744229115 Eh    ::
         :: repulsion energy           0.804136879820 Eh    ::
         :: add. restraining           0.000000000000 Eh    ::
         :: total charge               1.000000000000 e     ::
         :::::::::::::::::::::::::::::::::::::::::::::::::::::

           -------------------------------------------------
          |                Property Printout                |
           -------------------------------------------------

    * Orbital Energies and Occupations

         #    Occupation            Energy/Eh            Energy/eV
      -------------------------------------------------------------
         1        2.0000           -1.0408074             -28.3218
       ...           ...                  ...                  ...
        85        2.0000           -0.6108054             -16.6209
        86        2.0000           -0.6039117             -16.4333
        87        2.0000           -0.5992185             -16.3056
        88        2.0000           -0.5884983             -16.0139
        89        2.0000           -0.5816975             -15.8288
        90        2.0000           -0.5666157             -15.4184
        91        2.0000           -0.5625681             -15.3083
        92        2.0000           -0.5454951             -14.8437
        93        2.0000           -0.5366733             -14.6036
        94        2.0000           -0.5318164             -14.4715
        95        2.0000           -0.5106916             -13.8966
        96        2.0000           -0.5057568             -13.7623
        97        2.0000           -0.5009839             -13.6325 (HOMO)
        98                         -0.4354320             -11.8487 (LUMO)
        99                         -0.4118265             -11.2064
       100                         -0.2426839              -6.6038
       101                         -0.2370605              -6.4507
       102                         -0.2233693              -6.0782
       103                         -0.2139109              -5.8208
       104                         -0.2101797              -5.7193
       105                         -0.1892741              -5.1504
       106                         -0.1804979              -4.9116
       107                         -0.1618347              -4.4037
       108                         -0.1349047              -3.6709
       ...                                ...                  ...
       153                          0.3512908               9.5591
      -------------------------------------------------------------
                  HL-Gap            0.0655519 Eh            1.7838 eV
             Fermi-level           -0.4682079 Eh          -12.7406 eV

     #   Z          covCN         q      C6AA      α(0)
     1   6 C        3.752    -0.107    22.605     6.780
     2   6 C        3.799    -0.056    21.585     6.615
     3   6 C        3.800    -0.063    21.714     6.635
     4   6 C        3.800    -0.069    21.815     6.650
     5   6 C        3.800    -0.067    21.789     6.646
     6   6 C        3.802    -0.071    21.856     6.656
     7   6 C        3.742    -0.041    21.376     6.596
     8   7 N        3.061     0.172    18.366     6.365
     9   7 N        2.048    -0.130    24.507     7.343
    10   6 C        3.143     0.086    25.855     8.320
    11   7 N        2.856     0.048    20.397     6.708
    12   6 C        3.065     0.051    26.786     8.487
    13   6 C        3.738    -0.029    21.174     6.566
    14   6 C        3.803    -0.098    22.368     6.733
    15   6 C        3.516     0.318    16.952     6.077
    16   6 C        3.518     0.312    17.021     6.087
    17   6 C        3.518     0.310    17.037     6.089
    18   6 C        3.517     0.315    16.986     6.082
    19   6 C        3.515     0.309    17.075     6.101
    20   6 C        3.326     0.487    17.416     6.631
    21   9 F        0.791    -0.158    10.811     3.884
    22   9 F        0.791    -0.136    10.594     3.845
    23   9 F        0.791    -0.167    10.896     3.899
    24   9 F        0.790    -0.144    10.673     3.859
    25   9 F        0.789    -0.169    10.922     3.904
    26   9 F        0.790    -0.149    10.720     3.868
    27   9 F        0.790    -0.176    10.990     3.916
    28   9 F        0.789    -0.156    10.790     3.880
    29   9 F        0.790    -0.182    11.051     3.927
    30   9 F        0.789    -0.158    10.812     3.884
    31   9 F        0.790    -0.194    11.168     3.948
    32   9 F        0.789    -0.181    11.042     3.925
    33   9 F        0.790    -0.205    11.288     3.969
    34   1 H        0.925     0.034     2.531     2.488
    35   1 H        0.925     0.042     2.427     2.436
    36   1 H        0.925     0.041     2.440     2.443
    37   1 H        0.924     0.029     2.604     2.524
    38   1 H        0.924     0.038     2.472     2.459
    39   1 H        0.924     0.024     2.674     2.557
    40   1 H        0.924     0.044     2.395     2.420
    41   1 H        0.924     0.032     2.559     2.502
    42   1 H        0.925     0.053     2.283     2.363
    43   1 H        0.924     0.026     2.639     2.541
    44   1 H        0.925     0.065     2.137     2.286
    45   1 H        0.924     0.050     2.314     2.379
    46   1 H        0.925     0.086     1.915     2.164
    47   1 H        0.924     0.091     1.865     2.135
    48   1 H        0.924     0.122     1.596     1.976
    49   1 H        0.926     0.123     1.590     1.972
    50   1 H        0.926     0.135     1.499     1.914
    51   1 H        0.924     0.109     1.707     2.043
    52   1 H        0.924     0.118     1.627     1.994
    53   1 H        0.925     0.118     1.632     1.998
    54   1 H        0.924     0.117     1.635     2.000

 Mol. C6AA /au·bohr⁶  :      26646.233393
 Mol. C8AA /au·bohr⁸  :     575460.275634
 Mol. α(0) /au        :        232.467473


Wiberg/Mayer (AO) data.
largest (>0.10) Wiberg bond orders for each atom

 ---------------------------------------------------------------------------
     #   Z sym  total        # sym  WBO       # sym  WBO       # sym  WBO
 ---------------------------------------------------------------------------
     1   6 C    3.996 --     2 C    1.020    36 H    0.987    35 H    0.986
                            34 H    0.986
     2   6 C    3.997 --     1 C    1.020     3 C    1.007    38 H    0.977
                            37 H    0.976
     3   6 C    3.996 --     2 C    1.007     4 C    1.007    39 H    0.976
                            40 H    0.976
     4   6 C    3.994 --     3 C    1.007     5 C    1.006    41 H    0.974
                            42 H    0.973
     5   6 C    3.991 --     6 C    1.007     4 C    1.006    43 H    0.977
                            44 H    0.969
     6   6 C    3.978 --     5 C    1.007    45 H    0.975     7 C    0.972
                            46 H    0.962
     7   6 C    3.917 --     6 C    0.972     8 N    0.961    47 H    0.957
                            48 H    0.956
     8   7 N    3.760 --    12 C    1.424     9 N    1.212     7 C    0.961
     9   7 N    3.034 --    10 C    1.599     8 N    1.212
    10   6 C    3.947 --     9 N    1.599    11 N    1.233    49 H    0.953
    11   7 N    3.704 --    12 C    1.321    10 C    1.233    13 C    0.978
    12   6 C    3.947 --     8 N    1.424    11 N    1.321    50 H    0.948
    13   6 C    3.944 --    14 C    0.997    11 N    0.978    51 H    0.962
                            52 H    0.954
    14   6 C    3.970 --    13 C    0.997    15 C    0.968    54 H    0.957
                            53 H    0.957
    15   6 C    3.868 --    32 F    0.975    14 C    0.968    33 F    0.942
                            16 C    0.906
    16   6 C    3.881 --    30 F    0.992    31 F    0.949    17 C    0.912
                            15 C    0.906
    17   6 C    3.889 --    28 F    0.990    29 F    0.959    16 C    0.912
                            18 C    0.910
    18   6 C    3.895 --    26 F    0.991    27 F    0.966    17 C    0.910
                            19 C    0.908
    19   6 C    3.897 --    24 F    0.993    25 F    0.975    18 C    0.908
                            20 C    0.883
    20   6 C    3.887 --    22 F    0.997    21 F    0.979    23 F    0.969
                            19 C    0.883
    21   9 F    1.116 --    20 C    0.979
    22   9 F    1.139 --    20 C    0.997
    23   9 F    1.106 --    20 C    0.969
    24   9 F    1.117 --    19 C    0.993
    25   9 F    1.092 --    19 C    0.975
    26   9 F    1.114 --    18 C    0.991
    27   9 F    1.085 --    18 C    0.966
    28   9 F    1.111 --    17 C    0.990
    29   9 F    1.077 --    17 C    0.959
    30   9 F    1.113 --    16 C    0.992
    31   9 F    1.066 --    16 C    0.949
    32   9 F    1.090 --    15 C    0.975
    33   9 F    1.057 --    15 C    0.942
    34   1 H    0.999 --     1 C    0.986
    35   1 H    0.998 --     1 C    0.986
    36   1 H    0.998 --     1 C    0.987
    37   1 H    0.999 --     2 C    0.976
    38   1 H    0.999 --     2 C    0.977
    39   1 H    0.999 --     3 C    0.976
    40   1 H    0.998 --     3 C    0.976
    41   1 H    0.999 --     4 C    0.974
    42   1 H    0.997 --     4 C    0.973
    43   1 H    0.999 --     5 C    0.977
    44   1 H    0.996 --     5 C    0.969
    45   1 H    0.997 --     6 C    0.975
    46   1 H    0.992 --     6 C    0.962
    47   1 H    0.991 --     7 C    0.957
    48   1 H    0.985 --     7 C    0.956
    49   1 H    0.985 --    10 C    0.953
    50   1 H    0.982 --    12 C    0.948
    51   1 H    0.988 --    13 C    0.962
    52   1 H    0.985 --    13 C    0.954
    53   1 H    0.985 --    14 C    0.957
    54   1 H    0.986 --    14 C    0.957
 ---------------------------------------------------------------------------

Topologies differ in total number of bonds
Writing topology from bond orders to xtbtopo.mol

molecular dipole:
                 x           y           z       tot (Debye)
 q only:       -4.024      -8.839      -7.392
   full:       -4.603      -9.067      -7.484      32.091
molecular quadrupole (traceless):
                xx          xy          yy          xz          yz          zz
 q only:      -50.382      69.611      54.593      42.408      91.568      -4.212
  q+dip:      -47.937      75.267      55.533      49.047      93.477      -7.596
   full:      -49.184      76.001      55.420      48.449      94.360      -6.236

           -------------------------------------------------
          |                Geometry Summary                 |
           -------------------------------------------------

      molecular mass/u    :      514.3486168
   center of mass at/Å    :       -4.9056962      -3.7521540      -1.7927765
  moments of inertia/u·Å² :        0.2172806E+04   0.7924794E+04   0.8918335E+04
rotational constants/cm⁻¹ :        0.7758462E-02   0.2127201E-02   0.1890222E-02

 * 49 selected distances

     #   Z          #   Z                                           value/Å
     1   6 C        2   6 C                                       1.5239397
     2   6 C        3   6 C                                       1.5300633
     3   6 C        4   6 C                                       1.5306026
     4   6 C        5   6 C                                       1.5306738
     5   6 C        6   6 C                                       1.5294861
     6   6 C        7   6 C                                       1.5341182 (max)
     7   6 C        8   7 N                                       1.4397296
     8   7 N        9   7 N                                       1.3262203
     9   7 N       10   6 C                                       1.2945543
    10   6 C       11   7 N                                       1.3629829
     8   7 N       12   6 C                                       1.3207052
    11   7 N       12   6 C                                       1.3414870
    11   7 N       13   6 C                                       1.4464572
    13   6 C       14   6 C                                       1.5340505
    14   6 C       15   6 C                                       1.5314880
    20   6 C       21   9 F                                       1.3253153
    20   6 C       22   9 F                                       1.3176763
    20   6 C       23   9 F                                       1.3308024
    19   6 C       24   9 F                                       1.3377255
    19   6 C       25   9 F                                       1.3446502
    18   6 C       26   9 F                                       1.3385209
    18   6 C       27   9 F                                       1.3513502
    17   6 C       28   9 F                                       1.3372899
    17   6 C       29   9 F                                       1.3570479
    16   6 C       30   9 F                                       1.3351534
    16   6 C       31   9 F                                       1.3621317
    15   6 C       32   9 F                                       1.3412706
    15   6 C       33   9 F                                       1.3657477
     1   6 C       34   1 H                                       1.0870819
     1   6 C       35   1 H                                       1.0867911
     1   6 C       36   1 H                                       1.0873729
     2   6 C       37   1 H                                       1.0918574
     2   6 C       38   1 H                                       1.0918784
     3   6 C       39   1 H                                       1.0928397
     3   6 C       40   1 H                                       1.0918658
     4   6 C       41   1 H                                       1.0926580
     4   6 C       42   1 H                                       1.0900282
     5   6 C       43   1 H                                       1.0932587
     5   6 C       44   1 H                                       1.0896669
     6   6 C       45   1 H                                       1.0919152
     6   6 C       46   1 H                                       1.0890817
     7   6 C       47   1 H                                       1.0919275
     7   6 C       48   1 H                                       1.0902747
    10   6 C       49   1 H                                       1.0711420 (min)
    12   6 C       50   1 H                                       1.0724392
    13   6 C       51   1 H                                       1.0912273
    13   6 C       52   1 H                                       1.0936120
    14   6 C       53   1 H                                       1.0901068
    14   6 C       54   1 H                                       1.0944028

 * 5 distinct bonds (by element types)

   Z      Z             #   av. dist./Å        max./Å        min./Å
   1 H    6 C          21     1.0891156     1.0944028     1.0711420
   6 C    6 C           8     1.5305528     1.5341182     1.5239397
   6 C    7 N           6     1.3676527     1.4464572     1.2945543
   7 N    7 N           1     1.3262203     1.3262203     1.3262203
   6 C    9 F          13     1.3418986     1.3657477     1.3176763


optimized geometry written to: xtbopt.xyz


           -------------------------------------------------
          | TOTAL ENERGY             -116.984117025261 Eh   |
          | GRADIENT NORM               0.000343070605 Eh/α |
          | HOMO-LUMO GAP               1.783757058045 eV   |
           -------------------------------------------------

------------------------------------------------------------------------
 * finished run on 2024/12/20 at 07:14:25.904     
------------------------------------------------------------------------
 total:
 * wall-time:     0 d,  0 h,  0 min,  1.687 sec
 *  cpu-time:     0 d,  0 h,  0 min, 13.043 sec
 * ratio c/w:     7.733 speedup
 SCF:
 * wall-time:     0 d,  0 h,  0 min,  0.074 sec
 *  cpu-time:     0 d,  0 h,  0 min,  0.539 sec
 * ratio c/w:     7.274 speedup
 ANC optimizer:
 * wall-time:     0 d,  0 h,  0 min,  1.590 sec
 *  cpu-time:     0 d,  0 h,  0 min, 12.363 sec
 * ratio c/w:     7.773 speedup

