36
 energy: -40.231732596625 gnorm: 0.054169890117 xtb: 6.7.1 (edcfbbe)
C            0.62669000000000       -1.00533000000000       -1.50275000000000
C            0.14706000000000        0.41681000000000       -1.72881000000000
O            0.77089000000000        1.33461000000000       -0.82718000000000
C            2.11601000000000        1.65260000000000       -1.17038000000000
C            2.65959000000000        2.80657000000000       -0.30101000000000
N            2.51314000000000        2.62395000000000        1.24019000000000
C            2.97267000000000        1.19390000000000        1.68078000000000
C            4.43043000000000        0.88380000000000        1.37237000000000
C            3.41821000000000        3.64223000000000        1.98318000000000
C            3.00762000000000        5.09578000000000        1.85130000000000
C            1.03076000000000        2.73073000000000        1.72594000000000
C            0.16214000000000        3.77292000000000        1.03471000000000
H            0.03737000000000       -1.70920000000000       -2.09763000000000
H            0.54482000000000       -1.27757000000000       -0.44555000000000
H            1.67760000000000       -1.11904000000000       -1.78492000000000
H            0.30200000000000        0.73242000000000       -2.76646000000000
H           -0.92864000000000        0.46395000000000       -1.52986000000000
H            2.74611000000000        0.76527000000000       -1.06192000000000
H            2.16288000000000        1.96655000000000       -2.21988000000000
H            3.72651000000000        2.94285000000000       -0.50954000000000
H            2.15692000000000        3.74175000000000       -0.56077000000000
H            2.79895000000000        1.12650000000000        2.76187000000000
H            2.31762000000000        0.46647000000000        1.19155000000000
H            5.11392000000000        1.48977000000000        1.97356000000000
H            4.63717000000000       -0.16274000000000        1.62170000000000
H            4.67845000000000        1.02140000000000        0.31743000000000
H            3.43253000000000        3.35318000000000        3.04052000000000
H            4.42802000000000        3.52806000000000        1.57672000000000
H            2.11649000000000        5.31473000000000        2.44515000000000
H            3.80478000000000        5.73390000000000        2.24905000000000
H            2.84209000000000        5.39582000000000        0.81385000000000
H            0.56877000000000        1.74571000000000        1.59941000000000
H            1.07454000000000        2.92741000000000        2.80378000000000
H           -0.01294000000000        3.54362000000000       -0.01883000000000
H           -0.82284000000000        3.78826000000000        1.51498000000000
H            0.55715000000000        4.78582000000000        1.09364000000000
36
 energy: -40.239886807720 gnorm: 0.028370293347 xtb: 6.7.1 (edcfbbe)
C            0.63580641325566       -1.00978059271524       -1.50260944755809
C            0.15743980036864        0.41938590352192       -1.71287078782143
O            0.77323214890510        1.34404801114334       -0.81821520755690
C            2.11639722456124        1.65507098113116       -1.14018900399311
C            2.64230959951918        2.79937744958505       -0.26435886238123
N            2.50501172278845        2.61468620987147        1.23939798890988
C            2.97409512330327        1.22118741552264        1.66348515450797
C            4.42806097894027        0.89560107631801        1.36986268738775
C            3.39414556041664        3.62638869594719        1.95335775014016
C            2.99772581985239        5.08678188210965        1.84734345231374
C            1.05301614772823        2.74193568949970        1.71151506749341
C            0.17400629755448        3.76965059976505        1.02482610541359
H            0.03739370925212       -1.69533432836135       -2.09716796771656
H            0.53515639142837       -1.28549238120425       -0.45292104808949
H            1.67890989749461       -1.13239209132747       -1.79479920664188
H            0.32097779400029        0.73612477989465       -2.75023066609993
H           -0.91372574914390        0.48807347921863       -1.50240616076489
H            2.75081687970084        0.76645017803990       -1.04177165397705
H            2.17544300878332        1.99029394759582       -2.18605962001934
H            3.70508995176573        2.92783050752634       -0.48096823529526
H            2.12878618420627        3.72457905087045       -0.52304745501834
H            2.79483126664800        1.15224808681470        2.73927103490532
H            2.31778226129859        0.50634778137489        1.16637591122598
H            5.11466026820205        1.48713796269242        1.97199345985951
H            4.60581309929716       -0.15003994520247        1.62229873392828
H            4.67898548482060        1.02156025027717        0.31949851843569
H            3.40942587178628        3.33548871167747        3.00622234213469
H            4.40081206722062        3.50394634253677        1.55046475471579
H            2.11250454931862        5.31517421433019        2.43674241830654
H            3.80904825560943        5.69574151674744        2.24890504161913
H            2.84493596588310        5.39900952498994        0.81756760093030
H            0.59574282841815        1.76195874625746        1.56688474791018
H            1.10383974970190        2.94290085682845        2.78478142263596
H           -0.00556458655957        3.51337549062274       -0.01688797846033
H           -0.79604186139445        3.76142685396418        1.52388898265337
H            0.55860987506832        4.78271714213604        1.08601012596664
36
 energy: -40.241975125216 gnorm: 0.005292932914 xtb: 6.7.1 (edcfbbe)
C            0.64037064182598       -1.01185445734446       -1.49783573803530
C            0.16738978602236        0.42385806616937       -1.69552600570640
O            0.78154640627004        1.34987237338843       -0.80588549323936
C            2.11894495225008        1.65999111283293       -1.11721192209988
C            2.63650518560555        2.80028463924783       -0.23810910846693
N            2.50491546305480        2.61864802892611        1.23299611802988
C            2.95960712024822        1.25082868401786        1.64940165381484
C            4.41419196065811        0.91224138500904        1.36591843156091
C            3.38125530513479        3.61150424967450        1.93616792553251
C            2.99387123094104        5.07698896590867        1.83953149423758
C            1.07796794576810        2.73711546347495        1.70217772923631
C            0.18758959252539        3.75700913408099        1.01507342230971
H            0.03089904833763       -1.67676332612589       -2.09998628124471
H            0.53310825790366       -1.29998731637334       -0.45469954458111
H            1.67664940999007       -1.13864276854801       -1.80105563595745
H            0.33355359937850        0.74382176417120       -2.73252154745625
H           -0.89855217819589        0.50345583318502       -1.47070090879359
H            2.75675903850798        0.77078899153018       -1.02737656417367
H            2.18860123367288        2.00698207791655       -2.16116963685598
H            3.69411946018771        2.93087437444615       -0.47032159453351
H            2.10909984440795        3.71455009790616       -0.49999589153399
H            2.77957719327666        1.16620417017863        2.72284594430523
H            2.31231675880811        0.53497489241052        1.14451222317459
H            5.10536128626397        1.48951079852713        1.97184149307916
H            4.56559351569655       -0.13407137220791        1.62271670353565
H            4.67693208368662        1.02857654708696        0.31922112958346
H            3.40239930738805        3.32499968226158        2.98946883287440
H            4.38589154308229        3.49187456370128        1.53197778864801
H            2.11131830963851        5.30898060706031        2.42562410693633
H            3.81470928531233        5.66060723271752        2.25187339375179
H            2.85182866348970        5.40385474048769        0.81445940073884
H            0.61147209612039        1.76445071596191        1.54984531377669
H            1.12347524555300        2.94400475119658        2.77254550883473
H           -0.00305204736296        3.47984823926211       -0.01646392841043
H           -0.76975618967145        3.73467759037669        1.53176187994259
H            0.55901964422322        4.77339946748474        1.06508930718539
36
 energy: -40.242105450199 gnorm: 0.002296594545 xtb: 6.7.1 (edcfbbe)
C            0.63999576336693       -1.01127609028773       -1.49663485424157
C            0.16930395266885        0.42626812588834       -1.68653993171087
O            0.78928149607582        1.34899362885254       -0.79806902151787
C            2.12310863215031        1.66214917818865       -1.11648712944679
C            2.63707649365780        2.80612371431411       -0.23735400340678
N            2.50522387570105        2.61801326397757        1.23377507061484
C            2.95855280676426        1.24901685327003        1.64582782032701
C            4.41453582645863        0.90834797318826        1.36599927875959
C            3.38229045969438        3.61038817638580        1.93507179642703
C            2.99714578543114        5.07725503459207        1.83811009460186
C            1.07811725428369        2.73878777964688        1.70181954970158
C            0.18099920186173        3.75345504138802        1.01119099483942
H            0.02602765571379       -1.66945995785410       -2.10314521751409
H            0.53548518444800       -1.30727481483808       -0.45515630625563
H            1.67546121071751       -1.13946380880390       -1.80292422413301
H            0.33160232430033        0.74846221161941       -2.72308339821354
H           -0.89520484283660        0.50560958594357       -1.45619791182660
H            2.76446216954585        0.77534340130514       -1.02688124003105
H            2.19102961220044        2.00882684123820       -2.16023132373724
H            3.69351588378496        2.94381197176836       -0.47251394523280
H            2.10432484461713        3.71775598594167       -0.50071206619073
H            2.77542564390264        1.15962874101481        2.71886692440996
H            2.31362287418964        0.53255840120133        1.13741856154429
H            5.10384173995253        1.48478386530326        1.97554201974864
H            4.56206932187029       -0.13876723729284        1.62135141841483
H            4.68012878710280        1.02853830145349        0.32007947592471
H            3.40527637827890        3.32636408494871        2.98940731329660
H            4.38736628586134        3.49216474009330        1.52990878694807
H            2.11066589421424        5.30844916785204        2.41952359232653
H            3.81643659218582        5.65815880700541        2.25683155600219
H            2.86075444103420        5.40605823570112        0.81244864584460
H            0.61030647892451        1.76595673698530        1.55316372597893
H            1.12156949085904        2.94768190160815        2.77211709060203
H           -0.01383326720794        3.46587691000013       -0.01730280747368
H           -0.77330858306139        3.73441245522246        1.53344546244064
H            0.55282233128726        4.77046079317848        1.04752420217898
36
 energy: -40.242231505354 gnorm: 0.003159236997 xtb: 6.7.1 (edcfbbe)
C            0.63909623849908       -1.01156724540727       -1.49685044455416
C            0.17136348168713        0.42904548949523       -1.66965325902597
O            0.80523872166482        1.34395425527076       -0.78379435727717
C            2.13132036882491        1.66553242545686       -1.11879556348480
C            2.63768597543772        2.81495810673022       -0.23871959234335
N            2.50644883559174        2.62024133062628        1.23336401682319
C            2.95468312619962        1.24812495044329        1.63962927219849
C            4.41306086519555        0.90409013953555        1.36641707854602
C            3.38570542383212        3.60816139885102        1.93640033195950
C            3.00225276672043        5.07651098450611        1.83660795528960
C            1.07953489031511        2.74134875294511        1.70346522728435
C            0.17323700803868        3.74564545538790        1.00328169548457
H            0.01827179101928       -1.65840528550261       -2.10991457569582
H            0.54016843319432       -1.32203644908064       -0.45867865286380
H            1.67294392645506       -1.14033860042425       -1.80943984939266
H            0.32261669381050        0.75716059935482       -2.70549755265511
H           -0.88989005039814        0.50829272737144       -1.42530551997994
H            2.78254429787452        0.78536673861928       -1.03174535493306
H            2.19098788065301        2.01258464038606       -2.16216917400526
H            3.69193188958607        2.96834052295263       -0.47607362410839
H            2.09297809708813        3.72085521816089       -0.50069368920183
H            2.76508893521981        1.15085526342175        2.71154054536865
H            2.31214937620435        0.53367534665462        1.12370946531922
H            5.09964251467252        1.47614636295364        1.98409757825317
H            4.55401022991061       -0.14485964380940        1.61644441990389
H            4.68526763382266        1.03218551008794        0.32262602710371
H            3.40945042786706        3.32696289439592        2.99198970856958
H            4.39157157572947        3.49032772428126        1.53084849031718
H            2.10490093670340        5.30593732528840        2.40345945899624
H            3.81512454857069        5.65444357682555        2.27083233028412
H            2.88206327144568        5.40808304584989        0.80918805807332
H            0.61201992251086        1.76624035078746        1.56567961603597
H            1.12195369855226        2.95941322452204        2.77240774791656
H           -0.03356435220573        3.43525687256781       -0.01736968270364
H           -0.77370756798703        3.73755554329386        1.53878082727640
H            0.54732818769361        4.76337044720054        1.01012104122130
36
 energy: -40.242297343053 gnorm: 0.003663321431 xtb: 6.7.1 (edcfbbe)
C            0.63904194833127       -1.01347015894428       -1.49980689080718
C            0.17180789428901        0.42881193278207       -1.65831563283904
O            0.81602717527339        1.33672613316894       -0.77298677969348
C            2.13642235561368        1.66785182379786       -1.11953691497247
C            2.63739596195572        2.82021413765403       -0.23946352502712
N            2.50708220422022        2.62094255394638        1.23277530905348
C            2.95248008833064        1.24685943500607        1.63566146526746
C            4.41181660795648        0.90246193140314        1.36662746982055
C            3.38725574715959        3.60669938616852        1.93715923702909
C            3.00504698066067        5.07556441616532        1.83592299222159
C            1.08064894786720        2.74462992697916        1.70509101684979
C            0.17023908782919        3.74093010081306        0.99775054846983
H            0.01552152506289       -1.65416213773324       -2.11622859070657
H            0.54410120466317       -1.33331677198768       -0.46409470543188
H            1.67176913532557       -1.13957110906560       -1.81708115068338
H            0.31231465259448        0.76351717878633       -2.69356148332778
H           -0.88674132269976        0.50757719768601       -1.40187878002963
H            2.79650089473955        0.79335682021212       -1.03854614613773
H            2.18591467791504        2.01715757226083       -2.16248827044817
H            3.69022331704238        2.98326912789595       -0.47653992682698
H            2.08462888313979        3.72181820128697       -0.49936910641171
H            2.75878808640737        1.14575064320459        2.70646608067491
H            2.31085205382694        0.53544262113060        1.11440306580198
H            5.09612637608907        1.46967764508221        1.99137271203927
H            4.54979415933155       -0.14815246756579        1.61027725468389
H            4.68874887173276        1.03769103758894        0.32493422898903
H            3.40873513608647        3.32543598146340        2.99273286369740
H            4.39392751770570        3.48767441562547        1.53364171005375
H            2.09837983799377        5.30285721548503        2.38906516561824
H            3.81068562881635        5.65297500982184        2.28420965594447
H            2.90015703441073        5.40888481879357        0.80719020314824
H            0.61388238702833        1.76753077027721        1.57849303229960
H            1.12535360708889        2.97305299587776        2.77184224285934
H           -0.04694847495665        3.41374055418436       -0.01562113366833
H           -0.77095101290473        3.74566871012812        1.54325337847915
H            0.54845082407316        4.75736235062065        0.98283940401046
36
 energy: -40.242376635253 gnorm: 0.002459077073 xtb: 6.7.1 (edcfbbe)
C            0.64082856402882       -1.01809846520069       -1.50765204854491
C            0.17140085020058        0.42562063779726       -1.64322748416900
O            0.82919480314193        1.32256188161142       -0.75673046476202
C            2.14118046647592        1.67072740747375       -1.12034686993645
C            2.63560563547771        2.82524552349817       -0.24016558705246
N            2.50717047723466        2.62263124969171        1.23221544508491
C            2.94960178306713        1.24590120425263        1.63073680680501
C            4.40940147741920        0.90236777416834        1.36651999942625
C            3.38913907088417        3.60499418024152        1.93938257766065
C            3.00837778896036        5.07360303286884        1.83538261415852
C            1.08181112254753        2.75069761107757        1.70909648137005
C            0.16895659570993        3.73559775268709        0.99066129379889
H            0.01569555271756       -1.65190657237059       -2.12847923872850
H            0.55161412394560       -1.35099447878465       -0.47564521727130
H            1.67220296546927       -1.13692479632684       -1.83165728625716
H            0.29491964812582        0.77264139277309       -2.67695291736893
H           -0.88305563310300        0.50235398608467       -1.36877057401800
H            2.81457942468002        0.80487187277112       -1.05188054747716
H            2.17178364622237        2.02497814741868       -2.16258761100218
H            3.68671178245344        2.99779045147176       -0.47633380448936
H            2.07440513638152        3.72176148824745       -0.49693396052934
H            2.75124449921326        1.14101216965037        2.69992618110428
H            2.30840152764915        0.53968650256935        1.10272784443982
H            5.09059542772911        1.46056215720390        2.00257741683477
H            4.54474027630833       -0.15135882467788        1.59806815843828
H            4.69310579002482        1.04954862392397        0.32837264902602
H            3.40561777676679        3.32254417825996        2.99455078714593
H            4.39677091376754        3.48300710417726        1.53974234332775
H            2.08832715379786        5.29830258462974        2.36703713356163
H            3.80217203758634        5.65091681389677        2.30513011392247
H            2.92803322209462        5.40951925952645        0.80513462639455
H            0.61665743173899        1.77062144489555        1.60061709915240
H            1.13186010022703        2.99636195363139        2.77174740954470
H           -0.06382741302518        3.38540687864899       -0.01109514914614
H           -0.76432812464424        3.76237154685201        1.54924260572570
H            0.55458409872493        4.74853632535978        0.94577917383033
36
 energy: -40.242414428045 gnorm: 0.001188416661 xtb: 6.7.1 (edcfbbe)
C            0.64431709898939       -1.02216171111919       -1.51554131010733
C            0.17025679710808        0.42130885802450       -1.63501429070825
O            0.83359387402463        1.31173051464697       -0.74606927244357
C            2.14041361741853        1.67206535897510       -1.11925886947628
C            2.63356139255641        2.82663887142974       -0.23963960915160
N            2.50666294750117        2.62362613059789        1.23243790335759
C            2.94780108748998        1.24575058506939        1.62915940509740
C            4.40738254512500        0.90396179218160        1.36605845136614
C            3.38977786014595        3.60451890609414        1.94072273762002
C            3.01049458204036        5.07271840501327        1.83534905806724
C            1.08232186649891        2.75522079443265        1.71241445118995
C            0.17011581852655        3.73412075176798        0.98755634593828
H            0.01976675469249       -1.65287674172408       -2.13957361317331
H            0.55934573520242       -1.36399031192173       -0.48622073402615
H            1.67498502407024       -1.13361884360898       -1.84407281149041
H            0.28359544050790        0.77807588172682       -2.66674223065775
H           -0.88179522754041        0.49402079899130       -1.35061174920021
H            2.82090342199282        0.81115310418023       -1.06084757911325
H            2.15740663376095        2.03010240336049       -2.16073239403977
H            3.68423143055276        2.99985468533086       -0.47555416969403
H            2.07124166996813        3.72202277026376       -0.49518828911799
H            2.74804907930939        1.13932755729780        2.69763203685603
H            2.30635820130713        0.54264096108175        1.09808995900136
H            5.08709885561100        1.45504846517428        2.00956626262144
H            4.54227733959262       -0.15215246157946        1.58772306356907
H            4.69486566995147        1.06009145775116        0.33042894814371
H            3.40300124416008        3.32099555506493        2.99553529136327
H            4.39764874129912        3.48001500544163        1.54335714053856
H            2.08398792314693        5.29687968355808        2.35457712549854
H            3.79730277234612        5.64972154848463        2.31680459324395
H            2.94450610527882        5.41040661136013        0.80511854141680
H            0.61791292948956        1.77390952430138        1.61498552593819
H            1.13618409208904        3.01128696259816        2.77213422957356
H           -0.07108771679639        3.37229675881896       -0.00702481798668
H           -0.75935250941008        3.77480553575822        1.55130653732137
H            0.56034690199289        4.74394383117548        0.92732413266403
36
 energy: -40.242441504805 gnorm: 0.001800289316 xtb: 6.7.1 (edcfbbe)
C            0.65138879840295       -1.02671632726036       -1.52653376198746
C            0.16808780539609        0.41502558392801       -1.62734310531810
O            0.83310534173177        1.30015904213634       -0.73435825624010
C            2.13466184247798        1.67266120001780       -1.11662866646327
C            2.63046647854416        2.82615128103809       -0.23773490854257
N            2.50525467917026        2.62511499561904        1.23396414428414
C            2.94599864648341        1.24663362236918        1.62905803530634
C            4.40516815614768        0.90629325194784        1.36512396644422
C            3.39038756139800        3.60473812411898        1.94206172400294
C            3.01363510020942        5.07284023851087        1.83558508367897
C            1.08213522737300        2.76041456983980        1.71667285420656
C            0.17170425462378        3.73479746910472        0.98559389726347
H            0.02833180219272       -1.65480317898598       -2.15482652394754
H            0.57279674599632       -1.38014574337909       -0.50067694875605
H            1.68126865941283       -1.12789266095288       -1.86085593663772
H            0.27199797440725        0.78341096508636       -2.65587465590657
H           -0.88203555021618        0.47904577126424       -1.33465562821534
H            2.82037866190532        0.81590396288537       -1.06893681867702
H            2.13777350840985        2.03482737790802       -2.15678420786064
H            3.68160497259511        2.99447284394175       -0.47486242603956
H            2.07201475208375        3.72356545489143       -0.49310404484671
H            2.74655089688604        1.13920670286607        2.69734176137052
H            2.30374850120861        0.54551835595309        1.09683234515307
H            5.08405094357802        1.44899194510696        2.01632232280683
H            4.53984513370908       -0.15262873664553        1.57463906758949
H            4.69550271472668        1.07341087021303        0.33215243969890
H            3.40158295641824        3.32081483345825        2.99678410268865
H            4.39808515681389        3.47761850483882        1.54580942298969
H            2.08280792864567        5.29793696040653        2.34487849023570
H            3.79573609839962        5.64779084123273        2.32631974496132
H            2.95980541377136        5.41272272956177        0.80600516657183
H            0.61747925191261        1.77879036433807        1.62854260819464
H            1.13922074018219        3.02504094951044        2.77365521416823
H           -0.07625691772317        3.36279205882642       -0.00285093468474
H           -0.75509762698917        3.78738387322190        1.55235835522860
H            0.56629338971493        4.74157190308168        0.91251607727909
36
 energy: -40.242438573822 gnorm: 0.003518104552 xtb: 6.7.1 (edcfbbe)
C            0.65857457562072       -1.03132028155318       -1.53767466161613
C            0.16588582874467        0.40866313736848       -1.61955455963368
O            0.83260406218562        1.28844923989772       -0.72248258814020
C            2.12882392975765        1.67326591388316       -1.11396114549324
C            2.62733066929321        2.82567161647118       -0.23580692665336
N            2.50383034709187        2.62661852935380        1.23551292597833
C            2.94416699275343        1.24752323941362        1.62896533539369
C            4.40292382775052        0.90863792196772        1.36418077595194
C            3.39101032221251        3.60495965195297        1.94340870149950
C            3.01683461571793        5.07297415734917        1.83581984242514
C            1.08194477298936        2.76567084311889        1.72097947559062
C            0.17328901817701        3.73548332521638        0.98360578036569
H            0.03702136020903       -1.65673687686575       -2.17028525562721
H            0.58647797384029       -1.39652794599982       -0.51533294153378
H            1.68765075414390       -1.12206749330186       -1.87788539318272
H            0.26022438213772        0.78882257039846       -2.64484864195826
H           -0.88228488332734        0.46384599876438       -1.31846088086537
H            2.81983799262093        0.82071670795088       -1.07711315022285
H            2.11788907420521        2.03961119512650       -2.15277958749133
H            3.67894453683260        2.98904323426529       -0.47417389667287
H            2.07279726116142        3.72514976690904       -0.49099937692098
H            2.74503194992044        1.13907791745833        2.69706150684566
H            2.30109949581064        0.54841513664929        1.09557739832557
H            5.08096570353092        1.44284626973349        2.02316266657554
H            4.53736658158949       -0.15312488105241        1.56139573471658
H            4.69613953187141        1.08688587162400        0.33389819367847
H            3.40016867919043        3.32064358238691        2.99804406086024
H            4.39853208484299        3.47519556607447        1.54827247184297
H            2.08162866904626        5.29902031020548        2.33506473741803
H            3.79418423267528        5.64583385270024        2.33595127686567
H            2.97530776627623        5.41508092153125        0.80689299847900
H            0.61702950751210        1.78373138312259        1.64224981381619
H            1.14227771254341        3.03894909834127        2.77519839689276
H           -0.08150344793258        3.35316889785138        0.00136351587145
H           -0.75081409925134        3.80010320202867        1.55342827804425
H            0.57228821825625        4.73917841965768        0.89751511857435
36
 energy: -40.242456109933 gnorm: 0.002112404580 xtb: 6.7.1 (edcfbbe)
C            0.65920066642302       -1.02997570250343       -1.53652281161202
C            0.16578607836107        0.40944198856878       -1.62091162682617
O            0.83072909147601        1.29148703262362       -0.72464147366404
C            2.12798335911062        1.67287541511640       -1.11393916403581
C            2.62762226587231        2.82573284716683       -0.23597208862610
N            2.50407334562501        2.62615824989176        1.23556640204302
C            2.94424738059578        1.24742623372432        1.63008935589949
C            4.40321426157399        0.90767197125884        1.36445176680225
C            3.39102336217493        3.60508764631977        1.94263205669240
C            3.01705697123997        5.07369554286402        1.83562590721733
C            1.08189611854982        2.76440634427478        1.71996455009069
C            0.17229288868695        3.73614453057279        0.98462225492106
H            0.03721314685426       -1.65597953778980       -2.16822628144796
H            0.58794164887684       -1.39423016241939       -0.51392635896795