      -----------------------------------------------------------      
     |                   =====================                   |     
     |                           x T B                           |     
     |                   =====================                   |     
     |                         S. Grimme                         |     
     |          Mulliken Center for Theoretical Chemistry        |     
     |                    University of Bonn                     |     
      -----------------------------------------------------------      

   * xtb version 6.7.1 (edcfbbe) compiled by 'conda@3ef47c1a292c' on 2024-11-25

   xtb is free software: you can redistribute it and/or modify it under
   the terms of the GNU Lesser General Public License as published by
   the Free Software Foundation, either version 3 of the License, or
   (at your option) any later version.
   
   xtb is distributed in the hope that it will be useful,
   but WITHOUT ANY WARRANTY; without even the implied warranty of
   MERCHANTABILITY or FITNESS FOR A PARTICULAR PURPOSE.  See the
   GNU Lesser General Public License for more details.
   
   Cite this work as:
   * C. Bannwarth, E. Caldeweyher, S. Ehlert, A. Hansen, P. Pracht,
     J. Seibert, S. Spicher, S. Grimme, WIREs Comput. Mol. Sci., 2020, 11,
     e01493. DOI: 10.1002/wcms.1493
   
   for GFN2-xTB:
   * C. Bannwarth, S. Ehlert and S. Grimme., J. Chem. Theory Comput., 2019,
     15, 1652-1671. DOI: 10.1021/acs.jctc.8b01176
   for GFN1-xTB:
   * S. Grimme, C. Bannwarth, P. Shushkov, J. Chem. Theory Comput., 2017,
     13, 1989-2009. DOI: 10.1021/acs.jctc.7b00118
   for GFN0-xTB:
   * P. Pracht, E. Caldeweyher, S. Ehlert, S. Grimme, ChemRxiv, 2019, preprint.
     DOI: 10.26434/chemrxiv.8326202.v1
   for GFN-FF:
   * S. Spicher and S. Grimme, Angew. Chem. Int. Ed., 2020, 59, 15665-15673.
     DOI: 10.1002/anie.202004239
   
   for ALPB and GBSA implicit solvation:
   * S. Ehlert, M. Stahn, S. Spicher, S. Grimme, J. Chem. Theory Comput.,
     2021, 17, 4250-4261. DOI: 10.1021/acs.jctc.1c00471
   
   for ddCOSMO and CPCM-X implicit solvation:
   * M. Stahn, S. Ehlert, S. Grimme, J. Phys. Chem. A,
     2023, XX, XXXX-XXXX. DOI: 10.1021/acs.jpca.3c04382
   
   for DFT-D4:
   * E. Caldeweyher, C. Bannwarth and S. Grimme, J. Chem. Phys., 2017,
     147, 034112. DOI: 10.1063/1.4993215
   * E. Caldeweyher, S. Ehlert, A. Hansen, H. Neugebauer, S. Spicher,
     C. Bannwarth and S. Grimme, J. Chem. Phys., 2019, 150, 154122.
     DOI: 10.1063/1.5090222
   * E. Caldeweyher, J.-M. Mewes, S. Ehlert and S. Grimme, Phys. Chem. Chem. Phys.
     2020, 22, 8499-8512. DOI: 10.1039/D0CP00502A
   
   for sTDA-xTB:
   * S. Grimme and C. Bannwarth, J. Chem. Phys., 2016, 145, 054103.
     DOI: 10.1063/1.4959605
   
   in the mass-spec context:
   * V. Asgeirsson, C. Bauer and S. Grimme, Chem. Sci., 2017, 8, 4879.
     DOI: 10.1039/c7sc00601b
   * J. Koopman and S. Grimme, ACS Omega 2019, 4, 12, 15120-15133.
     DOI: 10.1021/acsomega.9b02011
   
   for metadynamics refer to:
   * S. Grimme, J. Chem. Theory Comput., 2019, 155, 2847-2862
     DOI: 10.1021/acs.jctc.9b00143
   
   for SPH calculations refer to:
   * S. Spicher and S. Grimme, J. Chem. Theory Comput., 2021, 17, 1701-1714
     DOI: 10.1021/acs.jctc.0c01306
   
   for ONIOM refer to:
   * C. Plett, A. Katbashev, S. Ehlert, S. Grimme, M. Bursch,
     Phys. Chem. Chem. Phys., 2023, 25, 17860-17868. DOI: 10.1039/D3CP02178E
   
   for DIPRO refer to:
   * J. Kohn, N. Gildemeister, S. Grimme, D. Fazzi, A. Hansen,
     J. Chem. Phys., 2023, just accepted.
   
   for PTB refer to:
   * S. Grimme, M. Mueller, A. Hansen, J. Chem. Phys., 2023, 158, 124111.
     DOI: 10.1063/5.0137838
   
   with help from (in alphabetical order)
   P. Atkinson, C. Bannwarth, F. Bohle, G. Brandenburg, E. Caldeweyher
   M. Checinski, S. Dohm, S. Ehlert, S. Ehrlich, I. Gerasimov, C. Hölzer
   A. Katbashev, J. Kohn, J. Koopman, C. Lavigne, S. Lehtola, F. März, M. Müller,
   F. Musil, H. Neugebauer, J. Pisarek, C. Plett, P. Pracht, F. Pultar,
   J. Seibert, P. Shushkov, S. Spicher, M. Stahn, M. Steiner, T. Strunk,
   J. Stückrath, T. Rose, and J. Unsleber
   
 * started run on 2024/12/20 at 07:14:49.237     
   ID    Z sym.   atoms
    1    6 C      1-12, 14-16, 18-24
    2    7 N      13, 17
    3    1 H      25-59

           -------------------------------------------------
          |                Calculation Setup                |
           -------------------------------------------------

          program call               : xtb C1203.xyz --opt --namespace C1203 --charge +1
          calculation namespace      : C1203
          coordinate file            : C1203.xyz
          omp threads                :                     8


           -------------------------------------------------
          |                 G F N 2 - x T B                 |
           -------------------------------------------------

        Reference                      10.1021/acs.jctc.8b01176
      * Hamiltonian:
        H0-scaling (s, p, d)           1.850000    2.230000    2.230000
        zeta-weighting                 0.500000
      * Dispersion:
        s8                             2.700000
        a1                             0.520000
        a2                             5.000000
        s9                             5.000000
      * Repulsion:
        kExp                           1.500000    1.000000
        rExp                           1.000000
      * Coulomb:
        alpha                          2.000000
        third order                    shell-resolved
        anisotropic                    true
        a3                             3.000000
        a5                             4.000000
        cn-shift                       1.200000
        cn-exp                         4.000000
        max-rad                        5.000000


          ...................................................
          :                      SETUP                      :
          :.................................................:
          :  # basis functions                 131          :
          :  # atomic orbitals                 131          :
          :  # shells                           83          :
          :  # electrons                       132          :
          :  max. iterations                   250          :
          :  Hamiltonian                  GFN2-xTB          :
          :  restarted?                      false          :
          :  GBSA solvation                  false          :
          :  PC potential                    false          :
          :  electronic temp.          300.0000000     K    :
          :  accuracy                    1.0000000          :
          :  -> integral cutoff          0.2500000E+02      :
          :  -> integral neglect         0.1000000E-07      :
          :  -> SCF convergence          0.1000000E-05 Eh   :
          :  -> wf. convergence          0.1000000E-03 e    :
          :  Broyden damping             0.4000000          :
          :  net charge                          1          :
          :  unpaired electrons                  0          :
          ...................................................

 iter      E             dE          RMSdq      gap      omega  full diag
   1    -71.3893417 -0.713893E+02  0.292E+00    4.24       0.0  T
   2    -71.5221317 -0.132790E+00  0.182E+00    3.76       1.0  T
   3    -71.5283784 -0.624669E-02  0.870E-01    2.74       1.0  T
   4    -71.5278496  0.528779E-03  0.290E-01    1.99       1.0  T
   5    -71.5311887 -0.333907E-02  0.102E-01    2.09       1.0  T
   6    -71.5315894 -0.400675E-03  0.401E-02    2.10       1.0  T
   7    -71.5315951 -0.570782E-05  0.131E-02    2.12       1.0  T
   8    -71.5315975 -0.240920E-05  0.439E-03    2.13       3.0  T
   9    -71.5315981 -0.662460E-06  0.139E-03    2.13       9.4  T
  10    -71.5315982 -0.249951E-07  0.596E-04    2.13      21.8  T
  11    -71.5315982 -0.670583E-08  0.217E-04    2.13      60.1  T

   *** convergence criteria satisfied after 11 iterations ***

         #    Occupation            Energy/Eh            Energy/eV
      -------------------------------------------------------------
         1        2.0000           -0.8730564             -23.7571
       ...           ...                  ...                  ...
        60        2.0000           -0.5082258             -13.8295
        61        2.0000           -0.5029688             -13.6865
        62        2.0000           -0.4983492             -13.5608
        63        2.0000           -0.4926041             -13.4044
        64        2.0000           -0.4801661             -13.0660
        65        2.0000           -0.4770989             -12.9825
        66        2.0000           -0.4736717             -12.8893 (HOMO)
        67                         -0.3955658             -10.7639 (LUMO)
        68                         -0.3589115              -9.7665
        69                         -0.3378908              -9.1945
        70                         -0.3346346              -9.1059
        71                         -0.2127426              -5.7890
       ...                                ...                  ...
       131                          0.5201315              14.1535
      -------------------------------------------------------------
                  HL-Gap            0.0781059 Eh            2.1254 eV
             Fermi-level           -0.4346188 Eh          -11.8266 eV

 SCC (total)                   0 d,  0 h,  0 min,  0.048 sec
 SCC setup                      ...        0 min,  0.000 sec (  0.399%)
 Dispersion                     ...        0 min,  0.001 sec (  1.979%)
 classical contributions        ...        0 min,  0.000 sec (  0.210%)
 integral evaluation            ...        0 min,  0.004 sec (  7.661%)
 iterations                     ...        0 min,  0.031 sec ( 65.325%)
 molecular gradient             ...        0 min,  0.012 sec ( 23.976%)
 printout                       ...        0 min,  0.000 sec (  0.413%)

         :::::::::::::::::::::::::::::::::::::::::::::::::::::
         ::                     SUMMARY                     ::
         :::::::::::::::::::::::::::::::::::::::::::::::::::::
         :: total energy             -70.454167504041 Eh    ::
         :: gradient norm              0.058269757352 Eh/a0 ::
         :: HOMO-LUMO gap              2.125369815402 eV    ::
         ::.................................................::
         :: SCC energy               -71.530477174974 Eh    ::
         :: -> isotropic ES            0.075474798695 Eh    ::
         :: -> anisotropic ES          0.000847220403 Eh    ::
         :: -> anisotropic XC          0.045311855393 Eh    ::
         :: -> dispersion             -0.055941291750 Eh    ::
         :: repulsion energy           1.076309670933 Eh    ::
         :: add. restraining           0.000000000000 Eh    ::
         :: total charge               1.000000000000 e     ::
         :::::::::::::::::::::::::::::::::::::::::::::::::::::

      ----------------------------------------------------------- 
     |                   =====================                   |
     |                        A N C O P T                        |
     |                   =====================                   |
     |               Approximate Normal Coordinate               |
     |                Rational Function Optimizer                |
      ----------------------------------------------------------- 
      ----------------------------------------------------------- 
     |                   =====================                   |
     |                        A N C O P T                        |
     |                   =====================                   |
     |               Approximate Normal Coordinate               |
     |                Rational Function Optimizer                |
      ----------------------------------------------------------- 

          ...................................................
          :                      SETUP                      :
          :.................................................:
          :   optimization level            normal          :
          :   max. optcycles                   200          :
          :   ANC micro-cycles                  20          :
          :   degrees of freedom               171          :
          :.................................................:
          :   RF solver                   davidson          :
          :   write xtbopt.log                true          :
          :   linear?                        false          :
          :   energy convergence         0.5000000E-05 Eh   :
          :   grad. convergence          0.1000000E-02 Eh/α :
          :   maxmium RF displ.          1.0000000          :
          :   Hlow (freq-cutoff)         0.1000000E-01      :
          :   Hmax (freq-cutoff)         5.0000000          :
          :   S6 in model hess.         20.0000000          :
          ...................................................

generating ANC from exact Hessian ...
Using Lindh-Hessian (1995)
 Shifting diagonal of input Hessian by    9.9095158515761662E-003
 Lowest  eigenvalues of input Hessian
    0.000000    0.000000    0.000000    0.000000    0.000000    0.000000
    0.010000    0.010050    0.010311    0.010425    0.010569    0.010684
    0.011016    0.011160    0.011217    0.011475    0.011862    0.012741
 Highest eigenvalues
    1.876508    1.929524    1.945585    1.955811    2.035779    2.050448


........................................................................
.............................. CYCLE    1 ..............................
........................................................................

 iter      E             dE          RMSdq      gap      omega  full diag
   1    -71.5315982 -0.715316E+02  0.926E-05    2.13       0.0  T
   2    -71.5315982 -0.255653E-10  0.574E-05    2.13     226.8  T
   3    -71.5315982  0.159730E-10  0.305E-05    2.13     427.5  T
     SCC iter.                  ...        0 min,  0.009 sec
     gradient                   ...        0 min,  0.011 sec
 * total energy  :   -70.4541675 Eh     change       -0.1034635E-08 Eh
   gradient norm :     0.0582693 Eh/α   predicted     0.0000000E+00 (-100.00%)
   displ. norm   :     0.2589709 α      lambda       -0.9063214E-02
   maximum displ.:     0.0666422 α      in ANC's #53, #54, #68, ...

........................................................................
.............................. CYCLE    2 ..............................
........................................................................

 iter      E             dE          RMSdq      gap      omega  full diag
   1    -71.5747622 -0.715748E+02  0.150E-01    2.26       0.0  T
   2    -71.5748597 -0.974966E-04  0.855E-02    2.23       1.0  T
   3    -71.5748533  0.637649E-05  0.273E-02    2.24       1.0  T
   4    -71.5748615 -0.819346E-05  0.861E-03    2.23       1.5  T
   5    -71.5748665 -0.501549E-05  0.216E-03    2.23       6.0  T
   6    -71.5748665 -0.338097E-07  0.803E-04    2.23      16.2  T
   7    -71.5748665 -0.336058E-08  0.286E-04    2.23      45.5  T
     SCC iter.                  ...        0 min,  0.028 sec
     gradient                   ...        0 min,  0.011 sec
 * total energy  :   -70.4601951 Eh     change       -0.6027604E-02 Eh
   gradient norm :     0.0246761 Eh/α   predicted    -0.4835827E-02 ( -19.77%)
   displ. norm   :     0.2183154 α      lambda       -0.2239963E-02
   maximum displ.:     0.0866084 α      in ANC's #10, #16, #11, ...

........................................................................
.............................. CYCLE    3 ..............................
........................................................................

 iter      E             dE          RMSdq      gap      omega  full diag
   1    -71.5943382 -0.715943E+02  0.859E-02    2.32       0.0  T
   2    -71.5943837 -0.454846E-04  0.482E-02    2.30       1.0  T
   3    -71.5943826  0.105868E-05  0.178E-02    2.30       1.0  T
   4    -71.5943844 -0.173403E-05  0.524E-03    2.30       2.5  T
   5    -71.5943861 -0.171320E-05  0.109E-03    2.30      11.9  T
   6    -71.5943861 -0.119255E-07  0.460E-04    2.30      28.3  T
   7    -71.5943861 -0.747050E-09  0.172E-04    2.30      75.5  T
     SCC iter.                  ...        0 min,  0.017 sec
     gradient                   ...        0 min,  0.011 sec
 * total energy  :   -70.4615022 Eh     change       -0.1307067E-02 Eh
   gradient norm :     0.0078854 Eh/α   predicted    -0.1173932E-02 ( -10.19%)
   displ. norm   :     0.1652371 α      lambda       -0.3931064E-03
   maximum displ.:     0.0896888 α      in ANC's #10, #11, #16, ...

........................................................................
.............................. CYCLE    4 ..............................
........................................................................

 iter      E             dE          RMSdq      gap      omega  full diag
   1    -71.5954911 -0.715955E+02  0.370E-02    2.32       0.0  T
   2    -71.5954936 -0.244126E-05  0.212E-02    2.31       1.0  T
   3    -71.5954931  0.437664E-06  0.466E-03    2.31       2.8  T
   4    -71.5954937 -0.549264E-06  0.129E-03    2.31      10.1  T
   5    -71.5954938 -0.107978E-06  0.335E-04    2.31      38.8  T
   6    -71.5954938 -0.679449E-09  0.116E-04    2.31     111.8  T
     SCC iter.                  ...        0 min,  0.015 sec
     gradient                   ...        0 min,  0.011 sec
 * total energy  :   -70.4618082 Eh     change       -0.3059798E-03 Eh
   gradient norm :     0.0047173 Eh/α   predicted    -0.2019228E-03 ( -34.01%)
   displ. norm   :     0.3091453 α      lambda       -0.4662702E-03
   maximum displ.:     0.1744430 α      in ANC's #10, #5, #11, ...

........................................................................
.............................. CYCLE    5 ..............................
........................................................................

 iter      E             dE          RMSdq      gap      omega  full diag
   1    -71.5936803 -0.715937E+02  0.554E-02    2.32       0.0  T
   2    -71.5936817 -0.142206E-05  0.322E-02    2.32       1.0  T
   3    -71.5936808  0.867462E-06  0.445E-03    2.32       2.9  T
   4    -71.5936820 -0.117524E-05  0.125E-03    2.32      10.4  T
   5    -71.5936821 -0.601477E-07  0.560E-04    2.32      23.2  T
   6    -71.5936821 -0.159437E-08  0.147E-04    2.32      88.3  T
     SCC iter.                  ...        0 min,  0.015 sec
     gradient                   ...        0 min,  0.011 sec
 * total energy  :   -70.4621269 Eh     change       -0.3187439E-03 Eh
   gradient norm :     0.0051619 Eh/α   predicted    -0.2554179E-03 ( -19.87%)
   displ. norm   :     0.2430143 α      lambda       -0.2138168E-03
   maximum displ.:     0.1351991 α      in ANC's #10, #5, #11, ...

........................................................................
.............................. CYCLE    6 ..............................
........................................................................

 iter      E             dE          RMSdq      gap      omega  full diag
   1    -71.5924464 -0.715924E+02  0.352E-02    2.31       0.0  T
   2    -71.5924468 -0.410538E-06  0.206E-02    2.32       1.0  T
   3    -71.5924467  0.997521E-07  0.203E-03    2.32       6.4  T
   4    -71.5924469 -0.209937E-06  0.831E-04    2.32      15.7  T
   5    -71.5924470 -0.165616E-07  0.370E-04    2.32      35.1  T
     SCC iter.                  ...        0 min,  0.012 sec
     gradient                   ...        0 min,  0.011 sec
 * total energy  :   -70.4622964 Eh     change       -0.1694835E-03 Eh
   gradient norm :     0.0053567 Eh/α   predicted    -0.1132406E-03 ( -33.18%)
   displ. norm   :     0.3173997 α      lambda       -0.2552988E-03
   maximum displ.:     0.1666876 α      in ANC's #10, #5, #6, ...

........................................................................
.............................. CYCLE    7 ..............................
........................................................................

 iter      E             dE          RMSdq      gap      omega  full diag
   1    -71.5918775 -0.715919E+02  0.430E-02    2.32       0.0  T
   2    -71.5918783 -0.880899E-06  0.251E-02    2.32       1.0  T
   3    -71.5918781  0.211624E-06  0.302E-03    2.32       4.3  T
   4    -71.5918785 -0.390746E-06  0.115E-03    2.32      11.3  T
   5    -71.5918786 -0.361468E-07  0.536E-04    2.32      24.3  T
   6    -71.5918786 -0.110016E-08  0.100E-04    2.32     129.9  T
     SCC iter.                  ...        0 min,  0.024 sec
     gradient                   ...        0 min,  0.019 sec
 * total energy  :   -70.4625009 Eh     change       -0.2045325E-03 Eh
   gradient norm :     0.0045659 Eh/α   predicted    -0.1405119E-03 ( -31.30%)
   displ. norm   :     0.3961289 α      lambda       -0.2829066E-03
   maximum displ.:     0.1982939 α      in ANC's #10, #5, #6, ...

........................................................................
.............................. CYCLE    8 ..............................
........................................................................

 iter      E             dE          RMSdq      gap      omega  full diag
   1    -71.5921058 -0.715921E+02  0.552E-02    2.33       0.0  T
   2    -71.5921072 -0.134426E-05  0.321E-02    2.32       1.0  T
   3    -71.5921061  0.108257E-05  0.517E-03    2.33       2.5  T
   4    -71.5921075 -0.147977E-05  0.140E-03    2.32       9.3  T
   5    -71.5921076 -0.445473E-07  0.664E-04    2.32      19.6  T
   6    -71.5921076 -0.987015E-09  0.123E-04    2.32     106.2  T
     SCC iter.                  ...        0 min,  0.044 sec
     gradient                   ...        0 min,  0.011 sec
 * total energy  :   -70.4627208 Eh     change       -0.2199335E-03 Eh
   gradient norm :     0.0045386 Eh/α   predicted    -0.1636523E-03 ( -25.59%)
   displ. norm   :     0.3959215 α      lambda       -0.2478911E-03
   maximum displ.:     0.1821787 α      in ANC's #10, #5, #6, ...

........................................................................
.............................. CYCLE    9 ..............................
........................................................................

 iter      E             dE          RMSdq      gap      omega  full diag
   1    -71.5932156 -0.715932E+02  0.586E-02    2.34       0.0  T
   2    -71.5932169 -0.121139E-05  0.342E-02    2.33       1.0  T
   3    -71.5932147  0.211492E-05  0.649E-03    2.34       2.0  T
   4    -71.5932174 -0.268443E-05  0.124E-03    2.33      10.5  T
   5    -71.5932174 -0.128503E-07  0.581E-04    2.33      22.4  T
   6    -71.5932174 -0.987313E-09  0.135E-04    2.33      96.4  T
     SCC iter.                  ...        0 min,  0.016 sec
     gradient                   ...        0 min,  0.022 sec
 * total energy  :   -70.4629135 Eh     change       -0.1926273E-03 Eh
   gradient norm :     0.0046583 Eh/α   predicted    -0.1433752E-03 ( -25.57%)
   displ. norm   :     0.3790319 α      lambda       -0.2089478E-03
   maximum displ.:     0.1705867 α      in ANC's #5, #1, #6, ...

........................................................................
.............................. CYCLE   10 ..............................
........................................................................

 iter      E             dE          RMSdq      gap      omega  full diag
   1    -71.5947288 -0.715947E+02  0.583E-02    2.35       0.0  T
   2    -71.5947299 -0.114909E-05  0.341E-02    2.34       1.0  T
   3    -71.5947276  0.234397E-05  0.665E-03    2.34       2.0  T
   4    -71.5947305 -0.291881E-05  0.112E-03    2.34      11.7  T
   5    -71.5947305 -0.517774E-08  0.502E-04    2.34      25.9  T
   6    -71.5947305 -0.751342E-09  0.146E-04    2.34      89.3  T
     SCC iter.                  ...        0 min,  0.015 sec
     gradient                   ...        0 min,  0.011 sec
 * total energy  :   -70.4630748 Eh     change       -0.1613677E-03 Eh
   gradient norm :     0.0037170 Eh/α   predicted    -0.1195071E-03 ( -25.94%)
   displ. norm   :     0.3656247 α      lambda       -0.1595756E-03
   maximum displ.:     0.1756838 α      in ANC's #1, #5, #6, ...

........................................................................
.............................. CYCLE   11 ..............................
........................................................................

 iter      E             dE          RMSdq      gap      omega  full diag
   1    -71.5954572 -0.715955E+02  0.548E-02    2.35       0.0  T
   2    -71.5954581 -0.922705E-06  0.321E-02    2.34       1.0  T
   3    -71.5954563  0.179813E-05  0.586E-03    2.35       2.2  T
   4    -71.5954585 -0.225266E-05  0.101E-03    2.34      12.9  T
   5    -71.5954585 -0.413628E-08  0.468E-04    2.34      27.8  T
   6    -71.5954585 -0.501856E-09  0.120E-04    2.34     108.3  T
     SCC iter.                  ...        0 min,  0.030 sec
     gradient                   ...        0 min,  0.019 sec
 * total energy  :   -70.4632002 Eh     change       -0.1253805E-03 Eh
   gradient norm :     0.0026424 Eh/α   predicted    -0.9045645E-04 ( -27.85%)
   displ. norm   :     0.3444277 α      lambda       -0.1309340E-03
   maximum displ.:     0.1763496 α      in ANC's #1, #5, #6, ...

........................................................................
.............................. CYCLE   12 ..............................
........................................................................

 iter      E             dE          RMSdq      gap      omega  full diag
   1    -71.5958371 -0.715958E+02  0.491E-02    2.35       0.0  T
   2    -71.5958378 -0.640800E-06  0.288E-02    2.34       1.0  T
   3    -71.5958368  0.921416E-06  0.433E-03    2.35       3.0  T
   4    -71.5958380 -0.119581E-05  0.882E-04    2.34      14.8  T
   5    -71.5958380 -0.587977E-08  0.435E-04    2.34      30.0  T
   6    -71.5958380 -0.368360E-09  0.936E-05    2.34     139.1  T
     SCC iter.                  ...        0 min,  0.015 sec
     gradient                   ...        0 min,  0.011 sec
 * total energy  :   -70.4633073 Eh     change       -0.1071234E-03 Eh
   gradient norm :     0.0027534 Eh/α   predicted    -0.7323363E-04 ( -31.64%)
   displ. norm   :     0.3537880 α      lambda       -0.1301486E-03
   maximum displ.:     0.1882162 α      in ANC's #1, #5, #6, ...

........................................................................
.............................. CYCLE   13 ..............................
........................................................................

 iter      E             dE          RMSdq      gap      omega  full diag
   1    -71.5958029 -0.715958E+02  0.474E-02    2.34       0.0  T
   2    -71.5958034 -0.485763E-06  0.278E-02    2.34       1.0  T
   3    -71.5958029  0.467256E-06  0.326E-03    2.34       4.0  T
   4    -71.5958036 -0.653951E-06  0.823E-04    2.34      15.8  T
   5    -71.5958036 -0.789839E-08  0.406E-04    2.34      32.1  T
     SCC iter.                  ...        0 min,  0.012 sec
     gradient                   ...        0 min,  0.011 sec
 * total energy  :   -70.4634168 Eh     change       -0.1094857E-03 Eh
   gradient norm :     0.0033095 Eh/α   predicted    -0.7322020E-04 ( -33.12%)
   displ. norm   :     0.3958973 α      lambda       -0.1410012E-03
   maximum displ.:     0.2155408 α      in ANC's #1, #5, #6, ...

........................................................................
.............................. CYCLE   14 ..............................
........................................................................

 iter      E             dE          RMSdq      gap      omega  full diag
   1    -71.5951765 -0.715952E+02  0.505E-02    2.33       0.0  T
   2    -71.5951770 -0.453237E-06  0.296E-02    2.33       1.0  T
   3    -71.5951767  0.316475E-06  0.284E-03    2.33       4.6  T
   4    -71.5951772 -0.488339E-06  0.824E-04    2.33      15.8  T
   5    -71.5951772 -0.847331E-08  0.400E-04    2.33      32.5  T
     SCC iter.                  ...        0 min,  0.013 sec
     gradient                   ...        0 min,  0.011 sec
 * total energy  :   -70.4635329 Eh     change       -0.1160969E-03 Eh
   gradient norm :     0.0032629 Eh/α   predicted    -0.8155087E-04 ( -29.76%)
   displ. norm   :     0.3845933 α      lambda       -0.1256774E-03
   maximum displ.:     0.2166230 α      in ANC's #1, #5, #6, ...

........................................................................
.............................. CYCLE   15 ..............................
........................................................................

 iter      E             dE          RMSdq      gap      omega  full diag
   1    -71.5948798 -0.715949E+02  0.477E-02    2.33       0.0  T
   2    -71.5948803 -0.439350E-06  0.280E-02    2.33       1.0  T
   3    -71.5948799  0.343619E-06  0.280E-03    2.33       4.7  T
   4    -71.5948804 -0.487108E-06  0.755E-04    2.33      17.2  T
   5    -71.5948804 -0.124052E-07  0.378E-04    2.33      34.5  T
     SCC iter.                  ...        0 min,  0.012 sec
     gradient                   ...        0 min,  0.011 sec
 * total energy  :   -70.4636320 Eh     change       -0.9910545E-04 Eh
   gradient norm :     0.0027038 Eh/α   predicted    -0.7213821E-04 ( -27.21%)
   displ. norm   :     0.3131812 α      lambda       -0.8812343E-04
   maximum displ.:     0.1849048 α      in ANC's #1, #5, #2, ...

........................................................................
.............................. CYCLE   16 ..............................
........................................................................

 iter      E             dE          RMSdq      gap      omega  full diag
   1    -71.5945480 -0.715945E+02  0.401E-02    2.32       0.0  T
   2    -71.5945483 -0.309150E-06  0.235E-02    2.32       1.0  T
   3    -71.5945481  0.244486E-06  0.227E-03    2.32       5.7  T
   4    -71.5945484 -0.334344E-06  0.606E-04    2.32      21.5  T
   5    -71.5945484 -0.108143E-07  0.302E-04    2.32      43.0  T
     SCC iter.                  ...        0 min,  0.013 sec
     gradient                   ...        0 min,  0.011 sec
 * total energy  :   -70.4637012 Eh     change       -0.6914646E-04 Eh
   gradient norm :     0.0020906 Eh/α   predicted    -0.4838590E-04 ( -30.02%)
   displ. norm   :     0.2357260 α      lambda       -0.6576952E-04
   maximum displ.:     0.1468766 α      in ANC's #1, #2, #5, ...

........................................................................
.............................. CYCLE   17 ..............................
........................................................................

 iter      E             dE          RMSdq      gap      omega  full diag
   1    -71.5951417 -0.715951E+02  0.324E-02    2.32       0.0  T
   2    -71.5951420 -0.215364E-06  0.190E-02    2.32       1.0  T
   3    -71.5951417  0.274852E-06  0.227E-03    2.32       5.7  T
   4    -71.5951420 -0.344047E-06  0.448E-04    2.32      29.1  T
   5    -71.5951420 -0.626140E-08  0.224E-04    2.32      58.0  T
     SCC iter.                  ...        0 min,  0.012 sec
     gradient                   ...        0 min,  0.011 sec
 * total energy  :   -70.4637548 Eh     change       -0.5362327E-04 Eh
   gradient norm :     0.0020819 Eh/α   predicted    -0.3471292E-04 ( -35.27%)
   displ. norm   :     0.2387751 α      lambda       -0.7052549E-04
   maximum displ.:     0.1530624 α      in ANC's #1, #2, #5, ...

........................................................................
.............................. CYCLE   18 ..............................
........................................................................

 iter      E             dE          RMSdq      gap      omega  full diag
   1    -71.5946850 -0.715947E+02  0.359E-02    2.32       0.0  T
   2    -71.5946853 -0.323741E-06  0.210E-02    2.32       1.0  T
   3    -71.5946851  0.196573E-06  0.205E-03    2.32       6.3  T
   4    -71.5946853 -0.254201E-06  0.577E-04    2.32      22.6  T
   5    -71.5946854 -0.165498E-07  0.250E-04    2.32      52.1  T
     SCC iter.                  ...        0 min,  0.013 sec
     gradient                   ...        0 min,  0.011 sec
 * total energy  :   -70.4638139 Eh     change       -0.5912498E-04 Eh
   gradient norm :     0.0021710 Eh/α   predicted    -0.3727428E-04 ( -36.96%)
   displ. norm   :     0.2924285 α      lambda       -0.8998484E-04
   maximum displ.:     0.1852510 α      in ANC's #1, #2, #12, ...

........................................................................
.............................. CYCLE   19 ..............................
........................................................................

 iter      E             dE          RMSdq      gap      omega  full diag
   1    -71.5956406 -0.715956E+02  0.447E-02    2.32       0.0  T
   2    -71.5956409 -0.305850E-06  0.262E-02    2.32       1.0  T
   3    -71.5956404  0.469014E-06  0.285E-03    2.32       4.6  T
   4    -71.5956410 -0.594973E-06  0.539E-04    2.32      24.2  T
   5    -71.5956410 -0.498419E-08  0.284E-04    2.32      45.9  T
     SCC iter.                  ...        0 min,  0.014 sec
     gradient                   ...        0 min,  0.011 sec
 * total energy  :   -70.4638882 Eh     change       -0.7428102E-04 Eh
   gradient norm :     0.0024531 Eh/α   predicted    -0.4884174E-04 ( -34.25%)
   displ. norm   :     0.3635086 α      lambda       -0.1044878E-03
   maximum displ.:     0.2312526 α      in ANC's #1, #2, #3, ...

........................................................................
.............................. CYCLE   20 ..............................
........................................................................

 iter      E             dE          RMSdq      gap      omega  full diag
   1    -71.5944575 -0.715945E+02  0.534E-02    2.31       0.0  T
   2    -71.5944580 -0.517866E-06  0.313E-02    2.31       1.0  T
   3    -71.5944574  0.567682E-06  0.325E-03    2.31       4.0  T
   4    -71.5944582 -0.727386E-06  0.743E-04    2.31      17.5  T
   5    -71.5944582 -0.182043E-07  0.367E-04    2.31      35.5  T
     SCC iter.                  ...        0 min,  0.012 sec
     gradient                   ...        0 min,  0.011 sec
 * total energy  :   -70.4639733 Eh     change       -0.8509997E-04 Eh
   gradient norm :     0.0028905 Eh/α   predicted    -0.5915140E-04 ( -30.49%)
   displ. norm   :     0.3695952 α      lambda       -0.1049031E-03
   maximum displ.:     0.2364734 α      in ANC's #1, #2, #3, ...
 * RMSD in coord.:     0.6534174 α      energy gain  -0.9805807E-02 Eh

generating ANC from exact Hessian ...
Using Lindh-Hessian (1995)
 Shifting diagonal of input Hessian by    9.9190088118806495E-003
 Lowest  eigenvalues of input Hessian
    0.000000    0.000000    0.000000    0.000000    0.000000    0.000000
    0.010000    0.010063    0.010346    0.010447    0.010598    0.010727
    0.011074    0.011259    0.011368    0.011590    0.011908    0.012874
 Highest eigenvalues
    1.998597    2.007387    2.024295    2.053368    2.161481    2.180216


........................................................................
.............................. CYCLE   21 ..............................
........................................................................

 iter      E             dE          RMSdq      gap      omega  full diag
   1    -71.5952942 -0.715953E+02  0.506E-02    2.31       0.0  T
   2    -71.5952945 -0.311838E-06  0.297E-02    2.31       1.0  T
   3    -71.5952941  0.450586E-06  0.278E-03    2.31       4.7  T
   4    -71.5952947 -0.595856E-06  0.596E-04    2.31      21.8  T
   5    -71.5952947 -0.349654E-08  0.299E-04    2.31      43.5  T
     SCC iter.                  ...        0 min,  0.012 sec
     gradient                   ...        0 min,  0.012 sec
 * total energy  :   -70.4640607 Eh     change       -0.8742949E-04 Eh
   gradient norm :     0.0029697 Eh/α   predicted     0.0000000E+00 (-100.00%)
   displ. norm   :     0.0457940 α      lambda       -0.4144901E-04
   maximum displ.:     0.0224731 α      in ANC's #1, #2, #6, ...

........................................................................
.............................. CYCLE   22 ..............................
........................................................................

 iter      E             dE          RMSdq      gap      omega  full diag
   1    -71.5959435 -0.715959E+02  0.784E-03    2.32       0.0  T
   2    -71.5959436 -0.126875E-06  0.445E-03    2.31       2.9  T
   3    -71.5959436  0.139189E-07  0.116E-03    2.31      11.2  T
   4    -71.5959437 -0.233943E-07  0.314E-04    2.31      41.5  T
   5    -71.5959437 -0.429669E-08  0.113E-04    2.31     114.8  T
     SCC iter.                  ...        0 min,  0.013 sec
     gradient                   ...        0 min,  0.011 sec
 * total energy  :   -70.4640969 Eh     change       -0.3614174E-04 Eh
   gradient norm :     0.0015830 Eh/α   predicted    -0.2109175E-04 ( -41.64%)
   displ. norm   :     0.2463435 α      lambda       -0.1024126E-03
   maximum displ.:     0.1211357 α      in ANC's #1, #2, #6, ...

........................................................................
.............................. CYCLE   23 ..............................
........................................................................

 iter      E             dE          RMSdq      gap      omega  full diag
   1    -71.5968723 -0.715969E+02  0.358E-02    2.32       0.0  T
   2    -71.5968739 -0.156524E-05  0.206E-02    2.32       1.0  T
   3    -71.5968737  0.127123E-06  0.355E-03    2.32       3.7  T
   4    -71.5968740 -0.269203E-06  0.987E-04    2.32      13.2  T
   5    -71.5968740 -0.339409E-07  0.456E-04    2.32      28.6  T
     SCC iter.                  ...        0 min,  0.012 sec
     gradient                   ...        0 min,  0.011 sec
 * total energy  :   -70.4641715 Eh     change       -0.7459307E-04 Eh
   gradient norm :     0.0037181 Eh/α   predicted    -0.5258827E-04 ( -29.50%)
   displ. norm   :     0.0547418 α      lambda       -0.2799590E-04
   maximum displ.:     0.0320463 α      in ANC's #1, #2, #4, ...

........................................................................
.............................. CYCLE   24 ..............................
........................................................................

 iter      E             dE          RMSdq      gap      omega  full diag
   1    -71.5965676 -0.715966E+02  0.850E-03    2.32       0.0  T
   2    -71.5965677 -0.414968E-07  0.496E-03    2.32       2.6  T
   3    -71.5965676  0.427760E-07  0.994E-04    2.32      13.1  T
   4    -71.5965677 -0.530543E-07  0.211E-04    2.32      61.7  T
     SCC iter.                  ...        0 min,  0.010 sec
     gradient                   ...        0 min,  0.011 sec
 * total energy  :   -70.4641971 Eh     change       -0.2558564E-04 Eh
   gradient norm :     0.0027741 Eh/α   predicted    -0.1404031E-04 ( -45.12%)
   displ. norm   :     0.1930444 α      lambda       -0.8773942E-04
   maximum displ.:     0.1100366 α      in ANC's #1, #2, #4, ...

........................................................................
.............................. CYCLE   25 ..............................
........................................................................

 iter      E             dE          RMSdq      gap      omega  full diag
   1    -71.5956270 -0.715956E+02  0.321E-02    2.32       0.0  T
   2    -71.5956276 -0.567498E-06  0.187E-02    2.32       1.0  T
   3    -71.5956271  0.472708E-06  0.337E-03    2.32       3.9  T
   4    -71.5956277 -0.582804E-06  0.763E-04    2.32      17.1  T
   5    -71.5956277 -0.266435E-07  0.286E-04    2.32      45.6  T
     SCC iter.                  ...        0 min,  0.012 sec
     gradient                   ...        0 min,  0.011 sec
 * total energy  :   -70.4642614 Eh     change       -0.6438557E-04 Eh
   gradient norm :     0.0013619 Eh/α   predicted    -0.4551546E-04 ( -29.31%)
   displ. norm   :     0.3096718 α      lambda       -0.5199239E-04
   maximum displ.:     0.1804525 α      in ANC's #1, #2, #4, ...

........................................................................
.............................. CYCLE   26 ..............................
........................................................................

 iter      E             dE          RMSdq      gap      omega  full diag
   1    -71.5946213 -0.715946E+02  0.477E-02    2.32       0.0  T
   2    -71.5946219 -0.658850E-06  0.279E-02    2.32       1.0  T
   3    -71.5946213  0.624722E-06  0.368E-03    2.32       3.5  T
   4    -71.5946221 -0.795698E-06  0.865E-04    2.32      15.0  T
   5    -71.5946221 -0.279177E-07  0.381E-04    2.32      34.1  T
     SCC iter.                  ...        0 min,  0.012 sec
     gradient                   ...        0 min,  0.011 sec
 * total energy  :   -70.4643136 Eh     change       -0.5218368E-04 Eh
   gradient norm :     0.0035097 Eh/α   predicted    -0.2710434E-04 ( -48.06%)
   displ. norm   :     0.1235106 α      lambda       -0.3406711E-04
   maximum displ.:     0.0765064 α      in ANC's #1, #2, #4, ...

........................................................................
.............................. CYCLE   27 ..............................
........................................................................

 iter      E             dE          RMSdq      gap      omega  full diag
   1    -71.5951039 -0.715951E+02  0.163E-02    2.32       0.0  T
   2    -71.5951039 -0.389773E-07  0.953E-03    2.32       1.4  T
   3    -71.5951039  0.900515E-08  0.657E-04    2.32      19.8  T
   4    -71.5951040 -0.219421E-07  0.245E-04    2.32      53.2  T
     SCC iter.                  ...        0 min,  0.010 sec
     gradient                   ...        0 min,  0.011 sec
 * total energy  :   -70.4643450 Eh     change       -0.3140889E-04 Eh
   gradient norm :     0.0028936 Eh/α   predicted    -0.1729594E-04 ( -44.93%)
   displ. norm   :     0.2048691 α      lambda       -0.6931650E-04
   maximum displ.:     0.1303948 α      in ANC's #1, #2, #4, ...

........................................................................
.............................. CYCLE   28 ..............................
........................................................................

 iter      E             dE          RMSdq      gap      omega  full diag
   1    -71.5963771 -0.715964E+02  0.241E-02    2.33       0.0  T
   2    -71.5963773 -0.215736E-06  0.141E-02    2.33       1.0  T
   3    -71.5963771  0.200820E-06  0.214E-03    2.32       6.1  T
   4    -71.5963773 -0.254077E-06  0.480E-04    2.33      27.1  T
   5    -71.5963773 -0.800313E-08  0.206E-04    2.33      63.1  T
     SCC iter.                  ...        0 min,  0.012 sec
     gradient                   ...        0 min,  0.011 sec
 * total energy  :   -70.4644033 Eh     change       -0.5828148E-04 Eh
   gradient norm :     0.0011215 Eh/α   predicted    -0.3611706E-04 ( -38.03%)
   displ. norm   :     0.4234936 α      lambda       -0.7343189E-04
   maximum displ.:     0.2728666 α      in ANC's #1, #2, #4, ...

........................................................................
.............................. CYCLE   29 ..............................
........................................................................

 iter      E             dE          RMSdq      gap      omega  full diag
   1    -71.5974065 -0.715974E+02  0.450E-02    2.33       0.0  T
   2    -71.5974072 -0.713766E-06  0.264E-02    2.33       1.0  T
   3    -71.5974064  0.843732E-06  0.424E-03    2.33       3.1  T
   4    -71.5974074 -0.104855E-05  0.842E-04    2.33      15.5  T
   5    -71.5974074 -0.237766E-07  0.376E-04    2.33      34.7  T
   6    -71.5974074 -0.312298E-09  0.118E-04    2.33     110.0  T
     SCC iter.                  ...        0 min,  0.015 sec
     gradient                   ...        0 min,  0.011 sec
 * total energy  :   -70.4644871 Eh     change       -0.8373976E-04 Eh
   gradient norm :     0.0025155 Eh/α   predicted    -0.3964598E-04 ( -52.66%)
   displ. norm   :     0.2279325 α      lambda       -0.5102362E-04
   maximum displ.:     0.1489173 α      in ANC's #1, #2, #4, ...

........................................................................
.............................. CYCLE   30 ..............................
........................................................................

 iter      E             dE          RMSdq      gap      omega  full diag
   1    -71.5974788 -0.715975E+02  0.211E-02    2.33       0.0  T
   2    -71.5974789 -0.820421E-07  0.124E-02    2.33       1.1  T
   3    -71.5974788  0.110327E-06  0.154E-03    2.33       8.5  T
   4    -71.5974790 -0.145281E-06  0.316E-04    2.33      41.2  T
   5    -71.5974790 -0.132097E-08  0.163E-04    2.33      79.8  T
     SCC iter.                  ...        0 min,  0.012 sec
     gradient                   ...        0 min,  0.011 sec
 * total energy  :   -70.4645357 Eh     change       -0.4862418E-04 Eh
   gradient norm :     0.0026545 Eh/α   predicted    -0.2684075E-04 ( -44.80%)
   displ. norm   :     0.2589989 α      lambda       -0.7237121E-04
   maximum displ.:     0.1701569 α      in ANC's #1, #2, #4, ...

........................................................................
.............................. CYCLE   31 ..............................
........................................................................

 iter      E             dE          RMSdq      gap      omega  full diag
   1    -71.5975011 -0.715975E+02  0.211E-02    2.33       0.0  T
   2    -71.5975012 -0.803799E-07  0.124E-02    2.33       1.1  T
   3    -71.5975011  0.833189E-07  0.147E-03    2.33       8.9  T
   4    -71.5975012 -0.117580E-06  0.338E-04    2.33      38.5  T
   5    -71.5975012 -0.103140E-08  0.170E-04    2.33      76.7  T
     SCC iter.                  ...        0 min,  0.012 sec
     gradient                   ...        0 min,  0.011 sec
 * total energy  :   -70.4646036 Eh     change       -0.6795552E-04 Eh
   gradient norm :     0.0019345 Eh/α   predicted    -0.3861784E-04 ( -43.17%)
   displ. norm   :     0.5423096 α      lambda       -0.1007193E-03
   maximum displ.:     0.3569302 α      in ANC's #1, #2, #4, ...

........................................................................
.............................. CYCLE   32 ..............................
........................................................................

 iter      E             dE          RMSdq      gap      omega  full diag
   1    -71.5963087 -0.715963E+02  0.430E-02    2.32       0.0  T
   2    -71.5963090 -0.309153E-06  0.253E-02    2.32       1.0  T
   3    -71.5963088  0.229113E-06  0.262E-03    2.32       5.0  T
   4    -71.5963092 -0.356489E-06  0.694E-04    2.32      18.8  T
   5    -71.5963092 -0.447054E-08  0.343E-04    2.32      38.0  T
     SCC iter.                  ...        0 min,  0.012 sec
     gradient                   ...        0 min,  0.011 sec
 * total energy  :   -70.4647295 Eh     change       -0.1258628E-03 Eh
   gradient norm :     0.0010448 Eh/α   predicted    -0.5694415E-04 ( -54.76%)
   displ. norm   :     0.4998434 α      lambda       -0.7228046E-04
   maximum displ.:     0.3342869 α      in ANC's #1, #2, #4, ...

........................................................................
.............................. CYCLE   33 ..............................
........................................................................

 iter      E             dE          RMSdq      gap      omega  full diag
   1    -71.5956458 -0.715956E+02  0.393E-02    2.32       0.0  T
   2    -71.5956460 -0.209556E-06  0.231E-02    2.32       1.0  T
   3    -71.5956459  0.883547E-07  0.185E-03    2.32       7.0  T
   4    -71.5956461 -0.175152E-06  0.599E-04    2.32      21.7  T
   5    -71.5956461 -0.338240E-08  0.291E-04    2.32      44.7  T
     SCC iter.                  ...        0 min,  0.012 sec
     gradient                   ...        0 min,  0.011 sec
 * total energy  :   -70.4648206 Eh     change       -0.9114231E-04 Eh
   gradient norm :     0.0018633 Eh/α   predicted    -0.4015488E-04 ( -55.94%)
   displ. norm   :     0.4222003 α      lambda       -0.5741085E-04
   maximum displ.:     0.2878420 α      in ANC's #1, #2, #4, ...

........................................................................
.............................. CYCLE   34 ..............................
........................................................................

 iter      E             dE          RMSdq      gap      omega  full diag
   1    -71.5958443 -0.715958E+02  0.352E-02    2.32       0.0  T
   2    -71.5958444 -0.148810E-06  0.207E-02    2.32       1.0  T
   3    -71.5958443  0.764688E-07  0.153E-03    2.32       8.5  T
   4    -71.5958445 -0.142203E-06  0.507E-04    2.32      25.7  T
   5    -71.5958445 -0.240543E-08  0.231E-04    2.32      56.5  T
     SCC iter.                  ...        0 min,  0.013 sec
     gradient                   ...        0 min,  0.011 sec
 * total energy  :   -70.4648976 Eh     change       -0.7696811E-04 Eh
   gradient norm :     0.0020444 Eh/α   predicted    -0.3098214E-04 ( -59.75%)
   displ. norm   :     0.3095611 α      lambda       -0.6699132E-04
   maximum displ.:     0.2138093 α      in ANC's #1, #2, #4, ...

........................................................................
.............................. CYCLE   35 ..............................
........................................................................

 iter      E             dE          RMSdq      gap      omega  full diag
   1    -71.5960402 -0.715960E+02  0.289E-02    2.32       0.0  T
   2    -71.5960403 -0.109459E-06  0.169E-02    2.32       1.0  T
   3    -71.5960401  0.114770E-06  0.152E-03    2.31       8.6  T
   4    -71.5960403 -0.165947E-06  0.412E-04    2.31      31.6  T
   5    -71.5960403 -0.148208E-08  0.191E-04    2.31      68.1  T
     SCC iter.                  ...        0 min,  0.012 sec
     gradient                   ...        0 min,  0.011 sec
 * total energy  :   -70.4649605 Eh     change       -0.6288868E-04 Eh
   gradient norm :     0.0018047 Eh/α   predicted    -0.3670687E-04 ( -41.63%)
   displ. norm   :     0.6641187 α      lambda       -0.1011187E-03
   maximum displ.:     0.4614181 α      in ANC's #1, #2, #4, ...

........................................................................
.............................. CYCLE   36 ..............................
........................................................................

 iter      E             dE          RMSdq      gap      omega  full diag
   1    -71.5959809 -0.715960E+02  0.679E-02    2.31       0.0  T
   2    -71.5959815 -0.644677E-06  0.398E-02    2.31       1.0  T
   3    -71.5959805  0.999026E-06  0.423E-03    2.31       3.1  T
   4    -71.5959818 -0.133033E-05  0.964E-04    2.31      13.5  T
   5    -71.5959818 -0.538120E-08  0.438E-04    2.31      29.7  T
   6    -71.5959818 -0.997545E-09  0.116E-04    2.31     112.1  T
     SCC iter.                  ...        0 min,  0.015 sec
     gradient                   ...        0 min,  0.011 sec
 * total energy  :   -70.4650937 Eh     change       -0.1331750E-03 Eh
   gradient norm :     0.0015279 Eh/α   predicted    -0.6047366E-04 ( -54.59%)
   displ. norm   :     0.7757430 α      lambda       -0.1074364E-03
   maximum displ.:     0.5425120 α      in ANC's #1, #2, #4, ...

........................................................................
.............................. CYCLE   37 ..............................
........................................................................

 iter      E             dE          RMSdq      gap      omega  full diag
   1    -71.5949267 -0.715949E+02  0.824E-02    2.31       0.0  T
   2    -71.5949278 -0.105564E-05  0.483E-02    2.31       1.0  T
   3    -71.5949258  0.201083E-05  0.595E-03    2.31       2.2  T
   4    -71.5949283 -0.258335E-05  0.120E-03    2.31      10.8  T
   5    -71.5949283 -0.683139E-08  0.574E-04    2.31      22.7  T
   6    -71.5949283 -0.218307E-08  0.144E-04    2.31      90.6  T
     SCC iter.                  ...        0 min,  0.020 sec
     gradient                   ...        0 min,  0.011 sec
 * total energy  :   -70.4652332 Eh     change       -0.1395130E-03 Eh
   gradient norm :     0.0019828 Eh/α   predicted    -0.6808650E-04 ( -51.20%)
   displ. norm   :     0.8447490 α      lambda       -0.1170001E-03
   maximum displ.:     0.5965749 α      in ANC's #1, #2, #4, ...

........................................................................
.............................. CYCLE   38 ..............................
........................................................................

 iter      E             dE          RMSdq      gap      omega  full diag
   1    -71.5950431 -0.715950E+02  0.908E-02    2.30       0.0  T
   2    -71.5950444 -0.132568E-05  0.531E-02    2.30       1.0  T
   3    -71.5950419  0.252556E-05  0.666E-03    2.30       2.0  T
   4    -71.5950452 -0.326161E-05  0.137E-03    2.30       9.5  T
   5    -71.5950452 -0.693652E-08  0.610E-04    2.30      21.3  T
   6    -71.5950452 -0.276509E-08  0.144E-04    2.30      90.4  T
     SCC iter.                  ...        0 min,  0.015 sec
     gradient                   ...        0 min,  0.011 sec
 * total energy  :   -70.4653808 Eh     change       -0.1476178E-03 Eh
   gradient norm :     0.0025240 Eh/α   predicted    -0.7705636E-04 ( -47.80%)
   displ. norm   :     0.5928077 α      lambda       -0.1256769E-03
   maximum displ.:     0.4213133 α      in ANC's #1, #2, #10, ...

........................................................................
.............................. CYCLE   39 ..............................
........................................................................

 iter      E             dE          RMSdq      gap      omega  full diag
   1    -71.5953490 -0.715953E+02  0.632E-02    2.30       0.0  T
   2    -71.5953497 -0.701750E-06  0.370E-02    2.30       1.0  T
   3    -71.5953485  0.117675E-05  0.471E-03    2.30       2.8  T
   4    -71.5953501 -0.154816E-05  0.100E-03    2.30      13.0  T
   5    -71.5953501 -0.421818E-08  0.461E-04    2.30      28.2  T
   6    -71.5953501 -0.150729E-08  0.964E-05    2.30     135.1  T
     SCC iter.                  ...        0 min,  0.015 sec
     gradient                   ...        0 min,  0.011 sec
 * total energy  :   -70.4654921 Eh     change       -0.1112564E-03 Eh
   gradient norm :     0.0023492 Eh/α   predicted    -0.8492227E-04 ( -23.67%)
   displ. norm   :     0.6467041 α      lambda       -0.1501816E-03
   maximum displ.:     0.4604967 α      in ANC's #1, #2, #10, ...

........................................................................
.............................. CYCLE   40 ..............................
........................................................................

 iter      E             dE          RMSdq      gap      omega  full diag
   1    -71.5962460 -0.715962E+02  0.676E-02    2.30       0.0  T
   2    -71.5962469 -0.870290E-06  0.396E-02    2.30       1.0  T
   3    -71.5962457  0.123216E-05  0.485E-03    2.30       2.7  T
   4    -71.5962473 -0.166127E-05  0.113E-03    2.30      11.6  T
   5    -71.5962473 -0.796310E-08  0.522E-04    2.30      24.9  T
   6    -71.5962473 -0.117797E-08  0.948E-05    2.30     137.3  T
     SCC iter.                  ...        0 min,  0.015 sec
     gradient                   ...        0 min,  0.011 sec
 * total energy  :   -70.4656252 Eh     change       -0.1330977E-03 Eh
   gradient norm :     0.0018186 Eh/α   predicted    -0.1064976E-03 ( -19.99%)
   displ. norm   :     0.9418418 α      lambda       -0.1473358E-03
   maximum displ.:     0.6664879 α      in ANC's #1, #2, #10, ...

........................................................................
.............................. CYCLE   41 ..............................
........................................................................

 iter      E             dE          RMSdq      gap      omega  full diag
   1    -71.5960208 -0.715960E+02  0.964E-02    2.31       0.0  T
   2    -71.5960225 -0.172443E-05  0.565E-02    2.30       1.0  T
   3    -71.5960206  0.194392E-05  0.642E-03    2.31       2.0  T
   4    -71.5960234 -0.278944E-05  0.167E-03    2.30       7.8  T
   5    -71.5960234 -0.147729E-07  0.728E-04    2.30      17.9  T
   6    -71.5960234 -0.242736E-08  0.129E-04    2.30     101.3  T
     SCC iter.                  ...        0 min,  0.015 sec
     gradient                   ...        0 min,  0.011 sec
 * total energy  :   -70.4658076 Eh     change       -0.1824376E-03 Eh
   gradient norm :     0.0017070 Eh/α   predicted    -0.1027163E-03 ( -43.70%)
   displ. norm   :     0.8105521 α      lambda       -0.1213329E-03
   maximum displ.:     0.5622200 α      in ANC's #1, #2, #10, ...

........................................................................
.............................. CYCLE   42 ..............................
........................................................................

 iter      E             dE          RMSdq      gap      omega  full diag
   1    -71.5996633 -0.715997E+02  0.815E-02    2.31       0.0  T
   2    -71.5996647 -0.142189E-05  0.477E-02    2.31       1.0  T
   3    -71.5996631  0.160366E-05  0.571E-03    2.31       2.3  T
   4    -71.5996654 -0.224947E-05  0.147E-03    2.31       8.9  T
   5    -71.5996654 -0.171234E-07  0.687E-04    2.31      19.0  T
   6    -71.5996654 -0.148286E-08  0.122E-04    2.31     106.4  T
     SCC iter.                  ...        0 min,  0.016 sec
     gradient                   ...        0 min,  0.011 sec
 * total energy  :   -70.4659266 Eh     change       -0.1190160E-03 Eh
   gradient norm :     0.0027796 Eh/α   predicted    -0.7838179E-04 ( -34.14%)
   displ. norm   :     0.7567984 α      lambda       -0.1303173E-03
   maximum displ.:     0.5372964 α      in ANC's #1, #2, #10, ...
 * RMSD in coord.:     1.2046493 α      energy gain  -0.1953304E-02 Eh

generating ANC from exact Hessian ...
Using Lindh-Hessian (1995)
 Shifting diagonal of input Hessian by    9.9190902835885903E-003
 Lowest  eigenvalues of input Hessian
    0.000000    0.000000    0.000000    0.000000    0.000000    0.000000
    0.010000    0.010073    0.010326    0.010417    0.010585    0.010727
    0.010956    0.011203    0.011319    0.011529    0.011835    0.012897
 Highest eigenvalues
    1.989707    1.999636    2.016592    2.050671    2.158941    2.179585


........................................................................
.............................. CYCLE   43 ..............................
........................................................................

 iter      E             dE          RMSdq      gap      omega  full diag
   1    -71.5912847 -0.715913E+02  0.761E-02    2.30       0.0  T
   2    -71.5912861 -0.140657E-05  0.446E-02    2.31       1.0  T
   3    -71.5912838  0.230285E-05  0.690E-03    2.31       1.9  T
   4    -71.5912867 -0.295494E-05  0.139E-03    2.31       9.4  T
   5    -71.5912868 -0.184988E-07  0.740E-04    2.31      17.6  T
   6    -71.5912868 -0.157152E-08  0.225E-04    2.31      57.9  T
     SCC iter.                  ...        0 min,  0.015 sec
     gradient                   ...        0 min,  0.011 sec
 * total energy  :   -70.4659646 Eh     change       -0.3793978E-04 Eh
   gradient norm :     0.0045911 Eh/α   predicted     0.0000000E+00 (-100.00%)
   displ. norm   :     0.0345235 α      lambda       -0.9257870E-04
   maximum displ.:     0.0100041 α      in ANC's #3, #1, #104, ...

........................................................................
.............................. CYCLE   44 ..............................
........................................................................

 iter      E             dE          RMSdq      gap      omega  full diag
   1    -71.5968017 -0.715968E+02  0.143E-02    2.31       0.0  T
   2    -71.5968019 -0.239421E-06  0.846E-03    2.31       1.5  T
   3    -71.5968016  0.312786E-06  0.268E-03    2.31       4.9  T
   4    -71.5968020 -0.379874E-06  0.462E-04    2.31      28.2  T
   5    -71.5968020 -0.865330E-08  0.189E-04    2.31      69.0  T
     SCC iter.                  ...        0 min,  0.013 sec
     gradient                   ...        0 min,  0.011 sec
 * total energy  :   -70.4660222 Eh     change       -0.5762940E-04 Eh
   gradient norm :     0.0010278 Eh/α   predicted    -0.4675412E-04 ( -18.87%)
   displ. norm   :     0.0529766 α      lambda       -0.1643992E-04
   maximum displ.:     0.0205516 α      in ANC's #3, #1, #6, ...

........................................................................
.............................. CYCLE   45 ..............................
........................................................................

 iter      E             dE          RMSdq      gap      omega  full diag
   1    -71.5995970 -0.715996E+02  0.102E-02    2.31       0.0  T
   2    -71.5995971 -0.893140E-07  0.604E-03    2.31       2.2  T
   3    -71.5995970  0.141942E-06  0.176E-03    2.31       7.4  T
   4    -71.5995971 -0.170049E-06  0.279E-04    2.31      46.6  T
   5    -71.5995971 -0.292134E-08  0.117E-04    2.31     111.5  T
     SCC iter.                  ...        0 min,  0.012 sec
     gradient                   ...        0 min,  0.011 sec
 * total energy  :   -70.4660367 Eh     change       -0.1450087E-04 Eh
   gradient norm :     0.0011058 Eh/α   predicted    -0.8236200E-05 ( -43.20%)
   displ. norm   :     0.0700800 α      lambda       -0.1219919E-04
   maximum displ.:     0.0288054 α      in ANC's #3, #1, #6, ...

........................................................................
.............................. CYCLE   46 ..............................
........................................................................

 iter      E             dE          RMSdq      gap      omega  full diag
   1    -71.5996282 -0.715996E+02  0.932E-03    2.31       0.0  T
   2    -71.5996282 -0.224908E-07  0.547E-03    2.31       2.4  T
   3    -71.5996282  0.491633E-07  0.950E-04    2.31      13.7  T
   4    -71.5996282 -0.602822E-07  0.157E-04    2.31      82.7  T
     SCC iter.                  ...        0 min,  0.010 sec
     gradient                   ...        0 min,  0.011 sec
 * total energy  :   -70.4660525 Eh     change       -0.1586270E-04 Eh
   gradient norm :     0.0010485 Eh/α   predicted    -0.6126040E-05 ( -61.38%)
   displ. norm   :     0.2063882 α      lambda       -0.3103137E-04
   maximum displ.:     0.0863091 α      in ANC's #3, #1, #6, ...

........................................................................
.............................. CYCLE   47 ..............................
........................................................................

 iter      E             dE          RMSdq      gap      omega  full diag
   1    -71.5980944 -0.715981E+02  0.248E-02    2.31       0.0  T
   2    -71.5980946 -0.168695E-06  0.145E-02    2.31       1.0  T
   3    -71.5980943  0.280437E-06  0.228E-03    2.31       5.7  T
   4    -71.5980946 -0.351796E-06  0.446E-04    2.31      29.2  T
   5    -71.5980946 -0.274855E-08  0.229E-04    2.31      56.9  T
     SCC iter.                  ...        0 min,  0.012 sec
     gradient                   ...        0 min,  0.011 sec
 * total energy  :   -70.4660833 Eh     change       -0.3078471E-04 Eh
   gradient norm :     0.0008725 Eh/α   predicted    -0.1583990E-04 ( -48.55%)
   displ. norm   :     0.1449234 α      lambda       -0.1328337E-04
   maximum displ.:     0.0668159 α      in ANC's #1, #3, #4, ...

........................................................................
.............................. CYCLE   48 ..............................
........................................................................

 iter      E             dE          RMSdq      gap      omega  full diag
   1    -71.5975511 -0.715976E+02  0.144E-02    2.31       0.0  T
   2    -71.5975512 -0.659288E-07  0.847E-03    2.31       1.5  T
   3    -71.5975511  0.134155E-06  0.159E-03    2.31       8.2  T
   4    -71.5975512 -0.164642E-06  0.271E-04    2.31      48.1  T
   5    -71.5975512 -0.880135E-09  0.143E-04    2.31      91.2  T
     SCC iter.                  ...        0 min,  0.012 sec
     gradient                   ...        0 min,  0.011 sec
 * total energy  :   -70.4660977 Eh     change       -0.1437562E-04 Eh
   gradient norm :     0.0009160 Eh/α   predicted    -0.6710979E-05 ( -53.32%)
   displ. norm   :     0.1373770 α      lambda       -0.1288863E-04
   maximum displ.:     0.0681093 α      in ANC's #1, #3, #4, ...

........................................................................
.............................. CYCLE   49 ..............................
........................................................................

 iter      E             dE          RMSdq      gap      omega  full diag
   1    -71.5974633 -0.715975E+02  0.118E-02    2.31       0.0  T
   2    -71.5974634 -0.375935E-07  0.693E-03    2.31       1.9  T
   3    -71.5974633  0.820350E-07  0.131E-03    2.31       9.9  T
   4    -71.5974634 -0.101462E-06  0.214E-04    2.31      60.9  T
   5    -71.5974634 -0.351363E-09  0.110E-04    2.31     118.0  T
     SCC iter.                  ...        0 min,  0.012 sec
     gradient                   ...        0 min,  0.011 sec
 * total energy  :   -70.4661140 Eh     change       -0.1627723E-04 Eh
   gradient norm :     0.0007483 Eh/α   predicted    -0.6499062E-05 ( -60.07%)
   displ. norm   :     0.1928969 α      lambda       -0.2010303E-04
   maximum displ.:     0.1012182 α      in ANC's #1, #3, #4, ...

........................................................................
.............................. CYCLE   50 ..............................
........................................................................

 iter      E             dE          RMSdq      gap      omega  full diag
   1    -71.5977500 -0.715977E+02  0.177E-02    2.31       0.0  T
   2    -71.5977501 -0.817655E-07  0.104E-02    2.31       1.3  T
   3    -71.5977500  0.103877E-06  0.160E-03    2.31       8.1  T
   4    -71.5977501 -0.134324E-06  0.328E-04    2.31      39.7  T
   5    -71.5977501 -0.196702E-08  0.164E-04    2.31      79.5  T
     SCC iter.                  ...        0 min,  0.012 sec
     gradient                   ...        0 min,  0.011 sec
 * total energy  :   -70.4661374 Eh     change       -0.2343357E-04 Eh
   gradient norm :     0.0006262 Eh/α   predicted    -0.1021892E-04 ( -56.39%)
   displ. norm   :     0.1970314 α      lambda       -0.1619778E-04
   maximum displ.:     0.1083728 α      in ANC's #1, #3, #4, ...

........................................................................
.............................. CYCLE   51 ..............................
........................................................................

 iter      E             dE          RMSdq      gap      omega  full diag
   1    -71.5978721 -0.715979E+02  0.184E-02    2.31       0.0  T
   2    -71.5978722 -0.631764E-07  0.108E-02    2.31       1.2  T
   3    -71.5978722  0.455564E-07  0.113E-03    2.31      11.5  T
   4    -71.5978722 -0.688830E-07  0.323E-04    2.31      40.3  T
   5    -71.5978722 -0.161913E-08  0.156E-04    2.31      83.4  T
     SCC iter.                  ...        0 min,  0.013 sec
     gradient                   ...        0 min,  0.011 sec
 * total energy  :   -70.4661564 Eh     change       -0.1895226E-04 Eh
   gradient norm :     0.0007887 Eh/α   predicted    -0.8239058E-05 ( -56.53%)
   displ. norm   :     0.1809996 α      lambda       -0.1419246E-04
   maximum displ.:     0.1034783 α      in ANC's #1, #3, #4, ...

........................................................................
.............................. CYCLE   52 ..............................
........................................................................

 iter      E             dE          RMSdq      gap      omega  full diag
   1    -71.5980730 -0.715981E+02  0.175E-02    2.31       0.0  T
   2    -71.5980730 -0.493832E-07  0.103E-02    2.31       1.3  T
   3    -71.5980730  0.543582E-07  0.106E-03    2.31      12.3  T
   4    -71.5980731 -0.774948E-07  0.289E-04    2.31      45.0  T
   5    -71.5980731 -0.656385E-09  0.120E-04    2.31     108.5  T
     SCC iter.                  ...        0 min,  0.012 sec
     gradient                   ...        0 min,  0.013 sec
 * total energy  :   -70.4661742 Eh     change       -0.1785042E-04 Eh
   gradient norm :     0.0007998 Eh/α   predicted    -0.7201168E-05 ( -59.66%)
   displ. norm   :     0.2214933 α      lambda       -0.1840891E-04
   maximum displ.:     0.1288745 α      in ANC's #1, #3, #4, ...

........................................................................
.............................. CYCLE   53 ..............................
........................................................................

 iter      E             dE          RMSdq      gap      omega  full diag
   1    -71.5981675 -0.715982E+02  0.218E-02    2.31       0.0  T
   2    -71.5981676 -0.958550E-07  0.128E-02    2.31       1.0  T
   3    -71.5981675  0.125214E-06  0.159E-03    2.32       8.2  T
   4    -71.5981676 -0.169102E-06  0.383E-04    2.31      34.0  T
   5    -71.5981676 -0.124493E-08  0.175E-04    2.31      74.4  T
     SCC iter.                  ...        0 min,  0.013 sec
     gradient                   ...        0 min,  0.011 sec
 * total energy  :   -70.4661972 Eh     change       -0.2299250E-04 Eh
   gradient norm :     0.0006759 Eh/α   predicted    -0.9407873E-05 ( -59.08%)
   displ. norm   :     0.2806078 α      lambda       -0.2180776E-04
   maximum displ.:     0.1658309 α      in ANC's #1, #3, #4, ...

........................................................................
.............................. CYCLE   54 ..............................
........................................................................

 iter      E             dE          RMSdq      gap      omega  full diag
   1    -71.5978644 -0.715979E+02  0.274E-02    2.32       0.0  T
   2    -71.5978645 -0.183489E-06  0.161E-02    2.32       1.0  T
   3    -71.5978642  0.362636E-06  0.258E-03    2.32       5.1  T
   4    -71.5978646 -0.452276E-06  0.469E-04    2.32      27.8  T
   5    -71.5978646 -0.227017E-08  0.228E-04    2.32      57.1  T
     SCC iter.                  ...        0 min,  0.013 sec
     gradient                   ...        0 min,  0.011 sec
 * total energy  :   -70.4662229 Eh     change       -0.2566298E-04 Eh
   gradient norm :     0.0005832 Eh/α   predicted    -0.1129060E-04 ( -56.00%)
   displ. norm   :     0.2732674 α      lambda       -0.1841275E-04
   maximum displ.:     0.1645592 α      in ANC's #1, #3, #4, ...

........................................................................
.............................. CYCLE   55 ..............................
........................................................................

 iter      E             dE          RMSdq      gap      omega  full diag
   1    -71.5977643 -0.715978E+02  0.262E-02    2.32       0.0  T
   2    -71.5977644 -0.158827E-06  0.154E-02    2.32       1.0  T
   3    -71.5977642  0.293433E-06  0.237E-03    2.32       5.5  T
   4    -71.5977645 -0.371103E-06  0.449E-04    2.32      29.0  T
   5    -71.5977645 -0.191497E-08  0.219E-04    2.32      59.4  T
     SCC iter.                  ...        0 min,  0.012 sec
     gradient                   ...        0 min,  0.011 sec
 * total energy  :   -70.4662447 Eh     change       -0.2185377E-04 Eh
   gradient norm :     0.0007420 Eh/α   predicted    -0.9515914E-05 ( -56.46%)
   displ. norm   :     0.2470834 α      lambda       -0.1621273E-04
   maximum displ.:     0.1513149 α      in ANC's #1, #3, #4, ...

........................................................................
.............................. CYCLE   56 ..............................
........................................................................

 iter      E             dE          RMSdq      gap      omega  full diag
   1    -71.5978187 -0.715978E+02  0.237E-02    2.32       0.0  T
   2    -71.5978188 -0.104131E-06  0.140E-02    2.32       1.0  T
   3    -71.5978185  0.225021E-06  0.198E-03    2.32       6.6  T
   4    -71.5978188 -0.282758E-06  0.361E-04    2.32      36.1  T
   5    -71.5978188 -0.647134E-09  0.161E-04    2.32      80.7  T
     SCC iter.                  ...        0 min,  0.012 sec
     gradient                   ...        0 min,  0.011 sec
 * total energy  :   -70.4662655 Eh     change       -0.2073614E-04 Eh
   gradient norm :     0.0008418 Eh/α   predicted    -0.8331054E-05 ( -59.82%)
   displ. norm   :     0.2837241 α      lambda       -0.2115206E-04
   maximum displ.:     0.1751134 α      in ANC's #1, #3, #4, ...

........................................................................
.............................. CYCLE   57 ..............................
........................................................................

 iter      E             dE          RMSdq      gap      omega  full diag
   1    -71.5981281 -0.715981E+02  0.283E-02    2.32       0.0  T
   2    -71.5981282 -0.136036E-06  0.167E-02    2.32       1.0  T
   3    -71.5981279  0.263165E-06  0.214E-03    2.32       6.1  T
   4    -71.5981283 -0.336007E-06  0.410E-04    2.32      31.8  T
   5    -71.5981283 -0.907775E-09  0.189E-04    2.32      68.8  T
     SCC iter.                  ...        0 min,  0.012 sec
     gradient                   ...        0 min,  0.011 sec
 * total energy  :   -70.4662923 Eh     change       -0.2682418E-04 Eh
   gradient norm :     0.0007828 Eh/α   predicted    -0.1095940E-04 ( -59.14%)
   displ. norm   :     0.3807666 α      lambda       -0.2645810E-04
   maximum displ.:     0.2359056 α      in ANC's #1, #4, #3, ...

........................................................................
.............................. CYCLE   58 ..............................
........................................................................

 iter      E             dE          RMSdq      gap      omega  full diag
   1    -71.5976644 -0.715977E+02  0.392E-02    2.33       0.0  T
   2    -71.5976647 -0.282490E-06  0.231E-02    2.33       1.0  T
   3    -71.5976642  0.557875E-06  0.308E-03    2.32       4.2  T
   4    -71.5976649 -0.700985E-06  0.556E-04    2.32      23.4  T
   5    -71.5976649 -0.282465E-08  0.278E-04    2.32      46.9  T
     SCC iter.                  ...        0 min,  0.012 sec
     gradient                   ...        0 min,  0.011 sec
 * total energy  :   -70.4663237 Eh     change       -0.3136967E-04 Eh
   gradient norm :     0.0008913 Eh/α   predicted    -0.1408505E-04 ( -55.10%)
   displ. norm   :     0.3481823 α      lambda       -0.2429756E-04
   maximum displ.:     0.2186799 α      in ANC's #1, #4, #3, ...

........................................................................
.............................. CYCLE   59 ..............................
........................................................................

 iter      E             dE          RMSdq      gap      omega  full diag
   1    -71.5983899 -0.715984E+02  0.384E-02    2.32       0.0  T
   2    -71.5983902 -0.325269E-06  0.226E-02    2.32       1.0  T
   3    -71.5983895  0.707608E-06  0.344E-03    2.32       3.8  T
   4    -71.5983904 -0.868680E-06  0.535E-04    2.32      24.3  T
   5    -71.5983904 -0.346324E-08  0.277E-04    2.32      47.1  T
     SCC iter.                  ...        0 min,  0.012 sec
     gradient                   ...        0 min,  0.011 sec
 * total energy  :   -70.4663503 Eh     change       -0.2663620E-04 Eh
   gradient norm :     0.0007479 Eh/α   predicted    -0.1280411E-04 ( -51.93%)
   displ. norm   :     0.3135047 α      lambda       -0.1753212E-04
   maximum displ.:     0.1996010 α      in ANC's #1, #4, #3, ...

........................................................................
.............................. CYCLE   60 ..............................
........................................................................

 iter      E             dE          RMSdq      gap      omega  full diag
   1    -71.5975259 -0.715975E+02  0.336E-02    2.33       0.0  T
   2    -71.5975262 -0.262610E-06  0.197E-02    2.33       1.0  T
   3    -71.5975257  0.518933E-06  0.297E-03    2.33       4.4  T
   4    -71.5975263 -0.638228E-06  0.494E-04    2.33      26.4  T
   5    -71.5975263 -0.382434E-08  0.256E-04    2.33      50.9  T
     SCC iter.                  ...        0 min,  0.012 sec
     gradient                   ...        0 min,  0.011 sec
 * total energy  :   -70.4663695 Eh     change       -0.1917765E-04 Eh
   gradient norm :     0.0010965 Eh/α   predicted    -0.9150066E-05 ( -52.29%)
   displ. norm   :     0.2117023 α      lambda       -0.1616145E-04
   maximum displ.:     0.1378284 α      in ANC's #1, #4, #2, ...

........................................................................
.............................. CYCLE   61 ..............................
........................................................................

 iter      E             dE          RMSdq      gap      omega  full diag
   1    -71.5986034 -0.715986E+02  0.235E-02    2.32       0.0  T
   2    -71.5986036 -0.159930E-06  0.138E-02    2.32       1.0  T
   3    -71.5986032  0.349282E-06  0.242E-03    2.32       5.4  T
   4    -71.5986037 -0.422214E-06  0.351E-04    2.32      37.1  T
   5    -71.5986037 -0.216656E-08  0.180E-04    2.32      72.4  T
     SCC iter.                  ...        0 min,  0.012 sec
     gradient                   ...        0 min,  0.011 sec
 * total energy  :   -70.4663876 Eh     change       -0.1807595E-04 Eh
   gradient norm :     0.0007608 Eh/α   predicted    -0.8242096E-05 ( -54.40%)
   displ. norm   :     0.2268662 α      lambda       -0.1431811E-04
   maximum displ.:     0.1501323 α      in ANC's #1, #4, #2, ...

........................................................................
.............................. CYCLE   62 ..............................
........................................................................

 iter      E             dE          RMSdq      gap      omega  full diag
   1    -71.5983563 -0.715984E+02  0.230E-02    2.32       0.0  T
   2    -71.5983564 -0.112424E-06  0.135E-02    2.32       1.0  T
   3    -71.5983561  0.264861E-06  0.210E-03    2.32       6.2  T
   4    -71.5983565 -0.322701E-06  0.319E-04    2.32      40.8  T
   5    -71.5983565 -0.100643E-08  0.163E-04    2.32      79.9  T
     SCC iter.                  ...        0 min,  0.012 sec
     gradient                   ...        0 min,  0.011 sec
 * total energy  :   -70.4664042 Eh     change       -0.1667714E-04 Eh
   gradient norm :     0.0005796 Eh/α   predicted    -0.7326538E-05 ( -56.07%)
   displ. norm   :     0.1971862 α      lambda       -0.1214831E-04
   maximum displ.:     0.1326078 α      in ANC's #1, #4, #2, ...

........................................................................
.............................. CYCLE   63 ..............................
........................................................................

[...]
        61        2.0000           -0.5030237             -13.6880
        62        2.0000           -0.4987002             -13.5703
        63        2.0000           -0.4945716             -13.4580
        64        2.0000           -0.4801010             -13.0642
        65        2.0000           -0.4759884             -12.9523
        66        2.0000           -0.4730609             -12.8726 (HOMO)
        67                         -0.3878288             -10.5534 (LUMO)
        68                         -0.3550385              -9.6611
        69                         -0.3392875              -9.2325
        70                         -0.3350351              -9.1168
        71                         -0.2101689              -5.7190
       ...                                ...                  ...
       131                          0.5515395              15.0082
      -------------------------------------------------------------
                  HL-Gap            0.0852320 Eh            2.3193 eV
             Fermi-level           -0.4304448 Eh          -11.7130 eV

 SCC (total)                   0 d,  0 h,  0 min,  0.022 sec
 SCC setup                      ...        0 min,  0.000 sec (  0.565%)
 Dispersion                     ...        0 min,  0.000 sec (  1.857%)
 classical contributions        ...        0 min,  0.000 sec (  0.306%)
 integral evaluation            ...        0 min,  0.002 sec ( 10.987%)
 iterations                     ...        0 min,  0.008 sec ( 34.612%)
 molecular gradient             ...        0 min,  0.011 sec ( 50.871%)
 printout                       ...        0 min,  0.000 sec (  0.733%)

         :::::::::::::::::::::::::::::::::::::::::::::::::::::
         ::                     SUMMARY                     ::
         :::::::::::::::::::::::::::::::::::::::::::::::::::::
         :: total energy             -70.466531076728 Eh    ::
         :: gradient norm              0.000349964325 Eh/a0 ::
         :: HOMO-LUMO gap              2.319281027578 eV    ::
         ::.................................................::
         :: SCC energy               -71.597813489729 Eh    ::
         :: -> isotropic ES            0.075596461177 Eh    ::
         :: -> anisotropic ES          0.000686740378 Eh    ::
         :: -> anisotropic XC          0.043612600501 Eh    ::
         :: -> dispersion             -0.056151884943 Eh    ::
         :: repulsion energy           1.131282413001 Eh    ::
         :: add. restraining           0.000000000000 Eh    ::
         :: total charge               1.000000000000 e     ::
         :::::::::::::::::::::::::::::::::::::::::::::::::::::

           -------------------------------------------------
          |                Property Printout                |
           -------------------------------------------------

    * Orbital Energies and Occupations

         #    Occupation            Energy/Eh            Energy/eV
      -------------------------------------------------------------
         1        2.0000           -0.8786748             -23.9100
       ...           ...                  ...                  ...
        54        2.0000           -0.5364168             -14.5966
        55        2.0000           -0.5324127             -14.4877
        56        2.0000           -0.5259483             -14.3118
        57        2.0000           -0.5215948             -14.1933
        58        2.0000           -0.5168028             -14.0629
        59        2.0000           -0.5145733             -14.0023
        60        2.0000           -0.5138402             -13.9823
        61        2.0000           -0.5030237             -13.6880
        62        2.0000           -0.4987002             -13.5703
        63        2.0000           -0.4945716             -13.4580
        64        2.0000           -0.4801010             -13.0642
        65        2.0000           -0.4759884             -12.9523
        66        2.0000           -0.4730609             -12.8726 (HOMO)
        67                         -0.3878288             -10.5534 (LUMO)
        68                         -0.3550385              -9.6611
        69                         -0.3392875              -9.2325
        70                         -0.3350351              -9.1168
        71                         -0.2101689              -5.7190
        72                         -0.1705546              -4.6410
        73                         -0.1188633              -3.2344
        74                         -0.0613884              -1.6705
        75                         -0.0525604              -1.4302
        76                         -0.0425798              -1.1587
        77                         -0.0345222              -0.9394
       ...                                ...                  ...
       131                          0.5515395              15.0082
      -------------------------------------------------------------
                  HL-Gap            0.0852320 Eh            2.3193 eV
             Fermi-level           -0.4304448 Eh          -11.7130 eV

     #   Z          covCN         q      C6AA      α(0)
     1   6 C        3.751    -0.103    22.527     6.769
     2   6 C        3.800    -0.053    21.527     6.606
     3   6 C        3.801    -0.058    21.620     6.620
     4   6 C        3.800    -0.057    21.608     6.618
     5   6 C        3.800    -0.058    21.616     6.620
     6   6 C        3.800    -0.059    21.645     6.624
     7   6 C        3.800    -0.061    21.668     6.628
     8   6 C        3.800    -0.061    21.673     6.628
     9   6 C        3.800    -0.063    21.709     6.634
    10   6 C        3.802    -0.063    21.716     6.635
    11   6 C        3.803    -0.075    21.939     6.668
    12   6 C        3.099     0.105    25.573     8.287
    13   7 N        2.872     0.046    20.436     6.714
    14   6 C        3.692    -0.077    22.156     6.735
    15   6 C        3.048    -0.012    28.276     8.721
    16   6 C        3.050    -0.009    28.193     8.708
    17   7 N        2.873     0.041    20.517     6.727
    18   6 C        3.747    -0.025    21.095     6.551
    19   6 C        2.971    -0.003    28.103     8.696
    20   6 C        2.923    -0.038    28.938     8.822
    21   6 C        2.919    -0.022    28.556     8.763
    22   6 C        2.920    -0.022    28.550     8.762
    23   6 C        2.920    -0.024    28.592     8.769
    24   6 C        2.922    -0.039    28.976     8.827
    25   1 H        0.925     0.033     2.538     2.491
    26   1 H        0.925     0.035     2.512     2.479
    27   1 H        0.925     0.036     2.509     2.477
    28   1 H        0.924     0.030     2.583     2.513
    29   1 H        0.924     0.030     2.581     2.512
    30   1 H        0.924     0.027     2.627     2.535
    31   1 H        0.924     0.032     2.563     2.504
    32   1 H        0.924     0.023     2.696     2.568
    33   1 H        0.924     0.036     2.500     2.472
    34   1 H        0.924     0.022     2.701     2.570
    35   1 H        0.924     0.039     2.459     2.452
    36   1 H        0.924     0.025     2.656     2.549
    37   1 H        0.924     0.042     2.423     2.434
    38   1 H        0.924     0.028     2.622     2.532
    39   1 H        0.924     0.043     2.408     2.427
    40   1 H        0.924     0.021     2.713     2.576
    41   1 H        0.924     0.043     2.413     2.429
    42   1 H        0.924     0.017     2.781     2.608
    43   1 H        0.925     0.058     2.226     2.333
    44   1 H        0.924     0.042     2.419     2.432
    45   1 H        0.925     0.069     2.097     2.264
    46   1 H        0.924     0.075     2.034     2.230
    47   1 H        0.925     0.085     1.928     2.171
    48   1 H        0.924     0.096     1.819     2.109
    49   1 H        0.925     0.095     1.836     2.119
    50   1 H        0.925     0.099     1.796     2.096
    51   1 H        0.927     0.100     1.789     2.092
    52   1 H        0.926     0.099     1.797     2.096
    53   1 H        0.924     0.089     1.888     2.149
    54   1 H        0.924     0.087     1.910     2.161
    55   1 H        0.926     0.043     2.412     2.429
    56   1 H        0.926     0.057     2.235     2.338
    57   1 H        0.926     0.058     2.227     2.334
    58   1 H        0.926     0.052     2.294     2.368
    59   1 H        0.925     0.026     2.638     2.540

 Mol. C6AA /au·bohr⁶  :      29067.844442
 Mol. C8AA /au·bohr⁸  :     655344.459510
 Mol. α(0) /au        :        261.521259


Wiberg/Mayer (AO) data.
largest (>0.10) Wiberg bond orders for each atom

 ---------------------------------------------------------------------------
     #   Z sym  total        # sym  WBO       # sym  WBO       # sym  WBO
 ---------------------------------------------------------------------------
     1   6 C    3.997 --     2 C    1.020    27 H    0.987    26 H    0.987
                            25 H    0.986
     2   6 C    3.998 --     1 C    1.020     3 C    1.008    29 H    0.978
                            28 H    0.976
     3   6 C    3.997 --     2 C    1.008     4 C    1.008    31 H    0.977
                            30 H    0.975
     4   6 C    3.997 --     5 C    1.008     3 C    1.008    32 H    0.976
                            33 H    0.975
     5   6 C    3.997 --     4 C    1.008     6 C    1.007    34 H    0.975
                            35 H    0.974
     6   6 C    3.996 --     7 C    1.008     5 C    1.007    37 H    0.974
                            36 H    0.974
     7   6 C    3.996 --     6 C    1.008     8 C    1.007    38 H    0.973
                            39 H    0.973
     8   6 C    3.996 --     7 C    1.007     9 C    1.007    41 H    0.973
                            40 H    0.969
     9   6 C    3.994 --    10 C    1.008     8 C    1.007    42 H    0.976
                            43 H    0.969
    10   6 C    3.986 --     9 C    1.008    44 H    0.976    11 C    0.968
                            45 H    0.967
    11   6 C    3.979 --    12 C    1.031    10 C    0.968    47 H    0.955
                            46 H    0.949
    12   6 C    3.945 --    17 N    1.325    13 N    1.322    11 C    1.031
    13   7 N    3.694 --    12 C    1.322    15 C    1.210    14 C    0.993
    14   6 C    3.940 --    13 N    0.993    50 H    0.972    49 H    0.969
                            48 H    0.961
    15   6 C    3.948 --    16 C    1.606    13 N    1.210    51 H    0.962
    16   6 C    3.950 --    15 C    1.606    17 N    1.213    52 H    0.962
    17   7 N    3.695 --    12 C    1.325    16 C    1.213    18 C    0.966
    18   6 C    3.938 --    19 C    0.983    17 N    0.966    54 H    0.956
                            53 H    0.952
    19   6 C    3.980 --    20 C    1.413    24 C    1.413    18 C    0.983
                            22 C    0.109
    20   6 C    3.990 --    21 C    1.441    19 C    1.413    55 H    0.966
                            23 C    0.111
    21   6 C    3.990 --    20 C    1.441    22 C    1.441    56 H    0.969
                            24 C    0.111
    22   6 C    3.989 --    21 C    1.441    23 C    1.438    57 H    0.969
                            19 C    0.109
    23   6 C    3.991 --    24 C    1.445    22 C    1.438    58 H    0.969
                            20 C    0.111
    24   6 C    3.992 --    23 C    1.445    19 C    1.413    59 H    0.970
                            21 C    0.111
    25   1 H    0.999 --     1 C    0.986
    26   1 H    0.999 --     1 C    0.987
    27   1 H    0.999 --     1 C    0.987
    28   1 H    0.999 --     2 C    0.976
    29   1 H    0.999 --     2 C    0.978
    30   1 H    0.999 --     3 C    0.975
    31   1 H    0.999 --     3 C    0.977
    32   1 H    0.999 --     4 C    0.976
    33   1 H    0.999 --     4 C    0.975
    34   1 H    1.000 --     5 C    0.975
    35   1 H    0.998 --     5 C    0.974
    36   1 H    0.999 --     6 C    0.974
    37   1 H    0.998 --     6 C    0.974
    38   1 H    0.999 --     7 C    0.973
    39   1 H    0.998 --     7 C    0.973
    40   1 H    1.000 --     8 C    0.969
    41   1 H    0.998 --     8 C    0.973
    42   1 H    1.000 --     9 C    0.976
    43   1 H    0.996 --     9 C    0.969
    44   1 H    0.998 --    10 C    0.976
    45   1 H    0.994 --    10 C    0.967
    46   1 H    0.994 --    11 C    0.949
    47   1 H    0.992 --    11 C    0.955
    48   1 H    0.990 --    14 C    0.961
    49   1 H    0.991 --    14 C    0.969
    50   1 H    0.990 --    14 C    0.972
    51   1 H    0.990 --    15 C    0.962
    52   1 H    0.990 --    16 C    0.962
    53   1 H    0.992 --    18 C    0.952
    54   1 H    0.992 --    18 C    0.956
    55   1 H    0.998 --    20 C    0.966
    56   1 H    0.996 --    21 C    0.969
    57   1 H    0.996 --    22 C    0.969
    58   1 H    0.997 --    23 C    0.969
    59   1 H    0.999 --    24 C    0.970
 ---------------------------------------------------------------------------

Topologies differ in total number of bonds
Writing topology from bond orders to xtbtopo.mol

molecular dipole:
                 x           y           z       tot (Debye)
 q only:       -5.632      -0.724      16.176
   full:       -5.760      -0.615      16.298      43.963
molecular quadrupole (traceless):
                xx          xy          yy          xz          yz          zz
 q only:      -91.567       8.933    -153.868    -143.355     -15.002     245.435
  q+dip:      -90.815       6.381    -158.078    -148.111     -13.032     248.893
   full:      -91.949       7.641    -156.635    -147.234     -12.841     248.585

           -------------------------------------------------
          |                Geometry Summary                 |
           -------------------------------------------------

      molecular mass/u    :      327.5275225
   center of mass at/Å    :       -1.4659160      -0.4540954       6.3573619
  moments of inertia/u·Å² :        0.1518826E+04   0.5081985E+04   0.6034746E+04
rotational constants/cm⁻¹ :        0.1109912E-01   0.3317136E-02   0.2793429E-02

 * 58 selected distances

     #   Z          #   Z                                           value/Å
     1   6 C        2   6 C                                       1.5239031
     2   6 C        3   6 C                                       1.5292895
     3   6 C        4   6 C                                       1.5301620
     4   6 C        5   6 C                                       1.5302753
     5   6 C        6   6 C                                       1.5305165
     6   6 C        7   6 C                                       1.5299928
     7   6 C        8   6 C                                       1.5308808
     8   6 C        9   6 C                                       1.5313610 (max)
     9   6 C       10   6 C                                       1.5292392
    11   6 C       12   6 C                                       1.4810482
    12   6 C       13   7 N                                       1.3405807
    13   7 N       14   6 C                                       1.4388787
    13   7 N       15   6 C                                       1.3650955
    15   6 C       16   6 C                                       1.3569904
    12   6 C       17   7 N                                       1.3397043
    16   6 C       17   7 N                                       1.3641525
    17   7 N       18   6 C                                       1.4483131
    19   6 C       20   6 C                                       1.3886654
    20   6 C       21   6 C                                       1.3842508
    21   6 C       22   6 C                                       1.3844434
    22   6 C       23   6 C                                       1.3848940
    19   6 C       24   6 C                                       1.3894149
    23   6 C       24   6 C                                       1.3837081
     1   6 C       25   1 H                                       1.0871018
     1   6 C       26   1 H                                       1.0872974
     1   6 C       27   1 H                                       1.0878468
     2   6 C       28   1 H                                       1.0914512
     2   6 C       29   1 H                                       1.0925090
     3   6 C       30   1 H                                       1.0921956
     3   6 C       31   1 H                                       1.0929256
     4   6 C       32   1 H                                       1.0929121
     4   6 C       33   1 H                                       1.0913001
     5   6 C       34   1 H                                       1.0931569
     5   6 C       35   1 H                                       1.0909645
     6   6 C       36   1 H                                       1.0927503
     6   6 C       37   1 H                                       1.0907905
     7   6 C       38   1 H                                       1.0924419
     7   6 C       39   1 H                                       1.0905862
     8   6 C       40   1 H                                       1.0930802
     8   6 C       41   1 H                                       1.0906078
     9   6 C       42   1 H                                       1.0941173
     9   6 C       43   1 H                                       1.0898595
    10   6 C       44   1 H                                       1.0906849
    10   6 C       45   1 H                                       1.0891827
    11   6 C       46   1 H                                       1.0927212
    11   6 C       47   1 H                                       1.0892828
    14   6 C       48   1 H                                       1.0914625
    14   6 C       49   1 H                                       1.0882213
    14   6 C       50   1 H                                       1.0886213
    15   6 C       51   1 H                                       1.0703207 (min)
    16   6 C       52   1 H                                       1.0705204
    18   6 C       53   1 H                                       1.0929245
    18   6 C       54   1 H                                       1.0936155
    20   6 C       55   1 H                                       1.0803663
    21   6 C       56   1 H                                       1.0786479
    22   6 C       57   1 H                                       1.0784411
    23   6 C       58   1 H                                       1.0788261
    24   6 C       59   1 H                                       1.0813253

 * 3 distinct bonds (by element types)

   Z      Z             #   av. dist./Å        max./Å        min./Å
   1 H    6 C          35     1.0882588     1.0941173     1.0703207
   6 C    6 C          17     1.4658256     1.5313610     1.3569904
   6 C    7 N           6     1.3827874     1.4483131     1.3397043


optimized geometry written to: xtbopt.xyz


           -------------------------------------------------
          | TOTAL ENERGY              -70.466531076728 Eh   |
          | GRADIENT NORM               0.000349964325 Eh/α |
          | HOMO-LUMO GAP               2.319281027578 eV   |
           -------------------------------------------------

------------------------------------------------------------------------
 * finished run on 2024/12/20 at 07:14:51.639     
------------------------------------------------------------------------
 total:
 * wall-time:     0 d,  0 h,  0 min,  2.402 sec
 *  cpu-time:     0 d,  0 h,  0 min, 18.931 sec
 * ratio c/w:     7.881 speedup
 SCF:
 * wall-time:     0 d,  0 h,  0 min,  0.048 sec
 *  cpu-time:     0 d,  0 h,  0 min,  0.383 sec
 * ratio c/w:     7.927 speedup
 ANC optimizer:
 * wall-time:     0 d,  0 h,  0 min,  2.334 sec
 *  cpu-time:     0 d,  0 h,  0 min, 18.404 sec
 * ratio c/w:     7.885 speedup

