12
 energy: -25.993519040423 gnorm: 0.000193822171 xtb: 6.7.1 (edcfbbe)
O            1.09725142834848        0.13977738778364       -0.25427874383211
N            0.36878689420450       -0.67951369921136       -1.03728908468230
C            0.63217199544741       -1.95747595977253       -1.40618210122013
C           -0.40086662365897       -2.36445381712651       -2.20357776979848
N           -1.26370684526720       -1.32265480772772       -2.29740257648537
C           -0.79433578828055       -0.28660025888665       -1.58262426573156
Br          -1.59633654216630        1.36525805195297       -1.38670082363424
O           -2.42628390862876       -1.24836694686614       -2.97408207576899
H            1.90821720154054       -0.30010575752194        0.05578636034048
H            1.50728899110280       -2.49471168284899       -1.09596260709397
H           -0.55705405955770       -3.30798686339073       -2.68941683448441
H           -2.61703274308425       -2.08288564638404       -3.43721947760893
