27
 energy: -28.810566514758 gnorm: 0.000559236752 xtb: 6.7.1 (edcfbbe)
C            0.96081267840854        0.09308745062130       -0.08591366762116
C            0.48941064740062       -0.14407709316435       -1.47176180138729
C           -0.38525083766045       -1.07796812050913       -1.82307301040355
C           -0.90675395063979       -1.24761418686328       -3.22112496390916
N           -0.37080673255307       -2.52489252265183       -3.86803695589469
C           -0.81258592314173       -3.73222126968352       -3.14899646968949
C           -0.81211504825744       -2.61517465732065       -5.27139660286153
C            1.10326501165225       -2.47317929728995       -3.84652607430787
C           -2.42888649507883       -1.17480370612721       -3.20455379034222
H            0.52475937917435       -0.61329035387283        0.61464066672451
H            0.69810053306394        1.10409844151647        0.22202978815015
H            2.04664724550268        0.02020174424932       -0.04245583784416
H            0.90621992972807        0.51654229949272       -2.22244274245188
H           -0.82863283204647       -1.70958566041580       -1.06647274531278
H           -0.52085085260811       -0.43411534942093       -3.84385840330253
H           -1.89587980718176       -3.81803833039307       -3.17774536099864
H           -0.38498881314883       -4.61628413719179       -3.61881908655331
H           -0.48215620004359       -3.69482646883005       -2.11393858409443
H           -0.55091767387017       -1.70540286386613       -5.80881483490787
H           -0.32381633375319       -3.45837222480759       -5.75715369384336
H           -1.88697145235925       -2.76485730868365       -5.32891244812362
H            1.45731553277590       -1.61170733985669       -4.40887168513405
H            1.45791217154937       -2.38978762216679       -2.82146483430132
H            1.51513585725129       -3.37588994302714       -4.29283695028044
H           -2.70371051555026       -0.21664522115815       -2.76915603884352
H           -2.86551833168805       -1.21388678638615       -4.19779001402484
H           -2.86924718692591       -1.94790947219342       -2.58154385844092
