40
 energy: -50.122853523751 gnorm: 0.054581445895 xtb: 6.7.1 (edcfbbe)
C            2.68083000000000       -0.04867000000000       -0.30508000000000
C            1.18647000000000        0.00783000000000       -0.16894000000000
C            0.40769000000000       -1.11563000000000       -0.45215000000000
C           -0.98492000000000       -1.07143000000000       -0.31268000000000
C           -1.63284000000000        0.09470000000000        0.11909000000000
C           -0.83442000000000        1.19996000000000        0.45748000000000
C            0.55733000000000        1.15824000000000        0.30646000000000
N           -3.16093000000000        0.15300000000000        0.26844000000000
C           -3.51759000000000       -0.27102000000000        1.74137000000000
C           -3.13617000000000       -1.69730000000000        2.12979000000000
C           -1.94385000000000       -1.92633000000000        2.84098000000000
C           -1.56648000000000       -3.21874000000000        3.21160000000000
C           -2.37306000000000       -4.30356000000000        2.88154000000000
C           -3.56103000000000       -4.09812000000000        2.18706000000000
C           -3.94355000000000       -2.80633000000000        1.81854000000000
C           -4.99745000000000        0.01261000000000        2.06123000000000
C           -3.82035000000000       -0.72349000000000       -0.79718000000000
C           -3.63426000000000        1.58524000000000       -0.02780000000000
H            3.12641000000000       -0.44240000000000        0.61342000000000
H            2.96982000000000       -0.68960000000000       -1.14471000000000
H            3.09383000000000        0.94672000000000       -0.50021000000000
H            0.88254000000000       -2.03980000000000       -0.77984000000000
H           -1.51889000000000       -1.99235000000000       -0.52457000000000
H           -1.24860000000000        2.12255000000000        0.84832000000000
H            1.15045000000000        2.03571000000000        0.56491000000000
H           -2.94079000000000        0.41634000000000        2.37693000000000
H           -1.29000000000000       -1.10159000000000        3.12117000000000
H           -0.64399000000000       -3.38106000000000        3.76566000000000
H           -2.08078000000000       -5.30947000000000        3.17596000000000
H           -4.19530000000000       -4.94807000000000        1.94216000000000
H           -4.88812000000000       -2.69211000000000        1.29167000000000
H           -5.23993000000000       -0.31908000000000        3.07819000000000
H           -5.22028000000000        1.08342000000000        2.02556000000000
H           -5.68410000000000       -0.49787000000000        1.37975000000000
H           -4.90427000000000       -0.58707000000000       -0.74174000000000
H           -3.46471000000000       -0.40153000000000       -1.78219000000000
H           -3.58916000000000       -1.77605000000000       -0.63477000000000
H           -3.37955000000000        2.23486000000000        0.81437000000000
H           -3.17038000000000        1.92900000000000       -0.95852000000000
H           -4.72156000000000        1.57738000000000       -0.15470000000000
40
 energy: -50.132157029222 gnorm: 0.024665209191 xtb: 6.7.1 (edcfbbe)
C            2.66161387812237       -0.04564122952119       -0.30888617946221
C            1.17194900997755        0.00238960616406       -0.15634881280762
C            0.38646929322945       -1.10990985719487       -0.43956238296229
C           -0.99461016313739       -1.07457754365505       -0.29356474615740
C           -1.63278031888032        0.08267422351876        0.13923036208719
C           -0.84768088586447        1.18711932487188        0.46281785157864
C            0.53250887575744        1.14531228024306        0.30986922948832
N           -3.13817080117050        0.14044447655592        0.27817074888630
C           -3.51763970053261       -0.26710096551308        1.72961761628011
C           -3.11548555040408       -1.69242059767247        2.07750855083308
C           -1.94210451060812       -1.91726665722652        2.80210222180723
C           -1.57766660643830       -3.19776579348926        3.19549488750045
C           -2.37948924103413       -4.28062198275159        2.87433681187882
C           -3.56001270875485       -4.07272574663766        2.18025693056016
C           -3.92782608058670       -2.79193795244333        1.79015868174638
C           -4.99109022952081        0.01083710830134        2.04280889140627
C           -3.79954817207666       -0.71935469343791       -0.75811779087910
C           -3.61697330257341        1.54266673486104       -0.00348835198754
H            3.11321173538561       -0.43778105267714        0.60220065367731
H            2.95224818440984       -0.69455475068825       -1.13423181586430
H            3.07458076441587        0.94608277107593       -0.48974168493349
H            0.85555226829539       -2.02311736923964       -0.77935014483589
H           -1.53497460507789       -1.98013238755242       -0.52396874595176
H           -1.26869604255498        2.10677953608258        0.84000102373139
H            1.11729600935122        2.02022080582836        0.56143812767086
H           -2.91396443811689        0.40716597609776        2.34939195787000
H           -1.30513125066125       -1.08999202427862        3.08887824124038
H           -0.66428380893141       -3.35350654033136        3.75372117155656
H           -2.09029353216388       -5.28048008713947        3.17065286436782
H           -4.19667686285509       -4.91430422325252        1.94213946718544
H           -4.87457647151109       -2.67110567125296        1.28145338967392
H           -5.20136123203775       -0.33706632069857        3.05455361681803
H           -5.21653904534722        1.07608543863902        2.02189907030178
H           -5.67525768757508       -0.50689000327299        1.37396178811009
H           -4.87880126076049       -0.58008717341307       -0.71462996380435
H           -3.44528488450355       -0.41198025898641       -1.74179151371736
H           -3.57451810840830       -1.76849470043589       -0.59646434169410
H           -3.36854383176868        2.20935133696151        0.81798990634874
H           -3.15009479462593        1.89442355618805       -0.92211223515310
H           -4.69729389046282        1.54615240737295       -0.14182535239478
40
 energy: -50.134756227767 gnorm: 0.007162710144 xtb: 6.7.1 (edcfbbe)
C            2.63760295547946       -0.04619928698592       -0.30627821140463
C            1.15387407463698       -0.00501089939412       -0.14265896790509
C            0.36405785866932       -1.11238013900624       -0.42559667946818
C           -1.01125844519512       -1.08223751410333       -0.27867536522210
C           -1.64448906478234        0.07289410352138        0.15461617416658
C           -0.86530544390163        1.17621224304829        0.47569859059108
C            0.50837622729261        1.13385711074329        0.32188204179377
N           -3.12955871308620        0.13799760220337        0.28122753752037
C           -3.50664693092772       -0.25880533005313        1.71750424104537
C           -3.11032751859770       -1.68034757798279        2.05881167092826
C           -1.93761256120177       -1.90147969298209        2.77330607381371
C           -1.57423366288523       -3.17666653967614        3.16666175465512
C           -2.37852195137262       -4.25823858908432        2.85446495971318
C           -3.55549471967714       -4.04932975222606        2.15796506711349
C           -3.92229724590029       -2.77308054305639        1.76939372954710
C           -4.97460334413166        0.00396452429447        2.03240116080310
C           -3.77615639328698       -0.72431589341204       -0.72620833772240
C           -3.59495474805093        1.51695475446576        0.00677955912917
H            3.09574404854434       -0.43778318654665        0.60127807596519
H            2.92383240198084       -0.69833995530828       -1.12650427442510
H            3.04340616660829        0.94608736752581       -0.48077801848330
H            0.82994984376265       -2.01935017463470       -0.77522404138531
H           -1.55602559048264       -1.97959543624154       -0.51352891523367
H           -1.29209192960938        2.09383300602793        0.84325221724975
H            1.08735035184805        2.01073735756662        0.56367543974270
H           -2.89606663067772        0.40585215233212        2.33832525432917
H           -1.30352035587239       -1.07049625263429        3.04374043002869
H           -0.67073964047684       -3.32506819573364        3.73611086404531
H           -2.10142616131822       -5.25224636690842        3.16839449361648
H           -4.20192677603758       -4.88292654148445        1.93327831188967
H           -4.86250413994471       -2.64592924595896        1.25643285686450
H           -5.16442107054815       -0.35968566021293        3.03988778057671
H           -5.20955541031385        1.06380216004088        2.02306617053182
H           -5.65351864691398       -0.51834283332781        1.36707407378089
H           -4.85307493450554       -0.58322746012199       -0.69141453614612
H           -3.42115784349211       -0.44102820887292       -1.71546929262449
H           -3.55930033535070       -1.77206134164717       -0.55005900850662
H           -3.35397748433476        2.18835821479986        0.82421378612136
H           -3.12367754257222        1.87951830787314       -0.90423507016294
H           -4.67168869337407        1.52299371315329       -0.13624159687252
40
 energy: -50.135138930058 gnorm: 0.004324596276 xtb: 6.7.1 (edcfbbe)
C            2.62812992628583       -0.05012847176672       -0.30058749006300
C            1.14721683464997       -0.01134071869902       -0.13257536277118
C            0.35832959238205       -1.11995803924355       -0.41543816724811
C           -1.01668541591019       -1.08975735436985       -0.26962829931666
C           -1.64951285811530        0.06821224505215        0.16107256926078
C           -0.86975977422963        1.17100578369546        0.48675338440097
C            0.50346057893301        1.12816351120205        0.33412600381769
N           -3.13053398248935        0.13852233409835        0.28152342139256
C           -3.50322672507597       -0.25003262589170        1.71506906315099
C           -3.10233749846656       -1.67133176238441        2.04539759677430
C           -1.92467955208990       -1.89121873047688        2.75210936238374
C           -1.56599988989050       -3.16597557453778        3.15197126011194
C           -2.37719531970574       -4.24561161948249        2.84696767501573
C           -3.55375156556345       -4.03753177631855        2.14790414227515
C           -3.91741282991650       -2.76182381695140        1.75412118920907
C           -4.97115521571751        0.00399276966375        2.03623450226750
C           -3.77461437034499       -0.73262929054770       -0.71633266015047
C           -3.59382525522504        1.51340321768603        0.00346501266617
H            3.08976871065394       -0.44130830813760        0.60620195921074
H            2.91011679808269       -0.70150356754653       -1.12304722765029
H            3.02829840122819        0.94431887143049       -0.47643463602846
H            0.82353985418398       -2.02698289697276       -0.76759953112556
H           -1.56287217441504       -1.98628804122597       -0.50417345492361
H           -1.29844400148215        2.08697739670498        0.85567925257943
H            1.08179090114152        2.00601040706066        0.57594584411843
H           -2.89305698074849        0.41354472827179        2.33772382542649
H           -1.28997959631784       -1.05731019583602        3.01432755479000
H           -0.65867353544489       -3.31385215724197        3.71514425161917
H           -2.10150086202548       -5.23940666821281        3.16125073998600
H           -4.20102024632389       -4.86979553056638        1.92036973612524
H           -4.85887600092089       -2.63102269716848        1.24315348277681
H           -5.15587244853315       -0.36908637216618        3.04137440668198
H           -5.21552519178380        1.06198411400615        2.03288500156437
H           -5.64634198796160       -0.51987431233333        1.36779722031160
H           -4.85225621121363       -0.58904115602861       -0.69103406816439
H           -3.41087064317076       -0.46891246007682       -1.70918712434253
H           -3.56318041330165       -1.77944857137077       -0.52167034168844
H           -3.35770456933218        2.18372983841304        0.82477464031988
H           -3.11526139670745        1.87858989826454       -0.90404858010544
H           -4.67046508511697        1.52160760000461       -0.14501615465842
40
 energy: -50.135364735928 gnorm: 0.003512009947 xtb: 6.7.1 (edcfbbe)
C            2.61976035681507       -0.05673440926489       -0.29194630702830
C            1.14044945791518       -0.01965249884401       -0.11890679196691
C            0.35253107138686       -1.12898173069886       -0.40288928308006
C           -1.02304536771538       -1.09622715248541       -0.26221584562837
C           -1.65544268621652        0.06496067852226        0.16460435932743
C           -0.87395011683956        1.16492150754754        0.49989732640160
C            0.49975159163944        1.12034241173266        0.35151825272072
N           -3.13486465540785        0.13988343072870        0.28112480998921
C           -3.50271707789307       -0.24191901224996        1.71357043216156
C           -3.09797611962232       -1.66130250792096        2.04255572477415
C           -1.91014642476072       -1.88065146657593        2.73309324894346
C           -1.54941495086980       -3.15624374278847        3.12872089812358
C           -2.36711282265375       -4.23358658100845        2.83091333219767
C           -3.54702706324575       -4.02691162317064        2.13649559103277
C           -3.91468985072068       -2.75054219643256        1.74910166187517
C           -4.97081773672233        0.00608180934273        2.04106351311173
C           -3.77714453409357       -0.74153130490753       -0.71022525745452
C           -3.59646915233570        1.51391732087912       -0.00561829642254
H            3.08630393466154       -0.44762803321089        0.61279674918118
H            2.89825987838303       -0.70648208755044       -1.11735765337688
H            3.01600289967819        0.93929099995915       -0.46990174177882
H            0.81734528087187       -2.03785308067402       -0.75243702045762
H           -1.57054529917530       -1.99268921457586       -0.49539095795607
H           -1.30453400866324        2.07847431767368        0.87314514121802
H            1.07881375140366        1.99681349348170        0.59870674302858
H           -2.89406774923358        0.42442821214856        2.33518561737148
H           -1.27114461941605       -1.04462447551679        2.98074990883269
H           -0.63630325972651       -3.30433410154262        3.68304858861985
H           -2.09463831952333       -5.22690884578111        3.14993148115415
H           -4.19525556318314       -4.85851646720365        1.90749190850698
H           -4.85744994958321       -2.61722546764554        1.24017996253129
H           -5.15142179766311       -0.37400674326991        3.04426937502034
H           -5.22093280438843        1.06299944597572        2.04329411231865
H           -5.64471773417903       -0.51691063852825        1.36971365539374
H           -4.85475786797380       -0.59083062723759       -0.69821014350667
H           -3.39966056582502       -0.49963976155280       -1.70426745110660
H           -3.57465002491983       -1.78703514424264       -0.49309234465484
H           -3.36813481756965        2.18448392400497        0.81933975384274
H           -3.10953383598285        1.87946527907402       -0.90930346330559
H           -4.67259144665050        1.52179608380858       -0.16217958995467
40
 energy: -50.135503905349 gnorm: 0.003177126574 xtb: 6.7.1 (edcfbbe)
C            2.61483889661318       -0.06391121986526       -0.28218737084493
C            1.13556328604236       -0.02676389332842       -0.10697223029174
C            0.34775726789857       -1.13553610221125       -0.39321665733735
C           -1.02855933269623       -1.09982021367074       -0.25843509172343
C           -1.66030551033228        0.06290697102066        0.16599844268059
C           -0.87758150883500        1.15951708144572        0.51054703371663
C            0.49683959869866        1.11299442904739        0.36687159719474
N           -3.13995847897596        0.14004366882180        0.27998678296515
C           -3.50500984475003       -0.23585780476264        1.71353355967256
C           -3.09542205186921       -1.65388459049522        2.04285439321255
C           -1.89827745690464       -1.87287717459100        2.71803225480462
C           -1.53262932948703       -3.14915570073215        3.10774865295821
C           -2.35382743858137       -4.22572870804104        2.81714543073350
C           -3.53945251098665       -4.02062833499192        2.13227960267035
C           -3.91321702200994       -2.74349139194775        1.75271524631576
C           -4.97345094921788        0.01016633570282        2.04322863940134
C           -3.78126530746859       -0.74663337434360       -0.70952068513763
C           -3.60036440243280        1.51470477874979       -0.01392723562368
H            3.08475232699816       -0.45490747613140        0.62061682813782
H            2.89147266607149       -0.71252917815945       -1.10940393516227
H            3.01014351318612        0.93243714960924       -0.46155421735112
H            0.81252037584248       -2.04629847524706       -0.73837495310194
H           -1.57713552822044       -1.99560018936082       -0.49300378918980
H           -1.30968096145375        2.07129418831052        0.88730833220773
H            1.07730424099995        1.98654914366818        0.62170092918286
H           -2.89784601836279        0.43424666563551        2.33303729606235
H           -1.25707347298331       -1.03576149213983        2.95678009006659
H           -0.61191418041847       -3.29792435877129        3.64981571825330
H           -2.07826209429643       -5.21923484005627        3.13277482280769
H           -4.18685108293628       -4.85292273844215        1.90277832097613
H           -4.86099043278684       -2.60932514879871        1.25304646496179
H           -5.15301919669273       -0.37289216925550        3.04519675367112
H           -5.22378960782572        1.06698467601415        2.04848190323901
H           -5.64781751525180       -0.51020647971383        1.37000514847821
H           -4.85772934457221       -0.58707780145294       -0.70895984169536
H           -3.39184018780260       -0.51932847321681       -1.70182190988019
H           -3.58873088005940       -1.79096719931753       -0.47740849865996
H           -3.37833757613185        2.18724871781024        0.81159200373388
H           -3.10719896827206        1.87780240709922       -0.91501599198706
H           -4.67559397973485        1.52125831610878       -0.17770384011748
40
 energy: -50.135670368868 gnorm: 0.002996345381 xtb: 6.7.1 (edcfbbe)
C            2.61032958031295       -0.07407853901707       -0.26719249322699
C            1.13039277254121       -0.03546859480174       -0.09205126600892
C            0.34176913352852       -1.14209681289415       -0.38352353684796
C           -1.03539958479549       -1.10256429940610       -0.25663642417567
C           -1.66565512977545        0.06077631035088        0.16701733223235
C           -0.88207286184687        1.15306329186956        0.52236871747548
C            0.49309641550363        1.10364861621077        0.38524581495192
N           -3.14603760279736        0.14015243832153        0.27814839040182
C           -3.51022911703952       -0.23017090570755        1.71360004736416
C           -3.09456707800585       -1.64627101627353        2.04561119725712
C           -1.88589909517951       -1.86388018894531        2.70103414976593
C           -1.50977582996479       -3.14070466853556        3.07963430811991
C           -2.33179947723004       -4.21845104546126        2.79744818978286
C           -3.52883500629287       -4.01538872832300        2.13219029618457
C           -3.91341533810395       -2.73751935973170        1.76496018885073
C           -4.97892311485085        0.01641979460007        2.04253378680558
C           -3.78720906086930       -0.75031507850766       -0.71005960119160
C           -3.60484718274706        1.51550437731907       -0.02360331763564
H            3.08208088693546       -0.46551524710633        0.63400127748632
H            2.88565344528841       -0.72212193115724       -1.09543844770736
H            3.00635691372304        0.92192730600062       -0.44732783476254
H            0.80639309253784       -2.05434910834769       -0.72482115736320
H           -1.58549697597810       -1.99630625447184       -0.49623641493793
H           -1.31558209048338        2.06308911532748        0.90259356952391
H            1.07546520175899        1.97308571417527        0.64960103102771
H           -2.90450407357574        0.44464898205659        2.32965803514417
H           -1.24304300997073       -1.02592601479176        2.93123743729078
H           -0.57924534031296       -3.28953363366748        3.60539170560730
H           -2.04824355617977       -5.21230916686676        3.10532720403725
H           -4.17576713144067       -4.84928970005334        1.90712416263444
H           -4.86969179659839       -2.60390000773407        1.28142104044573
H           -5.15989403683742       -0.36828538836602        3.04327724680594
H           -5.22591388221795        1.07391340598767        2.04999182080322
H           -5.65416582249421       -0.49969608997527        1.36700775469470
H           -4.86147873265860       -0.57843329723777       -0.72340953467565
H           -3.38394403926386       -0.53757184855431       -1.69891171993823
H           -3.60878129271405       -1.79349777510519       -0.46387284727741
H           -3.38840860318793        2.19112059658554        0.80039519830777
H           -3.10581886544561        1.87425099873852       -0.92258299112023
H           -4.67883271326916        1.52093375349530       -0.19458231613152
40
 energy: -50.135869639419 gnorm: 0.003378242552 xtb: 6.7.1 (edcfbbe)
C            2.60491223834009       -0.08901738656727       -0.24334599889423
C            1.12390032722272       -0.04703945046123       -0.07253309786759
C            0.33323888546819       -1.14922781589462       -0.37463487918986
C           -1.04479988812815       -1.10509642526444       -0.25762078865434
C           -1.67251610967473        0.05777505569261        0.16861979788491
C           -0.88816962347563        1.14458858172895        0.53717106366374
C            0.48765782863403        1.09104371650297        0.40869507044599
N           -3.15346843774176        0.14007700051786        0.27604688441244
C           -3.51864738519011       -0.22317499507903        1.71436003300981
C           -3.09518449029715       -1.63685127944835        2.04910700045394
C           -1.87137492276906       -1.85102861453078        2.67767492128159
C           -1.47822165232697       -3.12792116641556        3.03938785567713
C           -2.29898089828847       -4.20935470386539        2.76915663714827
C           -3.51474885012266       -4.00921647415432        2.13663254901775
C           -3.91539512357644       -2.73124677499612        1.78572825471359
C           -4.98793162513775        0.02518928412456        2.03824059284955
C           -3.79487666523604       -0.75451579664653       -0.70942779395604
C           -3.60868421633185        1.51567920952432       -0.03471142384424
H            3.07515292876565       -0.48167089608659        0.65755827648788
H            2.88019139595761       -0.73699217796078       -1.07161255848494
H            3.00352388024463        0.90609513067909       -0.42259150317466
H            0.79731763496799       -2.06187614000672       -0.71507425768369
H           -1.59712827419959       -1.99485828581605       -0.50694567937837
H           -1.32251991674795        2.05280711155003        0.92115827241220
H            1.07231881312881        1.95529054838275        0.68431373908661
H           -2.91469034605799        0.45661713691781        2.32666370688664
H           -1.22768645674387       -1.01176949378524        2.89887142713469
H           -0.53399994319357       -3.27535088061452        3.54154466031144
H           -1.99965029482931       -5.20391490400319        3.06086586569338
H           -4.16198390082583       -4.84582902394655        1.92293303177832
H           -4.88463498012604       -2.59984345979548        1.32736650731643
H           -5.17382540766828       -0.36057182547505        3.03744076901583
H           -5.22958956713276        1.08389995059273        2.04705824704803
H           -5.66298063198931       -0.48569509638461        1.35885007831684
H           -4.86582497694433       -0.56631399180254       -0.74015259041652
H           -3.37537394933775       -0.56042093571136       -1.69473970160369
H           -3.63583655106245       -1.79648482628305       -0.44629368277607
H           -3.39594749459649        2.19577026185578        0.78558681491639
H           -3.10418199667360        1.86774997259926       -0.93269137587986
H           -4.68129935629999        1.52158986032544       -0.21208672515801
40
 energy: -50.136059321291 gnorm: 0.003687289552 xtb: 6.7.1 (edcfbbe)
C            2.59909109902983       -0.10777068656237       -0.21174781431997
C            1.11687451756179       -0.06043803293408       -0.05131258193468
C            0.32326878602303       -1.15596757773096       -0.36992091198717
C           -1.05539992556856       -1.10707665453321       -0.26293090740554
C           -1.68007917594639        0.05411311909379        0.17050686481266
C           -0.89467825347617        1.13471629741941        0.55368498856955
C            0.48156895075262        1.07628429700902        0.43460734216057
N           -3.16097033931601        0.14011837132945        0.27423141696716
C           -3.52930449142285       -0.21541689142427        1.71554436613031
C           -3.09743666012529       -1.62606849579231        2.05289126533342
C           -1.85636481488879       -1.83450271138562        2.64947676428589
C           -1.44165924674832       -3.11071649040939        2.98992634254510
C           -2.25959555557546       -4.19783560233490        2.73435820935897
C           -3.49856853101323       -4.00176291370653        2.14454283093444
C           -3.91870167676253       -2.72484123103614        1.81214415070549
C           -4.99958155427513        0.03467471015138        2.03091069091522
C           -3.80377975464099       -0.75963955677552       -0.70542298561838
C           -3.61111495522082        1.51495663738791       -0.04601647585812
H            3.06234536634088       -0.50278850542861        0.69148900079770
H            2.87701540230640       -0.75598465379001       -1.03875715197020
H            3.00235057022306        0.88606982690969       -0.38729296092095
H            0.78615661933670       -2.06737997046089       -0.71477706405278
H           -1.61035702258226       -1.99126872120128       -0.52563395028100
H           -1.32858860431235        2.04113956824726        0.94223887137642
H            1.06843971053267        1.93503719835676        0.72204807441985
H           -2.92774451768736        0.46891519740506        2.32471852174731
H           -1.21273281198962       -0.99297654620973        2.86101612602212
H           -0.48159910392107       -3.25460385419042        3.46326040851061
H           -1.93981465680522       -5.19284504401546        3.00444151823494
H           -4.14695654819690       -4.84193765786082        1.94868899568607
H           -4.90266595860268       -2.59750322442993        1.38402084365237
H           -5.19347487134516       -0.35114290709238        3.02860745819127
H           -5.23671978433684        1.09452273698222        2.03924069755982
H           -5.67215324783761       -0.47221208488709        1.34636220745589
H           -4.87082491066472       -0.55520155257219       -0.75385262663724
H           -3.36937174689041       -0.58688563629316       -1.68822574199111
H           -3.66502745864984       -1.79982009369325       -0.42400132633688
H           -3.39795352397592        2.20029153030543        0.76901558961851
H           -3.10294240812856        1.85872166863483       -0.94501731024916
H           -4.68288891119463        1.52391613751659       -0.22649373642658
40
 energy: -50.136200944336 gnorm: 0.003167554531 xtb: 6.7.1 (edcfbbe)
C            2.59465481461617       -0.12576912003991       -0.18009249556278
C            1.11122940205530       -0.07203485842875       -0.03503204294083
C            0.31473798359093       -1.16004274247771       -0.37259847434427
C           -1.06420152529903       -1.10728252751986       -0.27318801072493
C           -1.68662549319027        0.05105450804846        0.17094792324088
C           -0.89983394362380        1.12595717102631        0.56691976675014
C            0.47666014809909        1.06313025517228        0.45575816009063
N           -3.16687963417290        0.14016900745580        0.27305754056976
C           -3.53859112150397       -0.20871080112854        1.71697959095922
C           -3.09953076718959       -1.61657275198212        2.05563097129881
C           -1.84452925487779       -1.81862535736825        2.62405982864127
C           -1.41122008393422       -3.09336144249092        2.94571085989942
C           -2.22627845160947       -4.18600807404552        2.70416569783500
C           -3.48390173755668       -3.99463305856521        2.15314055452491
C           -3.92057860225454       -2.71976726085395        1.83563817251660