      -----------------------------------------------------------      
     |                   =====================                   |     
     |                           x T B                           |     
     |                   =====================                   |     
     |                         S. Grimme                         |     
     |          Mulliken Center for Theoretical Chemistry        |     
     |                    University of Bonn                     |     
      -----------------------------------------------------------      

   * xtb version 6.7.1 (edcfbbe) compiled by 'conda@3ef47c1a292c' on 2024-11-25

   xtb is free software: you can redistribute it and/or modify it under
   the terms of the GNU Lesser General Public License as published by
   the Free Software Foundation, either version 3 of the License, or
   (at your option) any later version.
   
   xtb is distributed in the hope that it will be useful,
   but WITHOUT ANY WARRANTY; without even the implied warranty of
   MERCHANTABILITY or FITNESS FOR A PARTICULAR PURPOSE.  See the
   GNU Lesser General Public License for more details.
   
   Cite this work as:
   * C. Bannwarth, E. Caldeweyher, S. Ehlert, A. Hansen, P. Pracht,
     J. Seibert, S. Spicher, S. Grimme, WIREs Comput. Mol. Sci., 2020, 11,
     e01493. DOI: 10.1002/wcms.1493
   
   for GFN2-xTB:
   * C. Bannwarth, S. Ehlert and S. Grimme., J. Chem. Theory Comput., 2019,
     15, 1652-1671. DOI: 10.1021/acs.jctc.8b01176
   for GFN1-xTB:
   * S. Grimme, C. Bannwarth, P. Shushkov, J. Chem. Theory Comput., 2017,
     13, 1989-2009. DOI: 10.1021/acs.jctc.7b00118
   for GFN0-xTB:
   * P. Pracht, E. Caldeweyher, S. Ehlert, S. Grimme, ChemRxiv, 2019, preprint.
     DOI: 10.26434/chemrxiv.8326202.v1
   for GFN-FF:
   * S. Spicher and S. Grimme, Angew. Chem. Int. Ed., 2020, 59, 15665-15673.
     DOI: 10.1002/anie.202004239
   
   for ALPB and GBSA implicit solvation:
   * S. Ehlert, M. Stahn, S. Spicher, S. Grimme, J. Chem. Theory Comput.,
     2021, 17, 4250-4261. DOI: 10.1021/acs.jctc.1c00471
   
   for ddCOSMO and CPCM-X implicit solvation:
   * M. Stahn, S. Ehlert, S. Grimme, J. Phys. Chem. A,
     2023, XX, XXXX-XXXX. DOI: 10.1021/acs.jpca.3c04382
   
   for DFT-D4:
   * E. Caldeweyher, C. Bannwarth and S. Grimme, J. Chem. Phys., 2017,
     147, 034112. DOI: 10.1063/1.4993215
   * E. Caldeweyher, S. Ehlert, A. Hansen, H. Neugebauer, S. Spicher,
     C. Bannwarth and S. Grimme, J. Chem. Phys., 2019, 150, 154122.
     DOI: 10.1063/1.5090222
   * E. Caldeweyher, J.-M. Mewes, S. Ehlert and S. Grimme, Phys. Chem. Chem. Phys.
     2020, 22, 8499-8512. DOI: 10.1039/D0CP00502A
   
   for sTDA-xTB:
   * S. Grimme and C. Bannwarth, J. Chem. Phys., 2016, 145, 054103.
     DOI: 10.1063/1.4959605
   
   in the mass-spec context:
   * V. Asgeirsson, C. Bauer and S. Grimme, Chem. Sci., 2017, 8, 4879.
     DOI: 10.1039/c7sc00601b
   * J. Koopman and S. Grimme, ACS Omega 2019, 4, 12, 15120-15133.
     DOI: 10.1021/acsomega.9b02011
   
   for metadynamics refer to:
   * S. Grimme, J. Chem. Theory Comput., 2019, 155, 2847-2862
     DOI: 10.1021/acs.jctc.9b00143
   
   for SPH calculations refer to:
   * S. Spicher and S. Grimme, J. Chem. Theory Comput., 2021, 17, 1701-1714
     DOI: 10.1021/acs.jctc.0c01306
   
   for ONIOM refer to:
   * C. Plett, A. Katbashev, S. Ehlert, S. Grimme, M. Bursch,
     Phys. Chem. Chem. Phys., 2023, 25, 17860-17868. DOI: 10.1039/D3CP02178E
   
   for DIPRO refer to:
   * J. Kohn, N. Gildemeister, S. Grimme, D. Fazzi, A. Hansen,
     J. Chem. Phys., 2023, just accepted.
   
   for PTB refer to:
   * S. Grimme, M. Mueller, A. Hansen, J. Chem. Phys., 2023, 158, 124111.
     DOI: 10.1063/5.0137838
   
   with help from (in alphabetical order)
   P. Atkinson, C. Bannwarth, F. Bohle, G. Brandenburg, E. Caldeweyher
   M. Checinski, S. Dohm, S. Ehlert, S. Ehrlich, I. Gerasimov, C. Hölzer
   A. Katbashev, J. Kohn, J. Koopman, C. Lavigne, S. Lehtola, F. März, M. Müller,
   F. Musil, H. Neugebauer, J. Pisarek, C. Plett, P. Pracht, F. Pultar,
   J. Seibert, P. Shushkov, S. Spicher, M. Stahn, M. Steiner, T. Strunk,
   J. Stückrath, T. Rose, and J. Unsleber
   
 * started run on 2024/12/20 at 07:18:27.655     
   ID    Z sym.   atoms
    1    6 C      1-7, 9-17, 19-26
    2    7 N      8, 18
    3    1 H      27-51

           -------------------------------------------------
          |                Calculation Setup                |
           -------------------------------------------------

          program call               : xtb C1288.xyz --opt --namespace C1288 --charge +1
          calculation namespace      : C1288
          coordinate file            : C1288.xyz
          omp threads                :                     8


           -------------------------------------------------
          |                 G F N 2 - x T B                 |
           -------------------------------------------------

        Reference                      10.1021/acs.jctc.8b01176
      * Hamiltonian:
        H0-scaling (s, p, d)           1.850000    2.230000    2.230000
        zeta-weighting                 0.500000
      * Dispersion:
        s8                             2.700000
        a1                             0.520000
        a2                             5.000000
        s9                             5.000000
      * Repulsion:
        kExp                           1.500000    1.000000
        rExp                           1.000000
      * Coulomb:
        alpha                          2.000000
        third order                    shell-resolved
        anisotropic                    true
        a3                             3.000000
        a5                             4.000000
        cn-shift                       1.200000
        cn-exp                         4.000000
        max-rad                        5.000000


          ...................................................
          :                      SETUP                      :
          :.................................................:
          :  # basis functions                 129          :
          :  # atomic orbitals                 129          :
          :  # shells                           77          :
          :  # electrons                       130          :
          :  max. iterations                   250          :
          :  Hamiltonian                  GFN2-xTB          :
          :  restarted?                      false          :
          :  GBSA solvation                  false          :
          :  PC potential                    false          :
          :  electronic temp.          300.0000000     K    :
          :  accuracy                    1.0000000          :
          :  -> integral cutoff          0.2500000E+02      :
          :  -> integral neglect         0.1000000E-07      :
          :  -> SCF convergence          0.1000000E-05 Eh   :
          :  -> wf. convergence          0.1000000E-03 e    :
          :  Broyden damping             0.4000000          :
          :  net charge                          1          :
          :  unpaired electrons                  0          :
          ...................................................

 iter      E             dE          RMSdq      gap      omega  full diag
   1    -70.6825636 -0.706826E+02  0.383E+00    3.32       0.0  T
   2    -70.7929513 -0.110388E+00  0.243E+00    2.89       1.0  T
   3    -70.7896088  0.334249E-02  0.928E-01    2.47       1.0  T
   4    -70.7951816 -0.557279E-02  0.406E-01    2.13       1.0  T
   5    -70.8023372 -0.715553E-02  0.896E-02    2.30       1.0  T
   6    -70.8025086 -0.171472E-03  0.357E-02    2.32       1.0  T
   7    -70.8025154 -0.674937E-05  0.199E-02    2.33       1.0  T
   8    -70.8025215 -0.613786E-05  0.501E-03    2.33       2.8  T
   9    -70.8025223 -0.833842E-06  0.171E-03    2.33       8.2  T
  10    -70.8025224 -0.362365E-07  0.931E-04    2.33      15.0  T
  11    -70.8025224 -0.128287E-07  0.281E-04    2.33      49.9  T

   *** convergence criteria satisfied after 11 iterations ***

         #    Occupation            Energy/Eh            Energy/eV
      -------------------------------------------------------------
         1        2.0000           -0.8645344             -23.5252
       ...           ...                  ...                  ...
        59        2.0000           -0.5203824             -14.1603
        60        2.0000           -0.5187157             -14.1150
        61        2.0000           -0.5153872             -14.0244
        62        2.0000           -0.5026210             -13.6770
        63        2.0000           -0.4987602             -13.5720
        64        2.0000           -0.4966149             -13.5136
        65        2.0000           -0.4930995             -13.4179 (HOMO)
        66                         -0.4074906             -11.0884 (LUMO)
        67                         -0.3531301              -9.6092
        68                         -0.3492891              -9.5046
        69                         -0.3265154              -8.8849
        70                         -0.3250808              -8.8459
       ...                                ...                  ...
       129                          0.5361120              14.5884
      -------------------------------------------------------------
                  HL-Gap            0.0856089 Eh            2.3295 eV
             Fermi-level           -0.4502950 Eh          -12.2532 eV

 SCC (total)                   0 d,  0 h,  0 min,  0.042 sec
 SCC setup                      ...        0 min,  0.000 sec (  0.458%)
 Dispersion                     ...        0 min,  0.001 sec (  1.930%)
 classical contributions        ...        0 min,  0.000 sec (  0.200%)
 integral evaluation            ...        0 min,  0.003 sec (  7.650%)
 iterations                     ...        0 min,  0.029 sec ( 67.348%)
 molecular gradient             ...        0 min,  0.009 sec ( 21.991%)
 printout                       ...        0 min,  0.000 sec (  0.382%)

         :::::::::::::::::::::::::::::::::::::::::::::::::::::
         ::                     SUMMARY                     ::
         :::::::::::::::::::::::::::::::::::::::::::::::::::::
         :: total energy             -69.633914855364 Eh    ::
         :: gradient norm              0.062494807152 Eh/a0 ::
         :: HOMO-LUMO gap              2.329536503006 eV    ::
         ::.................................................::
         :: SCC energy               -70.801174102529 Eh    ::
         :: -> isotropic ES            0.068579059563 Eh    ::
         :: -> anisotropic ES         -0.006575071485 Eh    ::
         :: -> anisotropic XC          0.047010817338 Eh    ::
         :: -> dispersion             -0.056256957558 Eh    ::
         :: repulsion energy           1.167259247164 Eh    ::
         :: add. restraining           0.000000000000 Eh    ::
         :: total charge               1.000000000000 e     ::
         :::::::::::::::::::::::::::::::::::::::::::::::::::::

      ----------------------------------------------------------- 
     |                   =====================                   |
     |                        A N C O P T                        |
     |                   =====================                   |
     |               Approximate Normal Coordinate               |
     |                Rational Function Optimizer                |
      ----------------------------------------------------------- 
      ----------------------------------------------------------- 
     |                   =====================                   |
     |                        A N C O P T                        |
     |                   =====================                   |
     |               Approximate Normal Coordinate               |
     |                Rational Function Optimizer                |
      ----------------------------------------------------------- 

          ...................................................
          :                      SETUP                      :
          :.................................................:
          :   optimization level            normal          :
          :   max. optcycles                   200          :
          :   ANC micro-cycles                  20          :
          :   degrees of freedom               147          :
          :.................................................:
          :   RF solver                   davidson          :
          :   write xtbopt.log                true          :
          :   linear?                        false          :
          :   energy convergence         0.5000000E-05 Eh   :
          :   grad. convergence          0.1000000E-02 Eh/α :
          :   maxmium RF displ.          1.0000000          :
          :   Hlow (freq-cutoff)         0.1000000E-01      :
          :   Hmax (freq-cutoff)         5.0000000          :
          :   S6 in model hess.         20.0000000          :
          ...................................................

generating ANC from exact Hessian ...
Using Lindh-Hessian (1995)
 Shifting diagonal of input Hessian by    9.8022573853662458E-003
 Lowest  eigenvalues of input Hessian
    0.000000    0.000000    0.000000    0.000000    0.000000    0.000000
    0.010000    0.010138    0.010267    0.010367    0.010624    0.010910
    0.011756    0.012233    0.012307    0.013252    0.015222    0.016246
 Highest eigenvalues
    1.943168    1.943184    2.044909    2.061815    2.071555    2.176758


........................................................................
.............................. CYCLE    1 ..............................
........................................................................

 iter      E             dE          RMSdq      gap      omega  full diag
   1    -70.8025224 -0.708025E+02  0.147E-04    2.33       0.0  T
   2    -70.8025224 -0.141938E-09  0.934E-05    2.33     149.9  T
   3    -70.8025224 -0.105985E-09  0.630E-05    2.33     222.2  T
     SCC iter.                  ...        0 min,  0.009 sec
     gradient                   ...        0 min,  0.009 sec
 * total energy  :   -69.6339149 Eh     change       -0.1641553E-08 Eh
   gradient norm :     0.0624944 Eh/α   predicted     0.0000000E+00 (-100.00%)
   displ. norm   :     0.2753274 α      lambda       -0.1021889E-01
   maximum displ.:     0.0866939 α      in ANC's #11, #86, #15, ...

........................................................................
.............................. CYCLE    2 ..............................
........................................................................

 iter      E             dE          RMSdq      gap      omega  full diag
   1    -70.8639618 -0.708640E+02  0.170E-01    2.45       0.0  T
   2    -70.8640194 -0.576242E-04  0.990E-02    2.45       1.0  T
   3    -70.8640143  0.507626E-05  0.239E-02    2.45       1.0  T
   4    -70.8640213 -0.699713E-05  0.707E-03    2.45       2.0  T
   5    -70.8640233 -0.193797E-05  0.225E-03    2.45       6.2  T
   6    -70.8640233 -0.158387E-07  0.908E-04    2.45      15.4  T
   7    -70.8640233 -0.189598E-07  0.278E-04    2.45      50.3  T
     SCC iter.                  ...        0 min,  0.017 sec
     gradient                   ...        0 min,  0.009 sec
 * total energy  :   -69.6406045 Eh     change       -0.6689649E-02 Eh
   gradient norm :     0.0245233 Eh/α   predicted    -0.5497194E-02 ( -17.83%)
   displ. norm   :     0.2260492 α      lambda       -0.2042485E-02
   maximum displ.:     0.1089173 α      in ANC's #11, #4, #13, ...

........................................................................
.............................. CYCLE    3 ..............................
........................................................................

 iter      E             dE          RMSdq      gap      omega  full diag
   1    -70.8881918 -0.708882E+02  0.904E-02    2.52       0.0  T
   2    -70.8882202 -0.284216E-04  0.526E-02    2.51       1.0  T
   3    -70.8882194  0.808042E-06  0.153E-02    2.51       1.0  T
   4    -70.8882206 -0.119747E-05  0.455E-03    2.51       3.1  T
   5    -70.8882214 -0.748387E-06  0.109E-03    2.51      12.8  T
   6    -70.8882214 -0.396412E-08  0.455E-04    2.51      30.8  T
   7    -70.8882214 -0.371857E-08  0.172E-04    2.51      81.3  T
     SCC iter.                  ...        0 min,  0.018 sec
     gradient                   ...        0 min,  0.009 sec
 * total energy  :   -69.6418039 Eh     change       -0.1199389E-02 Eh
   gradient norm :     0.0064186 Eh/α   predicted    -0.1073788E-02 ( -10.47%)
   displ. norm   :     0.1656282 α      lambda       -0.3408470E-03
   maximum displ.:     0.0922882 α      in ANC's #4, #11, #1, ...

........................................................................
.............................. CYCLE    4 ..............................
........................................................................

 iter      E             dE          RMSdq      gap      omega  full diag
   1    -70.8896103 -0.708896E+02  0.374E-02    2.53       0.0  T
   2    -70.8896130 -0.273297E-05  0.218E-02    2.53       1.0  T
   3    -70.8896128  0.222754E-06  0.463E-03    2.53       3.0  T
   4    -70.8896131 -0.280695E-06  0.143E-03    2.53       9.8  T
   5    -70.8896132 -0.910785E-07  0.319E-04    2.53      43.9  T
   6    -70.8896132 -0.297788E-09  0.140E-04    2.53     100.0  T
     SCC iter.                  ...        0 min,  0.015 sec
     gradient                   ...        0 min,  0.009 sec
 * total energy  :   -69.6420633 Eh     change       -0.2594447E-03 Eh
   gradient norm :     0.0034800 Eh/α   predicted    -0.1751002E-03 ( -32.51%)
   displ. norm   :     0.2513833 α      lambda       -0.3218152E-03
   maximum displ.:     0.1539105 α      in ANC's #4, #11, #1, ...

........................................................................
.............................. CYCLE    5 ..............................
........................................................................

 iter      E             dE          RMSdq      gap      omega  full diag
   1    -70.8879220 -0.708879E+02  0.482E-02    2.54       0.0  T
   2    -70.8879232 -0.121841E-05  0.283E-02    2.53       1.0  T
   3    -70.8879228  0.364523E-06  0.357E-03    2.53       3.9  T
   4    -70.8879233 -0.479201E-06  0.122E-03    2.53      11.5  T
   5    -70.8879234 -0.573893E-07  0.411E-04    2.53      34.0  T
   6    -70.8879234 -0.137277E-10  0.185E-04    2.53      75.5  T
     SCC iter.                  ...        0 min,  0.018 sec
     gradient                   ...        0 min,  0.030 sec
 * total energy  :   -69.6422973 Eh     change       -0.2339213E-03 Eh
   gradient norm :     0.0045339 Eh/α   predicted    -0.1710765E-03 ( -26.87%)
   displ. norm   :     0.2401342 α      lambda       -0.2057700E-03
   maximum displ.:     0.1552719 α      in ANC's #4, #1, #11, ...

........................................................................
.............................. CYCLE    6 ..............................
........................................................................

 iter      E             dE          RMSdq      gap      omega  full diag
   1    -70.8865063 -0.708865E+02  0.427E-02    2.54       0.0  T
   2    -70.8865065 -0.247570E-06  0.250E-02    2.54       1.0  T
   3    -70.8865061  0.412094E-06  0.314E-03    2.54       4.5  T
   4    -70.8865066 -0.528020E-06  0.614E-04    2.54      22.8  T
   5    -70.8865066 -0.307210E-08  0.314E-04    2.54      44.6  T
     SCC iter.                  ...        0 min,  0.013 sec
     gradient                   ...        0 min,  0.009 sec
 * total energy  :   -69.6424703 Eh     change       -0.1730552E-03 Eh
   gradient norm :     0.0047403 Eh/α   predicted    -0.1088198E-03 ( -37.12%)
   displ. norm   :     0.2983234 α      lambda       -0.2522889E-03
   maximum displ.:     0.1891081 α      in ANC's #4, #1, #5, ...

........................................................................
.............................. CYCLE    7 ..............................
........................................................................

 iter      E             dE          RMSdq      gap      omega  full diag
   1    -70.8855753 -0.708856E+02  0.579E-02    2.54       0.0  T
   2    -70.8855759 -0.644158E-06  0.339E-02    2.54       1.0  T
   3    -70.8855749  0.106307E-05  0.461E-03    2.54       3.0  T
   4    -70.8855762 -0.127855E-05  0.855E-04    2.54      16.4  T
   5    -70.8855762 -0.207607E-07  0.387E-04    2.54      36.2  T
   6    -70.8855762 -0.382613E-09  0.193E-04    2.54      72.6  T
     SCC iter.                  ...        0 min,  0.015 sec
     gradient                   ...        0 min,  0.009 sec
 * total energy  :   -69.6426981 Eh     change       -0.2277579E-03 Eh
   gradient norm :     0.0039092 Eh/α   predicted    -0.1373728E-03 ( -39.68%)
   displ. norm   :     0.4455193 α      lambda       -0.3821019E-03
   maximum displ.:     0.2763481 α      in ANC's #4, #1, #5, ...

........................................................................
.............................. CYCLE    8 ..............................
........................................................................

 iter      E             dE          RMSdq      gap      omega  full diag
   1    -70.8850662 -0.708851E+02  0.940E-02    2.54       0.0  T
   2    -70.8850679 -0.163933E-05  0.551E-02    2.55       1.0  T
   3    -70.8850646  0.331727E-05  0.782E-03    2.55       1.8  T
   4    -70.8850685 -0.392342E-05  0.126E-03    2.55      11.1  T
   5    -70.8850685 -0.497901E-07  0.575E-04    2.55      24.3  T
   6    -70.8850685 -0.146485E-09  0.304E-04    2.55      46.1  T
     SCC iter.                  ...        0 min,  0.015 sec
     gradient                   ...        0 min,  0.009 sec
 * total energy  :   -69.6430430 Eh     change       -0.3449605E-03 Eh
   gradient norm :     0.0041158 Eh/α   predicted    -0.2289731E-03 ( -33.62%)
   displ. norm   :     0.5938975 α      lambda       -0.4847073E-03
   maximum displ.:     0.3659695 α      in ANC's #4, #1, #5, ...

........................................................................
.............................. CYCLE    9 ..............................
........................................................................

 iter      E             dE          RMSdq      gap      omega  full diag
   1    -70.8848091 -0.708848E+02  0.130E-01    2.56       0.0  T
   2    -70.8848115 -0.240023E-05  0.760E-02    2.56       1.0  T
   3    -70.8848046  0.689367E-05  0.110E-02    2.56       1.3  T
   4    -70.8848127 -0.813918E-05  0.142E-03    2.56       9.9  T
   5    -70.8848128 -0.332306E-07  0.743E-04    2.56      18.9  T
   6    -70.8848128 -0.990923E-09  0.381E-04    2.56      36.8  T
     SCC iter.                  ...        0 min,  0.017 sec
     gradient                   ...        0 min,  0.009 sec
 * total energy  :   -69.6434741 Eh     change       -0.4310187E-03 Eh
   gradient norm :     0.0055142 Eh/α   predicted    -0.3278405E-03 ( -23.94%)
   displ. norm   :     0.6647355 α      lambda       -0.5034652E-03
   maximum displ.:     0.4112280 α      in ANC's #4, #1, #5, ...

........................................................................
.............................. CYCLE   10 ..............................
........................................................................

 iter      E             dE          RMSdq      gap      omega  full diag
   1    -70.8851606 -0.708852E+02  0.144E-01    2.58       0.0  T
   2    -70.8851631 -0.248701E-05  0.847E-02    2.58       1.0  T
   3    -70.8851543  0.873951E-05  0.123E-02    2.58       1.1  T
   4    -70.8851646 -0.103134E-04  0.144E-03    2.58       9.8  T
   5    -70.8851647 -0.127160E-07  0.796E-04    2.58      17.6  T
   6    -70.8851647 -0.430161E-08  0.344E-04    2.58      40.7  T
     SCC iter.                  ...        0 min,  0.015 sec
     gradient                   ...        0 min,  0.009 sec
 * total energy  :   -69.6439148 Eh     change       -0.4407853E-03 Eh
   gradient norm :     0.0058849 Eh/α   predicted    -0.3629663E-03 ( -17.65%)
   displ. norm   :     0.6775318 α      lambda       -0.4749277E-03
   maximum displ.:     0.4216679 α      in ANC's #4, #1, #5, ...

........................................................................
.............................. CYCLE   11 ..............................
........................................................................

 iter      E             dE          RMSdq      gap      omega  full diag
   1    -70.8867568 -0.708868E+02  0.142E-01    2.60       0.0  T
   2    -70.8867591 -0.237409E-05  0.834E-02    2.60       1.0  T
   3    -70.8867506  0.852360E-05  0.121E-02    2.60       1.2  T
   4    -70.8867607 -0.100612E-04  0.139E-03    2.60      10.1  T
   5    -70.8867607 -0.869046E-08  0.781E-04    2.60      17.9  T
   6    -70.8867607 -0.483593E-08  0.307E-04    2.60      45.6  T
     SCC iter.                  ...        0 min,  0.020 sec
     gradient                   ...        0 min,  0.009 sec
 * total energy  :   -69.6443214 Eh     change       -0.4065985E-03 Eh
   gradient norm :     0.0045589 Eh/α   predicted    -0.3464783E-03 ( -14.79%)
   displ. norm   :     0.6511489 α      lambda       -0.3943290E-03
   maximum displ.:     0.4015682 α      in ANC's #4, #1, #5, ...

........................................................................
.............................. CYCLE   12 ..............................
........................................................................

 iter      E             dE          RMSdq      gap      omega  full diag
   1    -70.8886008 -0.708886E+02  0.130E-01    2.62       0.0  T
   2    -70.8886029 -0.207172E-05  0.764E-02    2.62       1.0  T
   3    -70.8885958  0.713477E-05  0.112E-02    2.62       1.3  T
   4    -70.8886042 -0.843530E-05  0.128E-03    2.62      10.9  T
   5    -70.8886042 -0.824315E-08  0.722E-04    2.62      19.4  T
   6    -70.8886042 -0.330731E-08  0.302E-04    2.62      46.4  T
     SCC iter.                  ...        0 min,  0.015 sec
     gradient                   ...        0 min,  0.010 sec
 * total energy  :   -69.6446501 Eh     change       -0.3287052E-03 Eh
   gradient norm :     0.0028843 Eh/α   predicted    -0.2807614E-03 ( -14.59%)
   displ. norm   :     0.5666128 α      lambda       -0.2751490E-03
   maximum displ.:     0.3592509 α      in ANC's #1, #4, #5, ...

........................................................................
.............................. CYCLE   13 ..............................
........................................................................

 iter      E             dE          RMSdq      gap      omega  full diag
   1    -70.8895608 -0.708896E+02  0.109E-01    2.64       0.0  T
   2    -70.8895622 -0.143405E-05  0.640E-02    2.64       1.0  T
   3    -70.8895570  0.523580E-05  0.963E-03    2.64       1.5  T
   4    -70.8895632 -0.618396E-05  0.108E-03    2.64      13.0  T
   5    -70.8895632 -0.239029E-08  0.603E-04    2.64      23.2  T
   6    -70.8895632 -0.463641E-08  0.232E-04    2.64      60.4  T
     SCC iter.                  ...        0 min,  0.015 sec
     gradient                   ...        0 min,  0.010 sec
 * total energy  :   -69.6448766 Eh     change       -0.2264360E-03 Eh
   gradient norm :     0.0025268 Eh/α   predicted    -0.1817437E-03 ( -19.74%)
   displ. norm   :     0.3963672 α      lambda       -0.1686761E-03
   maximum displ.:     0.2720903 α      in ANC's #1, #4, #3, ...

........................................................................
.............................. CYCLE   14 ..............................
........................................................................

 iter      E             dE          RMSdq      gap      omega  full diag
   1    -70.8909513 -0.708910E+02  0.729E-02    2.64       0.0  T
   2    -70.8909519 -0.669081E-06  0.427E-02    2.65       1.0  T
   3    -70.8909495  0.245442E-05  0.664E-03    2.64       2.1  T
   4    -70.8909524 -0.290152E-05  0.740E-04    2.65      18.9  T
   5    -70.8909524  0.129603E-09  0.417E-04    2.65      33.6  T
   6    -70.8909524 -0.348520E-08  0.145E-04    2.65      96.4  T
     SCC iter.                  ...        0 min,  0.015 sec
     gradient                   ...        0 min,  0.010 sec
 * total energy  :   -69.6450185 Eh     change       -0.1419282E-03 Eh
   gradient norm :     0.0024982 Eh/α   predicted    -0.9759362E-04 ( -31.24%)
   displ. norm   :     0.2689465 α      lambda       -0.1151589E-03
   maximum displ.:     0.1984136 α      in ANC's #1, #4, #7, ...

........................................................................
.............................. CYCLE   15 ..............................
........................................................................

 iter      E             dE          RMSdq      gap      omega  full diag
   1    -70.8906725 -0.708907E+02  0.497E-02    2.65       0.0  T
   2    -70.8906729 -0.324784E-06  0.291E-02    2.65       1.0  T
   3    -70.8906718  0.109559E-05  0.445E-03    2.65       3.1  T
   4    -70.8906731 -0.130207E-05  0.521E-04    2.65      26.9  T
   5    -70.8906731 -0.203826E-09  0.269E-04    2.65      52.1  T
   6    -70.8906731 -0.784382E-09  0.118E-04    2.65     118.2  T
     SCC iter.                  ...        0 min,  0.015 sec
     gradient                   ...        0 min,  0.010 sec
 * total energy  :   -69.6451219 Eh     change       -0.1033991E-03 Eh
   gradient norm :     0.0021379 Eh/α   predicted    -0.6174517E-04 ( -40.28%)
   displ. norm   :     0.2008840 α      lambda       -0.1138163E-03
   maximum displ.:     0.1577910 α      in ANC's #1, #7, #10, ...

........................................................................
.............................. CYCLE   16 ..............................
........................................................................

 iter      E             dE          RMSdq      gap      omega  full diag
   1    -70.8924098 -0.708924E+02  0.343E-02    2.65       0.0  T
   2    -70.8924101 -0.230418E-06  0.201E-02    2.65       1.0  T
   3    -70.8924097  0.361973E-06  0.271E-03    2.65       5.2  T
   4    -70.8924101 -0.450425E-06  0.468E-04    2.65      29.9  T
   5    -70.8924101 -0.373679E-08  0.251E-04    2.65      55.7  T
     SCC iter.                  ...        0 min,  0.013 sec
     gradient                   ...        0 min,  0.009 sec
 * total energy  :   -69.6452209 Eh     change       -0.9895470E-04 Eh
   gradient norm :     0.0023693 Eh/α   predicted    -0.5920550E-04 ( -40.17%)
   displ. norm   :     0.2367040 α      lambda       -0.1380683E-03
   maximum displ.:     0.1808624 α      in ANC's #1, #7, #10, ...

........................................................................
.............................. CYCLE   17 ..............................
........................................................................

 iter      E             dE          RMSdq      gap      omega  full diag
   1    -70.8906679 -0.708907E+02  0.419E-02    2.65       0.0  T
   2    -70.8906682 -0.351883E-06  0.245E-02    2.65       1.0  T
   3    -70.8906676  0.633598E-06  0.352E-03    2.65       4.0  T
   4    -70.8906684 -0.775096E-06  0.607E-04    2.65      23.1  T
   5    -70.8906684 -0.733432E-08  0.322E-04    2.65      43.5  T
     SCC iter.                  ...        0 min,  0.013 sec
     gradient                   ...        0 min,  0.009 sec
 * total energy  :   -69.6453392 Eh     change       -0.1183507E-03 Eh
   gradient norm :     0.0019545 Eh/α   predicted    -0.7290340E-04 ( -38.40%)
   displ. norm   :     0.3555048 α      lambda       -0.1197466E-03
   maximum displ.:     0.2626425 α      in ANC's #1, #7, #10, ...

........................................................................
.............................. CYCLE   18 ..............................
........................................................................

 iter      E             dE          RMSdq      gap      omega  full diag
   1    -70.8896176 -0.708896E+02  0.569E-02    2.65       0.0  T
   2    -70.8896181 -0.462476E-06  0.334E-02    2.65       1.0  T
   3    -70.8896168  0.123495E-05  0.481E-03    2.65       2.9  T
   4    -70.8896183 -0.150792E-05  0.766E-04    2.65      18.3  T
   5    -70.8896184 -0.328512E-08  0.443E-04    2.65      31.6  T
   6    -70.8896184 -0.229336E-08  0.158E-04    2.65      88.5  T
     SCC iter.                  ...        0 min,  0.016 sec
     gradient                   ...        0 min,  0.010 sec
 * total energy  :   -69.6454841 Eh     change       -0.1448397E-03 Eh
   gradient norm :     0.0022896 Eh/α   predicted    -0.6323711E-04 ( -56.34%)
   displ. norm   :     0.1687925 α      lambda       -0.7723644E-04
   maximum displ.:     0.1283329 α      in ANC's #1, #7, #10, ...

........................................................................
.............................. CYCLE   19 ..............................
........................................................................

 iter      E             dE          RMSdq      gap      omega  full diag
   1    -70.8904569 -0.708905E+02  0.245E-02    2.65       0.0  T
   2    -70.8904570 -0.132933E-06  0.144E-02    2.65       1.0  T
   3    -70.8904568  0.247290E-06  0.215E-03    2.65       6.5  T
   4    -70.8904571 -0.298773E-06  0.432E-04    2.65      32.5  T
   5    -70.8904571 -0.434935E-08  0.218E-04    2.65      64.1  T
     SCC iter.                  ...        0 min,  0.014 sec
     gradient                   ...        0 min,  0.010 sec
 * total energy  :   -69.6455522 Eh     change       -0.6816349E-04 Eh
   gradient norm :     0.0021797 Eh/α   predicted    -0.3971917E-04 ( -41.73%)
   displ. norm   :     0.1592186 α      lambda       -0.8194375E-04
   maximum displ.:     0.1268470 α      in ANC's #1, #4, #7, ...

........................................................................
.............................. CYCLE   20 ..............................
........................................................................

 iter      E             dE          RMSdq      gap      omega  full diag
   1    -70.8910129 -0.708910E+02  0.227E-02    2.65       0.0  T
   2    -70.8910131 -0.140460E-06  0.133E-02    2.65       1.1  T
   3    -70.8910128  0.297539E-06  0.239E-03    2.65       5.9  T
   4    -70.8910131 -0.356548E-06  0.403E-04    2.65      34.7  T
   5    -70.8910131 -0.300439E-08  0.215E-04    2.65      65.1  T
     SCC iter.                  ...        0 min,  0.013 sec
     gradient                   ...        0 min,  0.010 sec
 * total energy  :   -69.6456258 Eh     change       -0.7358686E-04 Eh
   gradient norm :     0.0013432 Eh/α   predicted    -0.4201317E-04 ( -42.91%)
   displ. norm   :     0.2390072 α      lambda       -0.8262732E-04
   maximum displ.:     0.1933695 α      in ANC's #1, #4, #10, ...
 * RMSD in coord.:     0.8047731 α      energy gain  -0.1171095E-01 Eh

generating ANC from exact Hessian ...
Using Lindh-Hessian (1995)
 Shifting diagonal of input Hessian by    9.7534398468459328E-003
 Lowest  eigenvalues of input Hessian
    0.000000    0.000000    0.000000    0.000000    0.000000    0.000000
    0.010000    0.010084    0.010359    0.010702    0.010827    0.011121
    0.011976    0.012413    0.012461    0.013562    0.015992    0.016975
 Highest eigenvalues
    2.022235    2.022571    2.091810    2.154060    2.188890    2.273625


........................................................................
.............................. CYCLE   21 ..............................
........................................................................

 iter      E             dE          RMSdq      gap      omega  full diag
   1    -70.8912838 -0.708913E+02  0.321E-02    2.65       0.0  T
   2    -70.8912840 -0.218588E-06  0.189E-02    2.65       1.0  T
   3    -70.8912835  0.542942E-06  0.323E-03    2.65       4.3  T
   4    -70.8912841 -0.655187E-06  0.519E-04    2.65      27.0  T
   5    -70.8912841 -0.266901E-08  0.289E-04    2.65      48.5  T
     SCC iter.                  ...        0 min,  0.013 sec
     gradient                   ...        0 min,  0.010 sec
 * total energy  :   -69.6457349 Eh     change       -0.1090953E-03 Eh
   gradient norm :     0.0016087 Eh/α   predicted     0.0000000E+00 (-100.00%)
   displ. norm   :     0.0849528 α      lambda       -0.2757267E-05
   maximum displ.:     0.0718160 α      in ANC's #1, #7, #4, ...

........................................................................
.............................. CYCLE   22 ..............................
........................................................................

 iter      E             dE          RMSdq      gap      omega  full diag
   1    -70.8914195 -0.708914E+02  0.124E-02    2.64       0.0  T
   2    -70.8914195 -0.640151E-07  0.731E-03    2.65       1.9  T
   3    -70.8914194  0.799941E-07  0.139E-03    2.65      10.1  T
   4    -70.8914195 -0.989424E-07  0.234E-04    2.65      59.9  T
   5    -70.8914195 -0.913019E-09  0.111E-04    2.65     126.4  T
     SCC iter.                  ...        0 min,  0.013 sec
     gradient                   ...        0 min,  0.010 sec
 * total energy  :   -69.6457886 Eh     change       -0.5371502E-04 Eh
   gradient norm :     0.0007782 Eh/α   predicted    -0.1968264E-04 ( -63.36%)
   displ. norm   :     0.1777985 α      lambda       -0.6949427E-04
   maximum displ.:     0.1323809 α      in ANC's #1, #7, #4, ...

........................................................................
.............................. CYCLE   23 ..............................
........................................................................

 iter      E             dE          RMSdq      gap      omega  full diag
   1    -70.8913926 -0.708914E+02  0.270E-02    2.65       0.0  T
   2    -70.8913927 -0.158321E-06  0.158E-02    2.65       1.0  T
   3    -70.8913923  0.411528E-06  0.283E-03    2.64       5.0  T
   4    -70.8913928 -0.495349E-06  0.354E-04    2.65      39.5  T
   5    -70.8913928 -0.779124E-09  0.200E-04    2.65      70.0  T
     SCC iter.                  ...        0 min,  0.013 sec
     gradient                   ...        0 min,  0.010 sec
 * total energy  :   -69.6458820 Eh     change       -0.9341929E-04 Eh
   gradient norm :     0.0013467 Eh/α   predicted    -0.3523906E-04 ( -62.28%)
   displ. norm   :     0.2724572 α      lambda       -0.8914765E-04
   maximum displ.:     0.1983518 α      in ANC's #1, #7, #4, ...

........................................................................
.............................. CYCLE   24 ..............................
........................................................................

 iter      E             dE          RMSdq      gap      omega  full diag
   1    -70.8913148 -0.708913E+02  0.398E-02    2.65       0.0  T
   2    -70.8913151 -0.273309E-06  0.234E-02    2.65       1.0  T
   3    -70.8913144  0.705615E-06  0.361E-03    2.65       3.9  T
   4    -70.8913152 -0.855946E-06  0.535E-04    2.65      26.2  T
   5    -70.8913152 -0.149207E-08  0.300E-04    2.65      46.7  T
     SCC iter.                  ...        0 min,  0.013 sec
     gradient                   ...        0 min,  0.010 sec
 * total energy  :   -69.6459967 Eh     change       -0.1147162E-03 Eh
   gradient norm :     0.0015377 Eh/α   predicted    -0.4614136E-04 ( -59.78%)
   displ. norm   :     0.2691815 α      lambda       -0.7255197E-04
   maximum displ.:     0.2029729 α      in ANC's #1, #7, #4, ...

........................................................................
.............................. CYCLE   25 ..............................
........................................................................

 iter      E             dE          RMSdq      gap      omega  full diag
   1    -70.8914887 -0.708915E+02  0.374E-02    2.65       0.0  T
   2    -70.8914890 -0.313589E-06  0.220E-02    2.65       1.0  T
   3    -70.8914879  0.111130E-05  0.445E-03    2.65       3.1  T
   4    -70.8914892 -0.131447E-05  0.499E-04    2.65      28.1  T
   5    -70.8914892 -0.327688E-09  0.271E-04    2.65      51.7  T
   6    -70.8914892 -0.104167E-08  0.976E-05    2.65     143.4  T
     SCC iter.                  ...        0 min,  0.015 sec
     gradient                   ...        0 min,  0.010 sec
 * total energy  :   -69.6460891 Eh     change       -0.9234626E-04 Eh
   gradient norm :     0.0012804 Eh/α   predicted    -0.3744437E-04 ( -59.45%)
   displ. norm   :     0.1920941 α      lambda       -0.4667605E-04
   maximum displ.:     0.1545458 α      in ANC's #1, #7, #4, ...

........................................................................
.............................. CYCLE   26 ..............................
........................................................................

 iter      E             dE          RMSdq      gap      omega  full diag
   1    -70.8918191 -0.708918E+02  0.241E-02    2.65       0.0  T
   2    -70.8918192 -0.103005E-06  0.142E-02    2.65       1.0  T
   3    -70.8918189  0.316437E-06  0.247E-03    2.65       5.7  T
   4    -70.8918193 -0.378367E-06  0.351E-04    2.64      39.9  T
   5    -70.8918193 -0.248008E-09  0.191E-04    2.64      73.4  T
     SCC iter.                  ...        0 min,  0.013 sec
     gradient                   ...        0 min,  0.010 sec
 * total energy  :   -69.6461519 Eh     change       -0.6283314E-04 Eh
   gradient norm :     0.0008312 Eh/α   predicted    -0.2372222E-04 ( -62.25%)
   displ. norm   :     0.1297255 α      lambda       -0.3448587E-04
   maximum displ.:     0.1127110 α      in ANC's #1, #4, #7, ...

........................................................................
.............................. CYCLE   27 ..............................
........................................................................

 iter      E             dE          RMSdq      gap      omega  full diag
   1    -70.8922008 -0.708922E+02  0.134E-02    2.65       0.0  T
   2    -70.8922009 -0.523290E-07  0.790E-03    2.64       1.8  T
   3    -70.8922007  0.181927E-06  0.190E-03    2.65       7.4  T
   4    -70.8922009 -0.215569E-06  0.222E-04    2.64      63.2  T
   5    -70.8922009 -0.936069E-10  0.120E-04    2.64     116.4  T
     SCC iter.                  ...        0 min,  0.013 sec
     gradient                   ...        0 min,  0.010 sec
 * total energy  :   -69.6462009 Eh     change       -0.4895639E-04 Eh
   gradient norm :     0.0006484 Eh/α   predicted    -0.1737283E-04 ( -64.51%)
   displ. norm   :     0.1157830 α      lambda       -0.3463056E-04
   maximum displ.:     0.1020993 α      in ANC's #1, #14, #12, ...

........................................................................
.............................. CYCLE   28 ..............................
........................................................................

 iter      E             dE          RMSdq      gap      omega  full diag
   1    -70.8923393 -0.708923E+02  0.111E-02    2.65       0.0  T
   2    -70.8923394 -0.295671E-07  0.656E-03    2.64       2.1  T
   3    -70.8923393  0.643622E-07  0.126E-03    2.64      11.1  T
   4    -70.8923394 -0.794779E-07  0.208E-04    2.64      67.2  T
   5    -70.8923394 -0.231992E-09  0.114E-04    2.64     122.4  T
     SCC iter.                  ...        0 min,  0.017 sec
     gradient                   ...        0 min,  0.010 sec
 * total energy  :   -69.6462506 Eh     change       -0.4970884E-04 Eh
   gradient norm :     0.0007200 Eh/α   predicted    -0.1741869E-04 ( -64.96%)
   displ. norm   :     0.1390663 α      lambda       -0.4211264E-04
   maximum displ.:     0.1174618 α      in ANC's #1, #14, #12, ...

........................................................................
.............................. CYCLE   29 ..............................
........................................................................

 iter      E             dE          RMSdq      gap      omega  full diag
   1    -70.8923946 -0.708924E+02  0.154E-02    2.65       0.0  T
   2    -70.8923946 -0.394465E-07  0.908E-03    2.64       1.5  T
   3    -70.8923946  0.442051E-07  0.112E-03    2.64      12.5  T
   4    -70.8923946 -0.616872E-07  0.269E-04    2.64      52.0  T
   5    -70.8923946 -0.475950E-09  0.142E-04    2.64      98.3  T
     SCC iter.                  ...        0 min,  0.013 sec
     gradient                   ...        0 min,  0.009 sec
 * total energy  :   -69.6463104 Eh     change       -0.5985156E-04 Eh
   gradient norm :     0.0008909 Eh/α   predicted    -0.2123843E-04 ( -64.51%)
   displ. norm   :     0.1789359 α      lambda       -0.5129720E-04
   maximum displ.:     0.1462246 α      in ANC's #1, #14, #7, ...

........................................................................
.............................. CYCLE   30 ..............................
........................................................................

 iter      E             dE          RMSdq      gap      omega  full diag
   1    -70.8924107 -0.708924E+02  0.219E-02    2.65       0.0  T
   2    -70.8924108 -0.591447E-07  0.129E-02    2.64       1.1  T
   3    -70.8924107  0.365038E-07  0.113E-03    2.64      12.4  T
   4    -70.8924108 -0.622356E-07  0.349E-04    2.64      40.2  T
   5    -70.8924108 -0.952880E-09  0.176E-04    2.64      79.6  T
     SCC iter.                  ...        0 min,  0.013 sec
     gradient                   ...        0 min,  0.010 sec
 * total energy  :   -69.6463823 Eh     change       -0.7183901E-04 Eh
   gradient norm :     0.0009456 Eh/α   predicted    -0.2601420E-04 ( -63.79%)
   displ. norm   :     0.2101943 α      lambda       -0.5543639E-04
   maximum displ.:     0.1702018 α      in ANC's #1, #14, #7, ...

........................................................................
.............................. CYCLE   31 ..............................
........................................................................

 iter      E             dE          RMSdq      gap      omega  full diag
   1    -70.8922366 -0.708922E+02  0.271E-02    2.65       0.0  T
   2    -70.8922367 -0.807917E-07  0.160E-02    2.64       1.0  T
   3    -70.8922366  0.346259E-07  0.119E-03    2.64      11.8  T
   4    -70.8922367 -0.708670E-07  0.415E-04    2.64      33.8  T
   5    -70.8922367 -0.129904E-08  0.192E-04    2.64      72.9  T
     SCC iter.                  ...        0 min,  0.013 sec
     gradient                   ...        0 min,  0.010 sec
 * total energy  :   -69.6464592 Eh     change       -0.7693316E-04 Eh
   gradient norm :     0.0010376 Eh/α   predicted    -0.2826277E-04 ( -63.26%)
   displ. norm   :     0.2143788 α      lambda       -0.5302001E-04
   maximum displ.:     0.1762996 α      in ANC's #1, #14, #7, ...

........................................................................
.............................. CYCLE   32 ..............................
........................................................................

 iter      E             dE          RMSdq      gap      omega  full diag
   1    -70.8923477 -0.708923E+02  0.274E-02    2.65       0.0  T
   2    -70.8923477 -0.813327E-07  0.161E-02    2.65       1.0  T
   3    -70.8923477  0.461988E-07  0.127E-03    2.64      11.0  T
   4    -70.8923478 -0.841434E-07  0.402E-04    2.64      34.8  T
   5    -70.8923478 -0.882110E-09  0.173E-04    2.65      81.0  T
     SCC iter.                  ...        0 min,  0.012 sec
     gradient                   ...        0 min,  0.010 sec
 * total energy  :   -69.6465329 Eh     change       -0.7370707E-04 Eh
   gradient norm :     0.0008618 Eh/α   predicted    -0.2705179E-04 ( -63.30%)
   displ. norm   :     0.2017435 α      lambda       -0.4773064E-04
   maximum displ.:     0.1695164 α      in ANC's #1, #14, #7, ...

........................................................................
.............................. CYCLE   33 ..............................
........................................................................

 iter      E             dE          RMSdq      gap      omega  full diag
   1    -70.8922841 -0.708923E+02  0.249E-02    2.65       0.0  T
   2    -70.8922841 -0.706490E-07  0.147E-02    2.65       1.0  T
   3    -70.8922841  0.643385E-07  0.134E-03    2.65      10.5  T
   4    -70.8922842 -0.998509E-07  0.369E-04    2.65      38.0  T
   5    -70.8922842 -0.247653E-09  0.142E-04    2.65      98.6  T
     SCC iter.                  ...        0 min,  0.013 sec
     gradient                   ...        0 min,  0.010 sec
 * total energy  :   -69.6466000 Eh     change       -0.6705750E-04 Eh
   gradient norm :     0.0009138 Eh/α   predicted    -0.2429744E-04 ( -63.77%)
   displ. norm   :     0.1847824 α      lambda       -0.4430877E-04
   maximum displ.:     0.1597408 α      in ANC's #1, #14, #10, ...

........................................................................
.............................. CYCLE   34 ..............................
........................................................................

 iter      E             dE          RMSdq      gap      omega  full diag
   1    -70.8925170 -0.708925E+02  0.207E-02    2.65       0.0  T
   2    -70.8925171 -0.680111E-07  0.122E-02    2.65       1.1  T
   3    -70.8925170  0.106612E-06  0.153E-03    2.65       9.1  T
   4    -70.8925171 -0.140456E-06  0.339E-04    2.65      41.3  T
   5    -70.8925171 -0.392617E-09  0.178E-04    2.65      78.7  T
     SCC iter.                  ...        0 min,  0.012 sec
     gradient                   ...        0 min,  0.009 sec
 * total energy  :   -69.6466627 Eh     change       -0.6275187E-04 Eh
   gradient norm :     0.0006391 Eh/α   predicted    -0.2249164E-04 ( -64.16%)
   displ. norm   :     0.1813238 α      lambda       -0.4337040E-04
   maximum displ.:     0.1581165 α      in ANC's #1, #14, #10, ...

........................................................................
.............................. CYCLE   35 ..............................
........................................................................

 iter      E             dE          RMSdq      gap      omega  full diag
   1    -70.8925695 -0.708926E+02  0.181E-02    2.65       0.0  T
   2    -70.8925696 -0.599822E-07  0.107E-02    2.65       1.3  T
   3    -70.8925694  0.143498E-06  0.165E-03    2.65       8.5  T
   4    -70.8925696 -0.178046E-06  0.315E-04    2.65      44.5  T
   5    -70.8925696  0.101892E-09  0.168E-04    2.65      83.3  T
     SCC iter.                  ...        0 min,  0.013 sec
     gradient                   ...        0 min,  0.010 sec
 * total energy  :   -69.6467247 Eh     change       -0.6199339E-04 Eh
   gradient norm :     0.0007470 Eh/α   predicted    -0.2200290E-04 ( -64.51%)
   displ. norm   :     0.1900091 α      lambda       -0.4604730E-04
   maximum displ.:     0.1667306 α      in ANC's #1, #8, #14, ...

........................................................................
.............................. CYCLE   36 ..............................
........................................................................

 iter      E             dE          RMSdq      gap      omega  full diag
   1    -70.8927385 -0.708927E+02  0.170E-02    2.65       0.0  T
   2    -70.8927386 -0.896299E-07  0.100E-02    2.65       1.4  T
   3    -70.8927383  0.306433E-06  0.233E-03    2.65       6.0  T
   4    -70.8927386 -0.363485E-06  0.340E-04    2.65      41.1  T
   5    -70.8927386 -0.634628E-09  0.203E-04    2.65      69.1  T
     SCC iter.                  ...        0 min,  0.012 sec
     gradient                   ...        0 min,  0.009 sec
 * total energy  :   -69.6467898 Eh     change       -0.6508969E-04 Eh
   gradient norm :     0.0006157 Eh/α   predicted    -0.2339408E-04 ( -64.06%)
   displ. norm   :     0.2022446 α      lambda       -0.4670354E-04
   maximum displ.:     0.1754960 α      in ANC's #1, #8, #14, ...

........................................................................
.............................. CYCLE   37 ..............................
........................................................................

 iter      E             dE          RMSdq      gap      omega  full diag
   1    -70.8927377 -0.708927E+02  0.174E-02    2.65       0.0  T
   2    -70.8927378 -0.116028E-06  0.103E-02    2.65       1.4  T
   3    -70.8927374  0.433832E-06  0.276E-03    2.65       5.1  T
   4    -70.8927379 -0.512785E-06  0.366E-04    2.65      38.3  T
   5    -70.8927379 -0.677204E-09  0.216E-04    2.65      64.9  T
     SCC iter.                  ...        0 min,  0.013 sec
     gradient                   ...        0 min,  0.010 sec
 * total energy  :   -69.6468557 Eh     change       -0.6592347E-04 Eh
   gradient norm :     0.0008658 Eh/α   predicted    -0.2377750E-04 ( -63.93%)
   displ. norm   :     0.2087710 α      lambda       -0.4710071E-04
   maximum displ.:     0.1831538 α      in ANC's #1, #8, #4, ...

........................................................................
.............................. CYCLE   38 ..............................
........................................................................

 iter      E             dE          RMSdq      gap      omega  full diag
   1    -70.8931866 -0.708932E+02  0.177E-02    2.65       0.0  T
   2    -70.8931868 -0.172101E-06  0.104E-02    2.65       1.3  T
   3    -70.8931863  0.524604E-06  0.308E-03    2.65       4.6  T
   4    -70.8931869 -0.622158E-06  0.407E-04    2.65      34.4  T
   5    -70.8931869 -0.241093E-08  0.232E-04    2.65      60.5  T
     SCC iter.                  ...        0 min,  0.012 sec
     gradient                   ...        0 min,  0.009 sec
 * total energy  :   -69.6469208 Eh     change       -0.6501854E-04 Eh
   gradient norm :     0.0007823 Eh/α   predicted    -0.2400749E-04 ( -63.08%)
   displ. norm   :     0.2107041 α      lambda       -0.4345305E-04
   maximum displ.:     0.1821693 α      in ANC's #1, #8, #14, ...

........................................................................
.............................. CYCLE   39 ..............................
........................................................................

 iter      E             dE          RMSdq      gap      omega  full diag
   1    -70.8929492 -0.708929E+02  0.187E-02    2.65       0.0  T
   2    -70.8929494 -0.209527E-06  0.110E-02    2.65       1.3  T
   3    -70.8929487  0.630573E-06  0.343E-03    2.65       4.1  T
   4    -70.8929495 -0.751421E-06  0.442E-04    2.65      31.7  T
   5    -70.8929495 -0.287254E-08  0.246E-04    2.65      57.0  T
     SCC iter.                  ...        0 min,  0.013 sec
     gradient                   ...        0 min,  0.010 sec
 * total energy  :   -69.6469794 Eh     change       -0.5863456E-04 Eh
   gradient norm :     0.0010070 Eh/α   predicted    -0.2215644E-04 ( -62.21%)
   displ. norm   :     0.1828192 α      lambda       -0.3600507E-04
   maximum displ.:     0.1630496 α      in ANC's #1, #8, #4, ...

........................................................................
.............................. CYCLE   40 ..............................
........................................................................

 iter      E             dE          RMSdq      gap      omega  full diag
   1    -70.8933222 -0.708933E+02  0.163E-02    2.66       0.0  T
   2    -70.8933223 -0.143433E-06  0.962E-03    2.66       1.5  T
   3    -70.8933218  0.530092E-06  0.310E-03    2.66       4.5  T
   4    -70.8933224 -0.629537E-06  0.333E-04    2.66      42.1  T
   5    -70.8933224 -0.108933E-08  0.198E-04    2.66      70.8  T
     SCC iter.                  ...        0 min,  0.013 sec
     gradient                   ...        0 min,  0.009 sec
 * total energy  :   -69.6470293 Eh     change       -0.4994410E-04 Eh
   gradient norm :     0.0005590 Eh/α   predicted    -0.1827384E-04 ( -63.41%)
   displ. norm   :     0.1467761 α      lambda       -0.2715382E-04
   maximum displ.:     0.1332459 α      in ANC's #1, #4, #8, ...

........................................................................
.............................. CYCLE   41 ..............................
........................................................................

 iter      E             dE          RMSdq      gap      omega  full diag
   1    -70.8936168 -0.708936E+02  0.140E-02    2.66       0.0  T
   2    -70.8936169 -0.869817E-07  0.830E-03    2.66       1.7  T
   3    -70.8936166  0.350759E-06  0.248E-03    2.66       5.6  T
   4    -70.8936170 -0.412876E-06  0.261E-04    2.66      53.7  T
   5    -70.8936170 -0.569429E-09  0.155E-04    2.66      90.5  T
     SCC iter.                  ...        0 min,  0.013 sec
     gradient                   ...        0 min,  0.010 sec
 * total energy  :   -69.6470679 Eh     change       -0.3855951E-04 Eh
   gradient norm :     0.0004502 Eh/α   predicted    -0.1370918E-04 ( -64.45%)
   displ. norm   :     0.1182640 α      lambda       -0.2158081E-04
   maximum displ.:     0.1085882 α      in ANC's #1, #4, #14, ...

........................................................................
.............................. CYCLE   42 ..............................
........................................................................

 iter      E             dE          RMSdq      gap      omega  full diag
   1    -70.8937522 -0.708938E+02  0.127E-02    2.66       0.0  T
   2    -70.8937522 -0.604441E-07  0.752E-03    2.66       1.9  T
   3    -70.8937520  0.254084E-06  0.211E-03    2.66       6.6  T
   4    -70.8937523 -0.298198E-06  0.207E-04    2.66      67.6  T
   5    -70.8937523 -0.209468E-09  0.123E-04    2.66     113.5  T
     SCC iter.                  ...        0 min,  0.013 sec
     gradient                   ...        0 min,  0.009 sec
 * total energy  :   -69.6470991 Eh     change       -0.3122978E-04 Eh
   gradient norm :     0.0004406 Eh/α   predicted    -0.1085993E-04 ( -65.23%)
   displ. norm   :     0.1039373 α      lambda       -0.1924449E-04
   maximum displ.:     0.0948792 α      in ANC's #1, #4, #5, ...
 * RMSD in coord.:     0.4799908 α      energy gain  -0.1473324E-02 Eh

generating ANC from exact Hessian ...
Using Lindh-Hessian (1995)
 Shifting diagonal of input Hessian by    9.7169863519884665E-003
 Lowest  eigenvalues of input Hessian
    0.000000    0.000000    0.000000    0.000000    0.000000    0.000000
    0.010000    0.010083    0.010390    0.010665    0.010816    0.011088
    0.011948    0.012400    0.012490    0.013551    0.015901    0.016855
 Highest eigenvalues
    2.021981    2.025429    2.092812    2.154560    2.188961    2.273464


........................................................................
.............................. CYCLE   43 ..............................
........................................................................

 iter      E             dE          RMSdq      gap      omega  full diag
   1    -70.8938351 -0.708938E+02  0.132E-02    2.66       0.0  T
   2    -70.8938351 -0.475731E-07  0.781E-03    2.66       1.8  T
   3    -70.8938349  0.208726E-06  0.190E-03    2.66       7.4  T
   4    -70.8938352 -0.243911E-06  0.178E-04    2.66      78.7  T
   5    -70.8938352 -0.331823E-10  0.100E-04    2.66     139.4  T
     SCC iter.                  ...        0 min,  0.013 sec
     gradient                   ...        0 min,  0.010 sec
 * total energy  :   -69.6471271 Eh     change       -0.2796147E-04 Eh
   gradient norm :     0.0004264 Eh/α   predicted     0.0000000E+00 (-100.00%)
   displ. norm   :     0.0449437 α      lambda       -0.9492481E-05
   maximum displ.:     0.0373697 α      in ANC's #1, #2, #8, ...

........................................................................
.............................. CYCLE   44 ..............................
........................................................................

 iter      E             dE          RMSdq      gap      omega  full diag
   1    -70.8937063 -0.708937E+02  0.535E-03    2.66       0.0  T
   2    -70.8937063 -0.628665E-08  0.315E-03    2.66       4.4  T
   3    -70.8937063  0.187127E-07  0.603E-04    2.66      23.2  T
   4    -70.8937063 -0.221374E-07  0.847E-05    2.66     165.4  T
     SCC iter.                  ...        0 min,  0.011 sec
     gradient                   ...        0 min,  0.009 sec
 * total energy  :   -69.6471409 Eh     change       -0.1377935E-04 Eh
   gradient norm :     0.0003268 Eh/α   predicted    -0.4755411E-05 ( -65.49%)
   displ. norm   :     0.0921848 α      lambda       -0.1827631E-04
   maximum displ.:     0.0671434 α      in ANC's #1, #2, #8, ...

........................................................................
.............................. CYCLE   45 ..............................
........................................................................

 iter      E             dE          RMSdq      gap      omega  full diag
   1    -70.8936598 -0.708937E+02  0.118E-02    2.66       0.0  T
   2    -70.8936598 -0.221102E-07  0.696E-03    2.66       2.0  T
   3    -70.8936597  0.979713E-07  0.135E-03    2.65      10.4  T
   4    -70.8936598 -0.114248E-06  0.153E-04    2.66      91.3  T
   5    -70.8936598 -0.798934E-10  0.915E-05    2.66     153.1  T
     SCC iter.                  ...        0 min,  0.013 sec
     gradient                   ...        0 min,  0.010 sec
 * total energy  :   -69.6471668 Eh     change       -0.2597382E-04 Eh
   gradient norm :     0.0003587 Eh/α   predicted    -0.9174518E-05 ( -64.68%)
   displ. norm   :     0.1651249 α      lambda       -0.2954308E-04
   maximum displ.:     0.1168040 α      in ANC's #1, #2, #8, ...

........................................................................
.............................. CYCLE   46 ..............................
........................................................................

 iter      E             dE          RMSdq      gap      omega  full diag
   1    -70.8937849 -0.708938E+02  0.210E-02    2.66       0.0  T
   2    -70.8937849 -0.722629E-07  0.124E-02    2.65       1.1  T
   3    -70.8937847  0.269170E-06  0.229E-03    2.65       6.1  T
   4    -70.8937850 -0.316840E-06  0.289E-04    2.65      48.4  T
   5    -70.8937850 -0.456254E-09  0.169E-04    2.65      82.9  T
     SCC iter.                  ...        0 min,  0.013 sec
     gradient                   ...        0 min,  0.010 sec
 * total energy  :   -69.6472068 Eh     change       -0.4000019E-04 Eh
   gradient norm :     0.0003325 Eh/α   predicted    -0.1496332E-04 ( -62.59%)
   displ. norm   :     0.2148751 α      lambda       -0.3238023E-04
   maximum displ.:     0.1530262 α      in ANC's #1, #2, #8, ...

........................................................................
.............................. CYCLE   47 ..............................
........................................................................

 iter      E             dE          RMSdq      gap      omega  full diag
   1    -70.8936603 -0.708937E+02  0.263E-02    2.65       0.0  T
   2    -70.8936604 -0.120123E-06  0.155E-02    2.65       1.0  T
   3    -70.8936599  0.493207E-06  0.301E-03    2.65       4.6  T
   4    -70.8936605 -0.576480E-06  0.353E-04    2.65      39.7  T
   5    -70.8936605 -0.411035E-09  0.211E-04    2.65      66.3  T
     SCC iter.                  ...        0 min,  0.013 sec
     gradient                   ...        0 min,  0.009 sec
 * total energy  :   -69.6472491 Eh     change       -0.4221983E-04 Eh
   gradient norm :     0.0004602 Eh/α   predicted    -0.1653919E-04 ( -60.83%)
   displ. norm   :     0.2067424 α      lambda       -0.2594435E-04
   maximum displ.:     0.1495443 α      in ANC's #1, #2, #5, ...

........................................................................
.............................. CYCLE   48 ..............................
........................................................................

 iter      E             dE          RMSdq      gap      omega  full diag
   1    -70.8937924 -0.708938E+02  0.239E-02    2.65       0.0  T
   2    -70.8937925 -0.115904E-06  0.141E-02    2.65       1.0  T
   3    -70.8937921  0.446810E-06  0.285E-03    2.65       4.9  T
   4    -70.8937926 -0.524625E-06  0.341E-04    2.65      41.1  T
   5    -70.8937926 -0.523684E-09  0.207E-04    2.65      67.7  T
     SCC iter.                  ...        0 min,  0.013 sec
     gradient                   ...        0 min,  0.009 sec
 * total energy  :   -69.6472833 Eh     change       -0.3421343E-04 Eh
   gradient norm :     0.0004526 Eh/α   predicted    -0.1321975E-04 ( -61.36%)
   displ. norm   :     0.1787620 α      lambda       -0.2068263E-04
   maximum displ.:     0.1307832 α      in ANC's #1, #2, #5, ...

........................................................................
.............................. CYCLE   49 ..............................
........................................................................

 iter      E             dE          RMSdq      gap      omega  full diag
   1    -70.8939092 -0.708939E+02  0.200E-02    2.65       0.0  T
   2    -70.8939093 -0.971380E-07  0.118E-02    2.65       1.2  T
   3    -70.8939090  0.383274E-06  0.261E-03    2.65       5.4  T
   4    -70.8939094 -0.449503E-06  0.288E-04    2.65      48.6  T
   5    -70.8939094 -0.192784E-09  0.175E-04    2.65      80.1  T
     SCC iter.                  ...        0 min,  0.013 sec
     gradient                   ...        0 min,  0.010 sec
 * total energy  :   -69.6473118 Eh     change       -0.2851393E-04 Eh
   gradient norm :     0.0004690 Eh/α   predicted    -0.1048849E-04 ( -63.22%)
   displ. norm   :     0.1747273 α      lambda       -0.2127702E-04
   maximum displ.:     0.1277513 α      in ANC's #1, #2, #5, ...

........................................................................
.............................. CYCLE   50 ..............................
........................................................................

 iter      E             dE          RMSdq      gap      omega  full diag
   1    -70.8940368 -0.708940E+02  0.200E-02    2.65       0.0  T
   2    -70.8940369 -0.127729E-06  0.118E-02    2.65       1.2  T
   3    -70.8940364  0.526058E-06  0.300E-03    2.65       4.7  T
   4    -70.8940370 -0.616915E-06  0.292E-04    2.65      48.0  T
   5    -70.8940370 -0.411418E-09  0.180E-04    2.65      77.7  T
     SCC iter.                  ...        0 min,  0.013 sec
     gradient                   ...        0 min,  0.010 sec
 * total energy  :   -69.6473418 Eh     change       -0.3000282E-04 Eh
   gradient norm :     0.0004464 Eh/α   predicted    -0.1078470E-04 ( -64.05%)
   displ. norm   :     0.2199683 α      lambda       -0.2807853E-04
   maximum displ.:     0.1587258 α      in ANC's #1, #2, #5, ...

........................................................................
.............................. CYCLE   51 ..............................
........................................................................

 iter      E             dE          RMSdq      gap      omega  full diag
   1    -70.8940917 -0.708941E+02  0.274E-02    2.65       0.0  T
   2    -70.8940920 -0.278462E-06  0.162E-02    2.65       1.0  T
   3    -70.8940908  0.113592E-05  0.440E-03    2.65       3.2  T
   4    -70.8940922 -0.133430E-05  0.397E-04    2.65      35.3  T
   5    -70.8940922 -0.110582E-08  0.244E-04    2.65      57.4  T
   6    -70.8940922 -0.810118E-09  0.960E-05    2.65     145.8  T
     SCC iter.                  ...        0 min,  0.015 sec
     gradient                   ...        0 min,  0.009 sec
 * total energy  :   -69.6473808 Eh     change       -0.3900913E-04 Eh
   gradient norm :     0.0004391 Eh/α   predicted    -0.1434170E-04 ( -63.24%)
   displ. norm   :     0.2980102 α      lambda       -0.3624720E-04
   maximum displ.:     0.2131163 α      in ANC's #1, #2, #5, ...

........................................................................
.............................. CYCLE   52 ..............................
........................................................................

 iter      E             dE          RMSdq      gap      omega  full diag
   1    -70.8939324 -0.708939E+02  0.404E-02    2.65       0.0  T
   2    -70.8939330 -0.611486E-06  0.238E-02    2.65       1.0  T
   3    -70.8939304  0.255316E-05  0.658E-03    2.65       2.1  T
   4    -70.8939334 -0.299517E-05  0.575E-04    2.65      24.4  T
   5    -70.8939334 -0.313943E-08  0.352E-04    2.65      39.8  T
   6    -70.8939334 -0.166496E-08  0.137E-04    2.65     101.9  T
     SCC iter.                  ...        0 min,  0.015 sec
     gradient                   ...        0 min,  0.010 sec
 * total energy  :   -69.6474286 Eh     change       -0.4784830E-04 Eh
   gradient norm :     0.0005590 Eh/α   predicted    -0.1884096E-04 ( -60.62%)
   displ. norm   :     0.3274633 α      lambda       -0.3381923E-04
   maximum displ.:     0.2352813 α      in ANC's #1, #2, #5, ...

........................................................................
.............................. CYCLE   53 ..............................
........................................................................

 iter      E             dE          RMSdq      gap      omega  full diag
   1    -70.8938962 -0.708939E+02  0.478E-02    2.65       0.0  T
   2    -70.8938971 -0.908203E-06  0.281E-02    2.65       1.0  T
   3    -70.8938933  0.379658E-05  0.805E-03    2.65       1.7  T
   4    -70.8938978 -0.445840E-05  0.655E-04    2.65      21.4  T
   5    -70.8938978 -0.471276E-08  0.400E-04    2.65      35.0  T
   6    -70.8938978 -0.229352E-08  0.160E-04    2.65      87.6  T
     SCC iter.                  ...        0 min,  0.015 sec
     gradient                   ...        0 min,  0.010 sec
 * total energy  :   -69.6474708 Eh     change       -0.4211173E-04 Eh
   gradient norm :     0.0006521 Eh/α   predicted    -0.1771566E-04 ( -57.93%)
   displ. norm   :     0.2633503 α      lambda       -0.2181711E-04
   maximum displ.:     0.1920726 α      in ANC's #1, #2, #5, ...

........................................................................
.............................. CYCLE   54 ..............................
........................................................................

 iter      E             dE          RMSdq      gap      omega  full diag
   1    -70.8941992 -0.708942E+02  0.414E-02    2.65       0.0  T
   2    -70.8941998 -0.612021E-06  0.244E-02    2.65       1.0  T
   3    -70.8941971  0.271492E-05  0.674E-03    2.65       2.1  T
   4    -70.8942002 -0.317412E-05  0.559E-04    2.65      25.1  T
   5    -70.8942002 -0.330030E-08  0.345E-04    2.65      40.6  T
   6    -70.8942003 -0.190111E-08  0.126E-04    2.65     110.7  T
     SCC iter.                  ...        0 min,  0.015 sec
     gradient                   ...        0 min,  0.010 sec
 * total energy  :   -69.6474975 Eh     change       -0.2670529E-04 Eh
   gradient norm :     0.0005238 Eh/α   predicted    -0.1124750E-04 ( -57.88%)
   displ. norm   :     0.1752359 α      lambda       -0.1268979E-04
   maximum displ.:     0.1313899 α      in ANC's #1, #2, #4, ...

........................................................................
.............................. CYCLE   55 ..............................
........................................................................

 iter      E             dE          RMSdq      gap      omega  full diag
   1    -70.8946303 -0.708946E+02  0.310E-02    2.65       0.0  T
   2    -70.8946306 -0.351820E-06  0.182E-02    2.65       1.0  T
   3    -70.8946291  0.156257E-05  0.515E-03    2.65       2.7  T
   4    -70.8946309 -0.182795E-05  0.383E-04    2.65      36.6  T
   5    -70.8946309 -0.185980E-08  0.238E-04    2.65      58.9  T
   6    -70.8946309 -0.101203E-08  0.839E-05    2.65     166.9  T
     SCC iter.                  ...        0 min,  0.016 sec
     gradient                   ...        0 min,  0.010 sec
 * total energy  :   -69.6475137 Eh     change       -0.1626565E-04 Eh
   gradient norm :     0.0003735 Eh/α   predicted    -0.6431822E-05 ( -60.46%)
   displ. norm   :     0.1109086 α      lambda       -0.8580734E-05
   maximum displ.:     0.0852770 α      in ANC's #1, #4, #6, ...

........................................................................
.............................. CYCLE   56 ..............................
........................................................................

 iter      E             dE          RMSdq      gap      omega  full diag
   1    -70.8949582 -0.708950E+02  0.231E-02    2.65       0.0  T
   2    -70.8949583 -0.147330E-06  0.136E-02    2.65       1.0  T
   3    -70.8949576  0.715016E-06  0.343E-03    2.65       4.1  T
   4    -70.8949584 -0.829955E-06  0.273E-04    2.65      51.2  T
   5    -70.8949584 -0.777831E-09  0.172E-04    2.65      81.3  T
     SCC iter.                  ...        0 min,  0.013 sec
     gradient                   ...        0 min,  0.010 sec
 * total energy  :   -69.6475257 Eh     change       -0.1197208E-04 Eh
   gradient norm :     0.0004018 Eh/α   predicted    -0.4314354E-05 ( -63.96%)
   displ. norm   :     0.1038802 α      lambda       -0.9584228E-05
   maximum displ.:     0.0783046 α      in ANC's #1, #6, #4, ...

........................................................................
.............................. CYCLE   57 ..............................
........................................................................

 iter      E             dE          RMSdq      gap      omega  full diag
   1    -70.8950324 -0.708950E+02  0.253E-02    2.65       0.0  T
   2    -70.8950326 -0.155016E-06  0.149E-02    2.65       1.0  T
   3    -70.8950318  0.754103E-06  0.354E-03    2.65       4.0  T
   4    -70.8950327 -0.873915E-06  0.273E-04    2.65      51.2  T
   5    -70.8950327 -0.648257E-09  0.174E-04    2.65      80.6  T
     SCC iter.                  ...        0 min,  0.013 sec
     gradient                   ...        0 min,  0.010 sec
 * total energy  :   -69.6475394 Eh     change       -0.1367324E-04 Eh
   gradient norm :     0.0004423 Eh/α   predicted    -0.4815935E-05 ( -64.78%)
   displ. norm   :     0.1405429 α      lambda       -0.1393226E-04
   maximum displ.:     0.1018238 α      in ANC's #1, #6, #4, ...

........................................................................
.............................. CYCLE   58 ..............................
........................................................................

 iter      E             dE          RMSdq      gap      omega  full diag
   1    -70.8949611 -0.708950E+02  0.363E-02    2.65       0.0  T
   2    -70.8949613 -0.282513E-06  0.213E-02    2.65       1.0  T
   3    -70.8949599  0.139784E-05  0.482E-03    2.65       2.9  T
   4    -70.8949616 -0.161832E-05  0.388E-04    2.65      36.1  T
   5    -70.8949616 -0.978176E-09  0.248E-04    2.65      56.6  T
   6    -70.8949616 -0.144993E-08  0.571E-05    2.65     245.4  T
     SCC iter.                  ...        0 min,  0.015 sec
     gradient                   ...        0 min,  0.025 sec
 * total energy  :   -69.6475588 Eh     change       -0.1937559E-04 Eh
   gradient norm :     0.0004239 Eh/α   predicted    -0.7028233E-05 ( -63.73%)
   displ. norm   :     0.2060740 α      lambda       -0.1912950E-04
   maximum displ.:     0.1459426 α      in ANC's #1, #6, #4, ...

........................................................................
.............................. CYCLE   59 ..............................
........................................................................

 iter      E             dE          RMSdq      gap      omega  full diag
   1    -70.8947519 -0.708948E+02  0.534E-02    2.65       0.0  T
   2    -70.8947525 -0.630180E-06  0.314E-02    2.65       1.0  T
   3    -70.8947494  0.313893E-05  0.723E-03    2.65       1.9  T
   4    -70.8947530 -0.363238E-05  0.565E-04    2.65      24.8  T
   5    -70.8947530 -0.232804E-08  0.359E-04    2.65      39.1  T
   6    -70.8947530 -0.305069E-08  0.905E-05    2.65     154.7  T
     SCC iter.                  ...        0 min,  0.039 sec
     gradient                   ...        0 min,  0.013 sec
 * total energy  :   -69.6475836 Eh     change       -0.2489055E-04 Eh
   gradient norm :     0.0004821 Eh/α   predicted    -0.9746184E-05 ( -60.84%)
   displ. norm   :     0.2251219 α      lambda       -0.1742800E-04
   maximum displ.:     0.1604550 α      in ANC's #1, #6, #4, ...

........................................................................
.............................. CYCLE   60 ..............................
........................................................................

 iter      E             dE          RMSdq      gap      omega  full diag
   1    -70.8946277 -0.708946E+02  0.566E-02    2.65       0.0  T
   2    -70.8946283 -0.645522E-06  0.333E-02    2.66       1.0  T
   3    -70.8946251  0.318915E-05  0.730E-03    2.65       1.9  T
   4    -70.8946288 -0.369495E-05  0.622E-04    2.66      22.5  T
   5    -70.8946288 -0.156096E-08  0.397E-04    2.66      35.2  T
   6    -70.8946288 -0.402922E-08  0.799E-05    2.66     175.3  T
     SCC iter.                  ...        0 min,  0.027 sec
     gradient                   ...        0 min,  0.014 sec
 * total energy  :   -69.6476050 Eh     change       -0.2138071E-04 Eh
   gradient norm :     0.0004471 Eh/α   predicted    -0.8911907E-05 ( -58.32%)
   displ. norm   :     0.1729486 α      lambda       -0.1092676E-04
   maximum displ.:     0.1269516 α      in ANC's #1, #6, #4, ...

........................................................................
.............................. CYCLE   61 ..............................
........................................................................

 iter      E             dE          RMSdq      gap      omega  full diag
   1    -70.8947269 -0.708947E+02  0.411E-02    2.66       0.0  T
   2    -70.8947274 -0.419780E-06  0.242E-02    2.66       1.0  T
   3    -70.8947253  0.208174E-05  0.591E-03    2.66       2.4  T
   4    -70.8947277 -0.241361E-05  0.443E-04    2.66      31.6  T
   5    -70.8947277 -0.122293E-08  0.284E-04    2.66      49.3  T
   6    -70.8947277 -0.205046E-08  0.686E-05    2.66     204.1  T
     SCC iter.                  ...        0 min,  0.094 sec
     gradient                   ...        0 min,  0.024 sec
 * total energy  :   -69.6476185 Eh     change       -0.1349077E-04 Eh
   gradient norm :     0.0004166 Eh/α   predicted    -0.5539625E-05 ( -58.94%)
   displ. norm   :     0.1092946 α      lambda       -0.6753812E-05
   maximum displ.:     0.0839264 α      in ANC's #1, #3, #6, ...

........................................................................
.............................. CYCLE   62 ..............................
........................................................................

 iter      E             dE          RMSdq      gap      omega  full diag
   1    -70.8949826 -0.708950E+02  0.229E-02    2.66       0.0  T
   2    -70.8949827 -0.114129E-06  0.135E-02    2.66       1.0  T
   3    -70.8949822  0.531233E-06  0.298E-03    2.66       4.7  T
   4    -70.8949828 -0.618364E-06  0.270E-04    2.66      51.9  T
   5    -70.8949828 -0.570708E-10  0.172E-04    2.66      81.3  T
     SCC iter.                  ...        0 min,  0.027 sec
     gradient                   ...        0 min,  0.018 sec
 * total energy  :   -69.6476276 Eh     change       -0.9038499E-05 Eh
[...]
          :  -> integral neglect         0.1000000E-07      :
          :  -> SCF convergence          0.1000000E-05 Eh   :
          :  -> wf. convergence          0.1000000E-03 e    :
          :  Broyden damping             0.4000000          :
          :  net charge                          1          :
          :  unpaired electrons                  0          :
          ...................................................

 iter      E             dE          RMSdq      gap      omega  full diag
   1    -70.8950071 -0.708950E+02  0.326E-05    2.65       0.0  T
   2    -70.8950071 -0.258638E-11  0.198E-05    2.65     706.6  T
   3    -70.8950071  0.245848E-11  0.119E-05    2.65    1179.7  T

   *** convergence criteria satisfied after 3 iterations ***

         #    Occupation            Energy/Eh            Energy/eV
      -------------------------------------------------------------
         1        2.0000           -0.8678393             -23.6151
       ...           ...                  ...                  ...
        59        2.0000           -0.5248054             -14.2807
        60        2.0000           -0.5237457             -14.2518
        61        2.0000           -0.5204039             -14.1609
        62        2.0000           -0.5115349             -13.9196
        63        2.0000           -0.5076532             -13.8139
        64        2.0000           -0.5036931             -13.7062
        65        2.0000           -0.4996070             -13.5950 (HOMO)
        66                         -0.4021628             -10.9434 (LUMO)
        67                         -0.3517864              -9.5726
        68                         -0.3441438              -9.3646
        69                         -0.3313387              -9.0162
        70                         -0.3304379              -8.9917
       ...                                ...                  ...
       129                          0.5661377              15.4054
      -------------------------------------------------------------
                  HL-Gap            0.0974442 Eh            2.6516 eV
             Fermi-level           -0.4508849 Eh          -12.2692 eV

 SCC (total)                   0 d,  0 h,  0 min,  0.034 sec
 SCC setup                      ...        0 min,  0.000 sec (  0.518%)
 Dispersion                     ...        0 min,  0.000 sec (  1.395%)
 classical contributions        ...        0 min,  0.000 sec (  0.326%)
 integral evaluation            ...        0 min,  0.005 sec ( 14.515%)
 iterations                     ...        0 min,  0.011 sec ( 31.242%)
 molecular gradient             ...        0 min,  0.017 sec ( 51.125%)
 printout                       ...        0 min,  0.000 sec (  0.812%)

         :::::::::::::::::::::::::::::::::::::::::::::::::::::
         ::                     SUMMARY                     ::
         :::::::::::::::::::::::::::::::::::::::::::::::::::::
         :: total energy             -69.647694298045 Eh    ::
         :: gradient norm              0.000215021909 Eh/a0 ::
         :: HOMO-LUMO gap              2.651591559047 eV    ::
         ::.................................................::
         :: SCC energy               -70.892722730840 Eh    ::
         :: -> isotropic ES            0.068998352298 Eh    ::
         :: -> anisotropic ES         -0.006724656331 Eh    ::
         :: -> anisotropic XC          0.044296571778 Eh    ::
         :: -> dispersion             -0.063279288204 Eh    ::
         :: repulsion energy           1.245028432795 Eh    ::
         :: add. restraining           0.000000000000 Eh    ::
         :: total charge               1.000000000000 e     ::
         :::::::::::::::::::::::::::::::::::::::::::::::::::::

           -------------------------------------------------
          |                Property Printout                |
           -------------------------------------------------

    * Orbital Energies and Occupations

         #    Occupation            Energy/Eh            Energy/eV
      -------------------------------------------------------------
         1        2.0000           -0.8678393             -23.6151
       ...           ...                  ...                  ...
        53        2.0000           -0.5695238             -15.4975
        54        2.0000           -0.5680343             -15.4570
        55        2.0000           -0.5570769             -15.1588
        56        2.0000           -0.5371441             -14.6164
        57        2.0000           -0.5310420             -14.4504
        58        2.0000           -0.5274279             -14.3520
        59        2.0000           -0.5248054             -14.2807
        60        2.0000           -0.5237457             -14.2518
        61        2.0000           -0.5204039             -14.1609
        62        2.0000           -0.5115349             -13.9196
        63        2.0000           -0.5076532             -13.8139
        64        2.0000           -0.5036931             -13.7062
        65        2.0000           -0.4996070             -13.5950 (HOMO)
        66                         -0.4021628             -10.9434 (LUMO)
        67                         -0.3517864              -9.5726
        68                         -0.3441438              -9.3646
        69                         -0.3313387              -9.0162
        70                         -0.3304379              -8.9917
        71                         -0.3240545              -8.8180
        72                         -0.3222273              -8.7683
        73                         -0.2275430              -6.1918
        74                         -0.2031312              -5.5275
        75                         -0.1951946              -5.3115
        76                         -0.1649215              -4.4877
       ...                                ...                  ...
       129                          0.5661377              15.4054
      -------------------------------------------------------------
                  HL-Gap            0.0974442 Eh            2.6516 eV
             Fermi-level           -0.4508849 Eh          -12.2692 eV

     #   Z          covCN         q      C6AA      α(0)
     1   6 C        3.760    -0.124    22.928     6.826
     2   6 C        2.970     0.036    27.182     8.552
     3   6 C        2.931    -0.031    28.775     8.797
     4   6 C        2.907    -0.036    28.902     8.815
     5   6 C        3.123     0.034    27.052     8.518
     6   6 C        3.115     0.041    26.932     8.501
     7   6 C        2.914    -0.045    29.116     8.848
     8   7 N        2.828     0.031    20.697     6.757
     9   6 C        3.743    -0.016    20.928     6.526
    10   6 C        3.808    -0.073    21.880     6.659
    11   6 C        2.971     0.005    27.905     8.665
    12   6 C        2.924    -0.039    28.970     8.827
    13   6 C        2.919    -0.027    28.669     8.780
    14   6 C        2.920    -0.027    28.684     8.783
    15   6 C        2.919    -0.029    28.722     8.789
    16   6 C        2.925    -0.041    29.023     8.835
    17   6 C        3.075     0.064    26.483     8.437
    18   7 N        2.827     0.032    20.678     6.754
    19   6 C        3.744    -0.016    20.934     6.527
    20   6 C        3.808    -0.073    21.889     6.660
    21   6 C        2.971     0.002    27.984     8.677
    22   6 C        2.924    -0.042    29.046     8.838
    23   6 C        2.919    -0.028    28.702     8.785
    24   6 C        2.920    -0.029    28.729     8.790
    25   6 C        2.918    -0.030    28.758     8.794
    26   6 C        2.924    -0.041    29.030     8.836
    27   1 H        0.925     0.062     2.176     2.307
    28   1 H        0.925     0.077     2.011     2.217
    29   1 H        0.925     0.075     2.036     2.231
    30   1 H        0.926     0.076     2.023     2.224
    31   1 H        0.926     0.067     2.122     2.278
    32   1 H        0.926     0.066     2.128     2.281
    33   1 H        0.924     0.085     1.925     2.170
    34   1 H        0.924     0.074     2.047     2.237
    35   1 H        0.924     0.072     2.061     2.245
    36   1 H        0.924     0.053     2.281     2.362
    37   1 H        0.926     0.038     2.474     2.460
    38   1 H        0.926     0.047     2.356     2.400
    39   1 H        0.926     0.047     2.360     2.402
    40   1 H        0.926     0.039     2.465     2.455
    41   1 H        0.926     0.024     2.680     2.560
    42   1 H        0.926     0.099     1.791     2.093
    43   1 H        0.924     0.078     2.002     2.213
    44   1 H        0.924     0.084     1.941     2.179
    45   1 H        0.924     0.075     2.031     2.228
    46   1 H        0.924     0.058     2.222     2.331
    47   1 H        0.926     0.038     2.470     2.458
    48   1 H        0.926     0.048     2.341     2.393
    49   1 H        0.926     0.048     2.342     2.393
    50   1 H        0.926     0.043     2.410     2.427
    51   1 H        0.925     0.029     2.604     2.523

 Mol. C6AA /au·bohr⁶  :      29072.438901
 Mol. C8AA /au·bohr⁸  :     706062.940073
 Mol. α(0) /au        :        270.642059


Wiberg/Mayer (AO) data.
largest (>0.10) Wiberg bond orders for each atom

 ---------------------------------------------------------------------------
     #   Z sym  total        # sym  WBO       # sym  WBO       # sym  WBO
 ---------------------------------------------------------------------------
     1   6 C    3.989 --     2 C    1.038    27 H    0.983    29 H    0.963
                            28 H    0.961
     2   6 C    3.985 --     7 C    1.463     3 C    1.332     1 C    1.038
     3   6 C    3.986 --     4 C    1.516     2 C    1.332    30 H    0.966
     4   6 C    3.986 --     3 C    1.516     5 C    1.326    31 H    0.963
                             7 C    0.111
     5   6 C    3.950 --     4 C    1.326     6 C    1.273    18 N    1.128
     6   6 C    3.953 --     7 C    1.338     5 C    1.273     8 N    1.127
     7   6 C    3.984 --     2 C    1.463     6 C    1.338    32 H    0.959
                             4 C    0.111
     8   7 N    3.678 --    17 C    1.361     6 C    1.127     9 C    0.974
                            18 N    0.101
     9   6 C    3.944 --     8 N    0.974    10 C    0.970    34 H    0.967
                            33 H    0.964
    10   6 C    3.984 --    11 C    1.009    36 H    0.970     9 C    0.970
                            35 H    0.964
    11   6 C    3.988 --    16 C    1.415    12 C    1.410    10 C    1.009
                            14 C    0.110
    12   6 C    3.991 --    13 C    1.447    11 C    1.410    37 H    0.969
                            15 C    0.112
    13   6 C    3.991 --    12 C    1.447    14 C    1.436    38 H    0.970
                            16 C    0.110
    14   6 C    3.990 --    15 C    1.441    13 C    1.436    39 H    0.970
                            11 C    0.110
    15   6 C    3.992 --    14 C    1.441    16 C    1.441    40 H    0.971
                            12 C    0.112
    16   6 C    3.992 --    15 C    1.441    11 C    1.415    41 H    0.965
                            13 C    0.110
    17   6 C    3.951 --    18 N    1.364     8 N    1.361    42 H    0.953
    18   7 N    3.680 --    17 C    1.364     5 C    1.128    19 C    0.974
                             8 N    0.101
    19   6 C    3.944 --    18 N    0.974    20 C    0.970    43 H    0.965
                            44 H    0.965
    20   6 C    3.985 --    21 C    1.011    46 H    0.974    19 C    0.970
                            45 H    0.961
    21   6 C    3.988 --    26 C    1.415    22 C    1.406    20 C    1.011
                            24 C    0.109
    22   6 C    3.991 --    23 C    1.451    21 C    1.406    47 H    0.969
                            25 C    0.112
    23   6 C    3.991 --    22 C    1.451    24 C    1.433    48 H    0.970
                            26 C    0.109
    24   6 C    3.991 --    25 C    1.443    23 C    1.433    49 H    0.970
                            21 C    0.109
    25   6 C    3.992 --    24 C    1.443    26 C    1.438    50 H    0.969
                            22 C    0.112
    26   6 C    3.991 --    25 C    1.438    21 C    1.415    51 H    0.965
                            23 C    0.109
    27   1 H    0.996 --     1 C    0.983
    28   1 H    0.992 --     1 C    0.961
    29   1 H    0.992 --     1 C    0.963
    30   1 H    0.994 --     3 C    0.966
    31   1 H    0.995 --     4 C    0.963
    32   1 H    0.995 --     7 C    0.959
    33   1 H    0.992 --     9 C    0.964
    34   1 H    0.993 --     9 C    0.967
    35   1 H    0.993 --    10 C    0.964
    36   1 H    0.997 --    10 C    0.970
    37   1 H    0.999 --    12 C    0.969
    38   1 H    0.997 --    13 C    0.970
    39   1 H    0.997 --    14 C    0.970
    40   1 H    0.998 --    15 C    0.971
    41   1 H    0.999 --    16 C    0.965
    42   1 H    0.989 --    17 C    0.953
    43   1 H    0.993 --    19 C    0.965
    44   1 H    0.992 --    19 C    0.965
    45   1 H    0.993 --    20 C    0.961
    46   1 H    0.996 --    20 C    0.974
    47   1 H    0.999 --    22 C    0.969
    48   1 H    0.997 --    23 C    0.970
    49   1 H    0.997 --    24 C    0.970
    50   1 H    0.998 --    25 C    0.969
    51   1 H    0.999 --    26 C    0.965
 ---------------------------------------------------------------------------

Topologies differ in total number of bonds
Writing topology from bond orders to xtbtopo.mol

molecular dipole:
                 x           y           z       tot (Debye)
 q only:        0.253       6.546       5.288
   full:        0.169       6.795       5.428      22.111
molecular quadrupole (traceless):
                xx          xy          yy          xz          yz          zz
 q only:      -53.290      -1.508      39.395      -5.547      57.509      13.895
  q+dip:      -59.843      -6.441      44.726      -8.118      60.322      15.117
   full:      -55.667      -3.377      41.990      -6.252      60.581      13.677

           -------------------------------------------------
          |                Geometry Summary                 |
           -------------------------------------------------

      molecular mass/u    :      341.4695868
   center of mass at/Å    :        1.1342976       3.7485510       2.6629791
  moments of inertia/u·Å² :        0.1515799E+04   0.2792171E+04   0.3574091E+04
rotational constants/cm⁻¹ :        0.1112128E-01   0.6037463E-02   0.4716621E-02

 * 51 selected distances

     #   Z          #   Z                                           value/Å
     2   6 C        3   6 C                                       1.4068709
     3   6 C        4   6 C                                       1.3757065
     4   6 C        5   6 C                                       1.3910435
     5   6 C        6   6 C                                       1.4077482
     2   6 C        7   6 C                                       1.3828080
     6   6 C        7   6 C                                       1.3890141
     6   6 C        8   7 N                                       1.3798496
     8   7 N        9   6 C                                       1.4430654
     9   6 C       10   6 C                                       1.5396755 (max)
    11   6 C       12   6 C                                       1.3899679
    12   6 C       13   6 C                                       1.3837134
    13   6 C       14   6 C                                       1.3851422
    14   6 C       15   6 C                                       1.3839690
    11   6 C       16   6 C                                       1.3882578
    15   6 C       16   6 C                                       1.3838277
     8   7 N       17   6 C                                       1.3298146
     5   6 C       18   7 N                                       1.3785556
    17   6 C       18   7 N                                       1.3291525
    18   7 N       19   6 C                                       1.4429504
    19   6 C       20   6 C                                       1.5389999
    21   6 C       22   6 C                                       1.3909928
    22   6 C       23   6 C                                       1.3834452
    23   6 C       24   6 C                                       1.3859580
    24   6 C       25   6 C                                       1.3845105
    21   6 C       26   6 C                                       1.3884947
    25   6 C       26   6 C                                       1.3852368
     1   6 C       27   1 H                                       1.0857414
     1   6 C       28   1 H                                       1.0888946
     1   6 C       29   1 H                                       1.0883489
     3   6 C       30   1 H                                       1.0790138
     4   6 C       31   1 H                                       1.0776886
     7   6 C       32   1 H                                       1.0771920
     9   6 C       33   1 H                                       1.0917116
     9   6 C       34   1 H                                       1.0919474
    10   6 C       35   1 H                                       1.0903523
    10   6 C       36   1 H                                       1.0921063
    12   6 C       37   1 H                                       1.0807547
    13   6 C       38   1 H                                       1.0792994
    14   6 C       39   1 H                                       1.0788618
    15   6 C       40   1 H                                       1.0794665
    16   6 C       41   1 H                                       1.0801430
    17   6 C       42   1 H                                       1.0736727 (min)
    19   6 C       43   1 H                                       1.0920121
    19   6 C       44   1 H                                       1.0906850
    20   6 C       45   1 H                                       1.0903187
    20   6 C       46   1 H                                       1.0910581
    22   6 C       47   1 H                                       1.0806579
    23   6 C       48   1 H                                       1.0792052
    24   6 C       49   1 H                                       1.0788652
    25   6 C       50   1 H                                       1.0800230
    26   6 C       51   1 H                                       1.0814965

 * 3 distinct bonds (by element types)

   Z      Z             #   av. dist./Å        max./Å        min./Å
   1 H    6 C          25     1.0839807     1.0921063     1.0736727
   6 C    6 C          20     1.4032691     1.5396755     1.3757065
   6 C    7 N           6     1.3838980     1.4430654     1.3291525


optimized geometry written to: xtbopt.xyz


           -------------------------------------------------
          | TOTAL ENERGY              -69.647694298045 Eh   |
          | GRADIENT NORM               0.000215021909 Eh/α |
          | HOMO-LUMO GAP               2.651591559047 eV   |
           -------------------------------------------------

------------------------------------------------------------------------
 * finished run on 2024/12/20 at 07:18:30.303     
------------------------------------------------------------------------
 total:
 * wall-time:     0 d,  0 h,  0 min,  2.648 sec
 *  cpu-time:     0 d,  0 h,  0 min, 19.890 sec
 * ratio c/w:     7.511 speedup
 SCF:
 * wall-time:     0 d,  0 h,  0 min,  0.042 sec
 *  cpu-time:     0 d,  0 h,  0 min,  0.338 sec
 * ratio c/w:     7.960 speedup
 ANC optimizer:
 * wall-time:     0 d,  0 h,  0 min,  2.586 sec
 *  cpu-time:     0 d,  0 h,  0 min, 19.408 sec
 * ratio c/w:     7.505 speedup

