      -----------------------------------------------------------      
     |                   =====================                   |     
     |                           x T B                           |     
     |                   =====================                   |     
     |                         S. Grimme                         |     
     |          Mulliken Center for Theoretical Chemistry        |     
     |                    University of Bonn                     |     
      -----------------------------------------------------------      

   * xtb version 6.7.1 (edcfbbe) compiled by 'conda@3ef47c1a292c' on 2024-11-25

   xtb is free software: you can redistribute it and/or modify it under
   the terms of the GNU Lesser General Public License as published by
   the Free Software Foundation, either version 3 of the License, or
   (at your option) any later version.
   
   xtb is distributed in the hope that it will be useful,
   but WITHOUT ANY WARRANTY; without even the implied warranty of
   MERCHANTABILITY or FITNESS FOR A PARTICULAR PURPOSE.  See the
   GNU Lesser General Public License for more details.
   
   Cite this work as:
   * C. Bannwarth, E. Caldeweyher, S. Ehlert, A. Hansen, P. Pracht,
     J. Seibert, S. Spicher, S. Grimme, WIREs Comput. Mol. Sci., 2020, 11,
     e01493. DOI: 10.1002/wcms.1493
   
   for GFN2-xTB:
   * C. Bannwarth, S. Ehlert and S. Grimme., J. Chem. Theory Comput., 2019,
     15, 1652-1671. DOI: 10.1021/acs.jctc.8b01176
   for GFN1-xTB:
   * S. Grimme, C. Bannwarth, P. Shushkov, J. Chem. Theory Comput., 2017,
     13, 1989-2009. DOI: 10.1021/acs.jctc.7b00118
   for GFN0-xTB:
   * P. Pracht, E. Caldeweyher, S. Ehlert, S. Grimme, ChemRxiv, 2019, preprint.
     DOI: 10.26434/chemrxiv.8326202.v1
   for GFN-FF:
   * S. Spicher and S. Grimme, Angew. Chem. Int. Ed., 2020, 59, 15665-15673.
     DOI: 10.1002/anie.202004239
   
   for ALPB and GBSA implicit solvation:
   * S. Ehlert, M. Stahn, S. Spicher, S. Grimme, J. Chem. Theory Comput.,
     2021, 17, 4250-4261. DOI: 10.1021/acs.jctc.1c00471
   
   for ddCOSMO and CPCM-X implicit solvation:
   * M. Stahn, S. Ehlert, S. Grimme, J. Phys. Chem. A,
     2023, XX, XXXX-XXXX. DOI: 10.1021/acs.jpca.3c04382
   
   for DFT-D4:
   * E. Caldeweyher, C. Bannwarth and S. Grimme, J. Chem. Phys., 2017,
     147, 034112. DOI: 10.1063/1.4993215
   * E. Caldeweyher, S. Ehlert, A. Hansen, H. Neugebauer, S. Spicher,
     C. Bannwarth and S. Grimme, J. Chem. Phys., 2019, 150, 154122.
     DOI: 10.1063/1.5090222
   * E. Caldeweyher, J.-M. Mewes, S. Ehlert and S. Grimme, Phys. Chem. Chem. Phys.
     2020, 22, 8499-8512. DOI: 10.1039/D0CP00502A
   
   for sTDA-xTB:
   * S. Grimme and C. Bannwarth, J. Chem. Phys., 2016, 145, 054103.
     DOI: 10.1063/1.4959605
   
   in the mass-spec context:
   * V. Asgeirsson, C. Bauer and S. Grimme, Chem. Sci., 2017, 8, 4879.
     DOI: 10.1039/c7sc00601b
   * J. Koopman and S. Grimme, ACS Omega 2019, 4, 12, 15120-15133.
     DOI: 10.1021/acsomega.9b02011
   
   for metadynamics refer to:
   * S. Grimme, J. Chem. Theory Comput., 2019, 155, 2847-2862
     DOI: 10.1021/acs.jctc.9b00143
   
   for SPH calculations refer to:
   * S. Spicher and S. Grimme, J. Chem. Theory Comput., 2021, 17, 1701-1714
     DOI: 10.1021/acs.jctc.0c01306
   
   for ONIOM refer to:
   * C. Plett, A. Katbashev, S. Ehlert, S. Grimme, M. Bursch,
     Phys. Chem. Chem. Phys., 2023, 25, 17860-17868. DOI: 10.1039/D3CP02178E
   
   for DIPRO refer to:
   * J. Kohn, N. Gildemeister, S. Grimme, D. Fazzi, A. Hansen,
     J. Chem. Phys., 2023, just accepted.
   
   for PTB refer to:
   * S. Grimme, M. Mueller, A. Hansen, J. Chem. Phys., 2023, 158, 124111.
     DOI: 10.1063/5.0137838
   
   with help from (in alphabetical order)
   P. Atkinson, C. Bannwarth, F. Bohle, G. Brandenburg, E. Caldeweyher
   M. Checinski, S. Dohm, S. Ehlert, S. Ehrlich, I. Gerasimov, C. Hölzer
   A. Katbashev, J. Kohn, J. Koopman, C. Lavigne, S. Lehtola, F. März, M. Müller,
   F. Musil, H. Neugebauer, J. Pisarek, C. Plett, P. Pracht, F. Pultar,
   J. Seibert, P. Shushkov, S. Spicher, M. Stahn, M. Steiner, T. Strunk,
   J. Stückrath, T. Rose, and J. Unsleber
   
 * started run on 2024/12/20 at 07:18:20.184     
   ID    Z sym.   atoms
    1    8 O      1, 3
    2    6 C      2, 4-6, 8-12
    3    7 N      7
    4    1 H      13-24

           -------------------------------------------------
          |                Calculation Setup                |
           -------------------------------------------------

          program call               : xtb C1282.xyz --opt --namespace C1282 --charge +1
          calculation namespace      : C1282
          coordinate file            : C1282.xyz
          omp threads                :                     8


           -------------------------------------------------
          |                 G F N 2 - x T B                 |
           -------------------------------------------------

        Reference                      10.1021/acs.jctc.8b01176
      * Hamiltonian:
        H0-scaling (s, p, d)           1.850000    2.230000    2.230000
        zeta-weighting                 0.500000
      * Dispersion:
        s8                             2.700000
        a1                             0.520000
        a2                             5.000000
        s9                             5.000000
      * Repulsion:
        kExp                           1.500000    1.000000
        rExp                           1.000000
      * Coulomb:
        alpha                          2.000000
        third order                    shell-resolved
        anisotropic                    true
        a3                             3.000000
        a5                             4.000000
        cn-shift                       1.200000
        cn-exp                         4.000000
        max-rad                        5.000000


          ...................................................
          :                      SETUP                      :
          :.................................................:
          :  # basis functions                  60          :
          :  # atomic orbitals                  60          :
          :  # shells                           36          :
          :  # electrons                        64          :
          :  max. iterations                   250          :
          :  Hamiltonian                  GFN2-xTB          :
          :  restarted?                      false          :
          :  GBSA solvation                  false          :
          :  PC potential                    false          :
          :  electronic temp.          300.0000000     K    :
          :  accuracy                    1.0000000          :
          :  -> integral cutoff          0.2500000E+02      :
          :  -> integral neglect         0.1000000E-07      :
          :  -> SCF convergence          0.1000000E-05 Eh   :
          :  -> wf. convergence          0.1000000E-03 e    :
          :  Broyden damping             0.4000000          :
          :  net charge                          1          :
          :  unpaired electrons                  0          :
          ...................................................

 iter      E             dE          RMSdq      gap      omega  full diag
   1    -36.3981518 -0.363982E+02  0.476E+00    4.46       0.0  T
   2    -36.5000058 -0.101854E+00  0.304E+00    2.47       1.0  T
   3    -36.5063229 -0.631706E-02  0.158E+00    2.17       1.0  T
   4    -36.5112425 -0.491955E-02  0.487E-01    1.83       1.0  T
   5    -36.5163926 -0.515017E-02  0.114E-01    1.93       1.0  T
   6    -36.5165393 -0.146626E-03  0.483E-02    1.99       1.0  T
   7    -36.5165485 -0.925330E-05  0.242E-02    2.00       1.0  T
   8    -36.5165500 -0.145707E-05  0.552E-03    2.00       3.7  T
   9    -36.5165502 -0.192128E-06  0.275E-03    2.00       7.4  T
  10    -36.5165502 -0.370876E-07  0.121E-03    2.00      16.9  T
  11    -36.5165502 -0.773471E-08  0.394E-04    2.00      51.8  T
  12    -36.5165502 -0.531315E-09  0.176E-04    2.00     116.1  T

   *** convergence criteria satisfied after 12 iterations ***

         #    Occupation            Energy/Eh            Energy/eV
      -------------------------------------------------------------
         1        2.0000           -0.8810397             -23.9743
       ...           ...                  ...                  ...
        26        2.0000           -0.6275763             -17.0772
        27        2.0000           -0.6197195             -16.8634
        28        2.0000           -0.6122186             -16.6593
        29        2.0000           -0.6022399             -16.3878
        30        2.0000           -0.5959942             -16.2178
        31        2.0000           -0.5907182             -16.0743
        32        2.0000           -0.5412690             -14.7287 (HOMO)
        33                         -0.4676825             -12.7263 (LUMO)
        34                         -0.4364846             -11.8773
        35                         -0.3629532              -9.8765
        36                         -0.3169056              -8.6234
        37                         -0.2122158              -5.7747
       ...                                ...                  ...
        60                          0.4741178              12.9014
      -------------------------------------------------------------
                  HL-Gap            0.0735864 Eh            2.0024 eV
             Fermi-level           -0.5044758 Eh          -13.7275 eV

 SCC (total)                   0 d,  0 h,  0 min,  0.013 sec
 SCC setup                      ...        0 min,  0.000 sec (  0.988%)
 Dispersion                     ...        0 min,  0.000 sec (  1.420%)
 classical contributions        ...        0 min,  0.000 sec (  0.385%)
 integral evaluation            ...        0 min,  0.001 sec (  6.814%)
 iterations                     ...        0 min,  0.010 sec ( 73.754%)
 molecular gradient             ...        0 min,  0.002 sec ( 15.760%)
 printout                       ...        0 min,  0.000 sec (  0.757%)

         :::::::::::::::::::::::::::::::::::::::::::::::::::::
         ::                     SUMMARY                     ::
         :::::::::::::::::::::::::::::::::::::::::::::::::::::
         :: total energy             -36.041342197309 Eh    ::
         :: gradient norm              0.060907584826 Eh/a0 ::
         :: HOMO-LUMO gap              2.002388817346 eV    ::
         ::.................................................::
         :: SCC energy               -36.516399492593 Eh    ::
         :: -> isotropic ES            0.134148016533 Eh    ::
         :: -> anisotropic ES         -0.015776001736 Eh    ::
         :: -> anisotropic XC          0.018743634362 Eh    ::
         :: -> dispersion             -0.018885279945 Eh    ::
         :: repulsion energy           0.475057295284 Eh    ::
         :: add. restraining           0.000000000000 Eh    ::
         :: total charge               1.000000000000 e     ::
         :::::::::::::::::::::::::::::::::::::::::::::::::::::

      ----------------------------------------------------------- 
     |                   =====================                   |
     |                        A N C O P T                        |
     |                   =====================                   |
     |               Approximate Normal Coordinate               |
     |                Rational Function Optimizer                |
      ----------------------------------------------------------- 
      ----------------------------------------------------------- 
     |                   =====================                   |
     |                        A N C O P T                        |
     |                   =====================                   |
     |               Approximate Normal Coordinate               |
     |                Rational Function Optimizer                |
      ----------------------------------------------------------- 

          ...................................................
          :                      SETUP                      :
          :.................................................:
          :   optimization level            normal          :
          :   max. optcycles                   200          :
          :   ANC micro-cycles                  20          :
          :   degrees of freedom                66          :
          :.................................................:
          :   RF solver                   davidson          :
          :   write xtbopt.log                true          :
          :   linear?                        false          :
          :   energy convergence         0.5000000E-05 Eh   :
          :   grad. convergence          0.1000000E-02 Eh/α :
          :   maxmium RF displ.          1.0000000          :
          :   Hlow (freq-cutoff)         0.1000000E-01      :
          :   Hmax (freq-cutoff)         5.0000000          :
          :   S6 in model hess.         20.0000000          :
          ...................................................

generating ANC from exact Hessian ...
Using Lindh-Hessian (1995)
 Shifting diagonal of input Hessian by    9.1847263018965935E-003
 Lowest  eigenvalues of input Hessian
    0.000000    0.000000    0.000000    0.000000    0.000000    0.000000
    0.010000    0.010861    0.011062    0.013730    0.015551    0.019174
    0.024732    0.024894    0.028218    0.030314    0.033820    0.037152
 Highest eigenvalues
    1.639519    1.707248    1.914456    2.072679    2.088613    2.292792


........................................................................
.............................. CYCLE    1 ..............................
........................................................................

 iter      E             dE          RMSdq      gap      omega  full diag
   1    -36.5165502 -0.365166E+02  0.751E-05    2.00       0.0  T
   2    -36.5165502 -0.448068E-10  0.498E-05    2.00     409.7  T
   3    -36.5165502 -0.403091E-10  0.267E-05    2.00     765.2  T
     SCC iter.                  ...        0 min,  0.002 sec
     gradient                   ...        0 min,  0.002 sec
 * total energy  :   -36.0413422 Eh     change       -0.2580194E-09 Eh
   gradient norm :     0.0609066 Eh/α   predicted     0.0000000E+00 (-100.00%)
   displ. norm   :     0.2006751 α      lambda       -0.5812529E-02
   maximum displ.:     0.0739649 α      in ANC's #2, #17, #22, ...

........................................................................
.............................. CYCLE    2 ..............................
........................................................................

 iter      E             dE          RMSdq      gap      omega  full diag
   1    -36.5404994 -0.365405E+02  0.165E-01    2.02       0.0  T
   2    -36.5406313 -0.131817E-03  0.968E-02    2.06       1.0  T
   3    -36.5406325 -0.122751E-05  0.443E-02    2.06       1.0  T
   4    -36.5406314  0.103726E-05  0.159E-02    2.06       1.3  T
   5    -36.5406369 -0.542112E-05  0.326E-03    2.06       6.3  T
   6    -36.5406369 -0.391787E-07  0.159E-03    2.06      12.9  T
   7    -36.5406369 -0.373100E-08  0.563E-04    2.06      36.3  T
   8    -36.5406369 -0.224756E-08  0.249E-04    2.06      81.8  T
     SCC iter.                  ...        0 min,  0.005 sec
     gradient                   ...        0 min,  0.002 sec
 * total energy  :   -36.0451923 Eh     change       -0.3850116E-02 Eh
   gradient norm :     0.0204072 Eh/α   predicted    -0.3024270E-02 ( -21.45%)
   displ. norm   :     0.1959512 α      lambda       -0.1653002E-02
   maximum displ.:     0.1202932 α      in ANC's #2, #30, #4, ...

........................................................................
.............................. CYCLE    3 ..............................
........................................................................

 iter      E             dE          RMSdq      gap      omega  full diag
   1    -36.5511141 -0.365511E+02  0.107E-01    2.07       0.0  T
   2    -36.5511709 -0.568098E-04  0.627E-02    2.10       1.0  T
   3    -36.5511717 -0.876603E-06  0.290E-02    2.10       1.0  T
   4    -36.5511714  0.325120E-06  0.103E-02    2.10       2.0  T
   5    -36.5511736 -0.216028E-05  0.240E-03    2.10       8.5  T
   6    -36.5511736 -0.207410E-07  0.115E-03    2.10      17.7  T
   7    -36.5511736 -0.283885E-08  0.424E-04    2.10      48.2  T
   8    -36.5511736 -0.113960E-08  0.180E-04    2.10     113.2  T
     SCC iter.                  ...        0 min,  0.005 sec
     gradient                   ...        0 min,  0.002 sec
 * total energy  :   -36.0461438 Eh     change       -0.9514481E-03 Eh
   gradient norm :     0.0087412 Eh/α   predicted    -0.8587490E-03 (  -9.74%)
   displ. norm   :     0.1456305 α      lambda       -0.3733562E-03
   maximum displ.:     0.1170921 α      in ANC's #2, #6, #4, ...

........................................................................
.............................. CYCLE    4 ..............................
........................................................................

 iter      E             dE          RMSdq      gap      omega  full diag
   1    -36.5510700 -0.365511E+02  0.560E-02    2.10       0.0  T
   2    -36.5510733 -0.331464E-05  0.327E-02    2.11       1.0  T
   3    -36.5510732  0.773511E-07  0.852E-03    2.11       2.4  T
   4    -36.5510736 -0.377043E-06  0.225E-03    2.11       9.1  T
   5    -36.5510737 -0.539828E-07  0.110E-03    2.11      18.5  T
   6    -36.5510737 -0.162473E-08  0.497E-04    2.11      41.1  T
   7    -36.5510737 -0.265429E-08  0.136E-04    2.11     150.2  T
     SCC iter.                  ...        0 min,  0.004 sec
     gradient                   ...        0 min,  0.002 sec
 * total energy  :   -36.0463891 Eh     change       -0.2453190E-03 Eh
   gradient norm :     0.0053051 Eh/α   predicted    -0.1906787E-03 ( -22.27%)
   displ. norm   :     0.1416845 α      lambda       -0.1834511E-03
   maximum displ.:     0.1234152 α      in ANC's #2, #4, #3, ...

........................................................................
.............................. CYCLE    5 ..............................
........................................................................

 iter      E             dE          RMSdq      gap      omega  full diag
   1    -36.5495984 -0.365496E+02  0.497E-02    2.10       0.0  T
   2    -36.5495992 -0.764738E-06  0.292E-02    2.11       1.0  T
   3    -36.5495989  0.294914E-06  0.463E-03    2.11       4.4  T
   4    -36.5495994 -0.451845E-06  0.180E-03    2.11      11.3  T
   5    -36.5495994 -0.416796E-07  0.774E-04    2.11      26.4  T
   6    -36.5495994 -0.120514E-08  0.264E-04    2.11      77.5  T
     SCC iter.                  ...        0 min,  0.004 sec
     gradient                   ...        0 min,  0.002 sec
 * total energy  :   -36.0465175 Eh     change       -0.1284175E-03 Eh
   gradient norm :     0.0029608 Eh/α   predicted    -0.9358410E-04 ( -27.13%)
   displ. norm   :     0.0995327 α      lambda       -0.7897958E-04
   maximum displ.:     0.0888873 α      in ANC's #2, #3, #1, ...

........................................................................
.............................. CYCLE    6 ..............................
........................................................................

 iter      E             dE          RMSdq      gap      omega  full diag
   1    -36.5490259 -0.365490E+02  0.395E-02    2.11       0.0  T
   2    -36.5490264 -0.459669E-06  0.233E-02    2.11       1.0  T
   3    -36.5490262  0.177034E-06  0.335E-03    2.11       6.1  T
   4    -36.5490264 -0.239152E-06  0.119E-03    2.11      17.1  T
   5    -36.5490265 -0.256382E-07  0.449E-04    2.11      45.5  T
   6    -36.5490265 -0.320320E-09  0.178E-04    2.11     114.9  T
     SCC iter.                  ...        0 min,  0.004 sec
     gradient                   ...        0 min,  0.002 sec
 * total energy  :   -36.0465824 Eh     change       -0.6492688E-04 Eh
   gradient norm :     0.0024091 Eh/α   predicted    -0.3988159E-04 ( -38.57%)
   displ. norm   :     0.0987471 α      lambda       -0.6803089E-04
   maximum displ.:     0.0831829 α      in ANC's #2, #1, #5, ...

........................................................................
.............................. CYCLE    7 ..............................
........................................................................

 iter      E             dE          RMSdq      gap      omega  full diag
   1    -36.5491205 -0.365491E+02  0.421E-02    2.11       0.0  T
   2    -36.5491208 -0.307146E-06  0.247E-02    2.11       1.0  T
   3    -36.5491207  0.414106E-07  0.231E-03    2.11       8.8  T
   4    -36.5491208 -0.931667E-07  0.799E-04    2.11      25.6  T
   5    -36.5491208 -0.816502E-08  0.375E-04    2.11      54.4  T
     SCC iter.                  ...        0 min,  0.003 sec
     gradient                   ...        0 min,  0.003 sec
 * total energy  :   -36.0466426 Eh     change       -0.6015483E-04 Eh
   gradient norm :     0.0025044 Eh/α   predicted    -0.3434799E-04 ( -42.90%)
   displ. norm   :     0.1327394 α      lambda       -0.8217872E-04
   maximum displ.:     0.1049500 α      in ANC's #2, #1, #5, ...

........................................................................
.............................. CYCLE    8 ..............................
........................................................................

 iter      E             dE          RMSdq      gap      omega  full diag
   1    -36.5494374 -0.365494E+02  0.570E-02    2.12       0.0  T
   2    -36.5494377 -0.283889E-06  0.334E-02    2.12       1.0  T
   3    -36.5494377 -0.475097E-07  0.178E-03    2.12      11.4  T
   4    -36.5494378 -0.371592E-07  0.886E-04    2.12      23.0  T
   5    -36.5494378 -0.449518E-08  0.430E-04    2.12      47.5  T
     SCC iter.                  ...        0 min,  0.003 sec
     gradient                   ...        0 min,  0.002 sec
 * total energy  :   -36.0467165 Eh     change       -0.7392140E-04 Eh
   gradient norm :     0.0026866 Eh/α   predicted    -0.4181521E-04 ( -43.43%)
   displ. norm   :     0.1860375 α      lambda       -0.1030174E-03
   maximum displ.:     0.1418823 α      in ANC's #2, #1, #4, ...

........................................................................
.............................. CYCLE    9 ..............................
........................................................................

 iter      E             dE          RMSdq      gap      omega  full diag
   1    -36.5496445 -0.365496E+02  0.793E-02    2.13       0.0  T
   2    -36.5496449 -0.445007E-06  0.464E-02    2.13       1.0  T
   3    -36.5496451 -0.148128E-06  0.197E-03    2.13      10.3  T
   4    -36.5496451 -0.188134E-07  0.110E-03    2.13      18.5  T
   5    -36.5496451 -0.372734E-08  0.423E-04    2.13      48.3  T
   6    -36.5496451 -0.137008E-08  0.115E-04    2.13     177.4  T
     SCC iter.                  ...        0 min,  0.004 sec
     gradient                   ...        0 min,  0.002 sec
 * total energy  :   -36.0468092 Eh     change       -0.9274648E-04 Eh
   gradient norm :     0.0026631 Eh/α   predicted    -0.5329328E-04 ( -42.54%)
   displ. norm   :     0.2401707 α      lambda       -0.1186244E-03
   maximum displ.:     0.1799463 α      in ANC's #2, #1, #4, ...

........................................................................
.............................. CYCLE   10 ..............................
........................................................................

 iter      E             dE          RMSdq      gap      omega  full diag
   1    -36.5495590 -0.365496E+02  0.102E-01    2.13       0.0  T
   2    -36.5495598 -0.776362E-06  0.598E-02    2.14       1.0  T
   3    -36.5495600 -0.176143E-06  0.321E-03    2.14       6.4  T
   4    -36.5495601 -0.114982E-06  0.156E-03    2.14      13.1  T
   5    -36.5495601 -0.609337E-08  0.630E-04    2.14      32.4  T
   6    -36.5495601 -0.355548E-08  0.192E-04    2.14     106.5  T
     SCC iter.                  ...        0 min,  0.004 sec
     gradient                   ...        0 min,  0.002 sec
 * total energy  :   -36.0469146 Eh     change       -0.1053869E-03 Eh
   gradient norm :     0.0023941 Eh/α   predicted    -0.6273797E-04 ( -40.47%)
   displ. norm   :     0.2875978 α      lambda       -0.1241113E-03
   maximum displ.:     0.2143378 α      in ANC's #2, #1, #4, ...

........................................................................
.............................. CYCLE   11 ..............................
........................................................................

 iter      E             dE          RMSdq      gap      omega  full diag
   1    -36.5492178 -0.365492E+02  0.124E-01    2.14       0.0  T
   2    -36.5492189 -0.117487E-05  0.725E-02    2.15       1.0  T
   3    -36.5492190 -0.176626E-07  0.492E-03    2.15       4.1  T
   4    -36.5492194 -0.425427E-06  0.204E-03    2.15      10.0  T
   5    -36.5492194 -0.164081E-07  0.879E-04    2.15      23.2  T
   6    -36.5492194 -0.625921E-08  0.234E-04    2.15      87.1  T
     SCC iter.                  ...        0 min,  0.004 sec
     gradient                   ...        0 min,  0.002 sec
 * total energy  :   -36.0470196 Eh     change       -0.1049711E-03 Eh
   gradient norm :     0.0022503 Eh/α   predicted    -0.6719188E-04 ( -35.99%)
   displ. norm   :     0.3357276 α      lambda       -0.1174680E-03
   maximum displ.:     0.2512627 α      in ANC's #2, #1, #4, ...

........................................................................
.............................. CYCLE   12 ..............................
........................................................................

 iter      E             dE          RMSdq      gap      omega  full diag
   1    -36.5486926 -0.365487E+02  0.148E-01    2.15       0.0  T
   2    -36.5486942 -0.162389E-05  0.868E-02    2.16       1.0  T
   3    -36.5486939  0.291413E-06  0.664E-03    2.16       3.1  T
   4    -36.5486949 -0.940549E-06  0.246E-03    2.16       8.3  T
   5    -36.5486949 -0.245769E-07  0.961E-04    2.16      21.2  T
   6    -36.5486949 -0.551363E-08  0.258E-04    2.16      79.3  T
     SCC iter.                  ...        0 min,  0.004 sec
     gradient                   ...        0 min,  0.002 sec
 * total energy  :   -36.0471067 Eh     change       -0.8709917E-04 Eh
   gradient norm :     0.0028641 Eh/α   predicted    -0.6535768E-04 ( -24.96%)
   displ. norm   :     0.2800306 α      lambda       -0.7335897E-04
   maximum displ.:     0.2106116 α      in ANC's #2, #1, #4, ...

........................................................................
.............................. CYCLE   13 ..............................
........................................................................

 iter      E             dE          RMSdq      gap      omega  full diag
   1    -36.5488643 -0.365489E+02  0.129E-01    2.16       0.0  T
   2    -36.5488654 -0.116227E-05  0.754E-02    2.17       1.0  T
   3    -36.5488651  0.297077E-06  0.593E-03    2.17       3.4  T
   4    -36.5488659 -0.770261E-06  0.209E-03    2.17       9.8  T
   5    -36.5488659 -0.166162E-07  0.819E-04    2.17      24.9  T
   6    -36.5488659 -0.357225E-08  0.179E-04    2.17     114.1  T
     SCC iter.                  ...        0 min,  0.004 sec
     gradient                   ...        0 min,  0.002 sec
 * total energy  :   -36.0471547 Eh     change       -0.4804355E-04 Eh
   gradient norm :     0.0030327 Eh/α   predicted    -0.3955658E-04 ( -17.67%)
   displ. norm   :     0.1128808 α      lambda       -0.3774833E-04
   maximum displ.:     0.0807635 α      in ANC's #2, #1, #4, ...

........................................................................
.............................. CYCLE   14 ..............................
........................................................................

 iter      E             dE          RMSdq      gap      omega  full diag
   1    -36.5503805 -0.365504E+02  0.575E-02    2.18       0.0  T
   2    -36.5503809 -0.426158E-06  0.336E-02    2.18       1.0  T
   3    -36.5503808  0.102217E-06  0.340E-03    2.18       6.0  T
   4    -36.5503810 -0.196362E-06  0.100E-03    2.18      20.4  T
   5    -36.5503810 -0.995968E-08  0.536E-04    2.18      38.1  T
     SCC iter.                  ...        0 min,  0.003 sec
     gradient                   ...        0 min,  0.003 sec
 * total energy  :   -36.0471797 Eh     change       -0.2490985E-04 Eh
   gradient norm :     0.0019604 Eh/α   predicted    -0.1911595E-04 ( -23.26%)
   displ. norm   :     0.2073866 α      lambda       -0.1996568E-04
   maximum displ.:     0.1457040 α      in ANC's #2, #1, #4, ...

........................................................................
.............................. CYCLE   15 ..............................
........................................................................

 iter      E             dE          RMSdq      gap      omega  full diag
   1    -36.5499645 -0.365500E+02  0.101E-01    2.18       0.0  T
   2    -36.5499653 -0.796598E-06  0.590E-02    2.18       1.0  T
   3    -36.5499651  0.194338E-06  0.453E-03    2.18       4.5  T
   4    -36.5499655 -0.454576E-06  0.168E-03    2.18      12.2  T
   5    -36.5499655 -0.234919E-07  0.802E-04    2.18      25.5  T
   6    -36.5499655 -0.237667E-08  0.223E-04    2.18      91.7  T
     SCC iter.                  ...        0 min,  0.004 sec
     gradient                   ...        0 min,  0.002 sec
 * total energy  :   -36.0471953 Eh     change       -0.1560693E-04 Eh
   gradient norm :     0.0013276 Eh/α   predicted    -0.1017815E-04 ( -34.78%)
   displ. norm   :     0.0609140 α      lambda       -0.1028140E-04
   maximum displ.:     0.0415873 α      in ANC's #3, #2, #4, ...

........................................................................
.............................. CYCLE   16 ..............................
........................................................................

 iter      E             dE          RMSdq      gap      omega  full diag
   1    -36.5509597 -0.365510E+02  0.249E-02    2.18       0.0  T
   2    -36.5509598 -0.104693E-06  0.146E-02    2.18       1.4  T
   3    -36.5509597  0.530267E-07  0.189E-03    2.18      10.8  T
   4    -36.5509598 -0.798026E-07  0.545E-04    2.18      37.4  T
   5    -36.5509598 -0.332733E-08  0.282E-04    2.18      72.4  T
     SCC iter.                  ...        0 min,  0.003 sec
     gradient                   ...        0 min,  0.002 sec
 * total energy  :   -36.0472028 Eh     change       -0.7551500E-05 Eh
   gradient norm :     0.0015046 Eh/α   predicted    -0.5150516E-05 ( -31.79%)
   displ. norm   :     0.0272746 α      lambda       -0.5645710E-05
   maximum displ.:     0.0234014 α      in ANC's #3, #4, #1, ...

........................................................................
.............................. CYCLE   17 ..............................
........................................................................

 iter      E             dE          RMSdq      gap      omega  full diag
   1    -36.5504353 -0.365504E+02  0.122E-02    2.18       0.0  T
   2    -36.5504354 -0.919655E-07  0.711E-03    2.18       2.9  T
   3    -36.5504354  0.179230E-07  0.159E-03    2.18      12.9  T
   4    -36.5504354 -0.267433E-07  0.388E-04    2.18      52.7  T
   5    -36.5504354 -0.299167E-08  0.159E-04    2.18     128.6  T
     SCC iter.                  ...        0 min,  0.003 sec
     gradient                   ...        0 min,  0.002 sec
 * total energy  :   -36.0472088 Eh     change       -0.5967843E-05 Eh
   gradient norm :     0.0007479 Eh/α   predicted    -0.2825244E-05 ( -52.66%)
   displ. norm   :     0.0292873 α      lambda       -0.3314587E-05
   maximum displ.:     0.0251523 α      in ANC's #3, #1, #4, ...

........................................................................
.............................. CYCLE   18 ..............................
........................................................................

 iter      E             dE          RMSdq      gap      omega  full diag
   1    -36.5499975 -0.365500E+02  0.124E-02    2.18       0.0  T
   2    -36.5499976 -0.393319E-07  0.728E-03    2.18       2.8  T
   3    -36.5499976  0.163277E-07  0.117E-03    2.18      17.5  T
   4    -36.5499976 -0.239162E-07  0.252E-04    2.18      81.1  T
   5    -36.5499976 -0.654282E-09  0.146E-04    2.18     139.7  T
     SCC iter.                  ...        0 min,  0.003 sec
     gradient                   ...        0 min,  0.002 sec
 * total energy  :   -36.0472120 Eh     change       -0.3249876E-05 Eh
   gradient norm :     0.0006828 Eh/α   predicted    -0.1661972E-05 ( -48.86%)
   displ. norm   :     0.0286514 α      lambda       -0.2525989E-05
   maximum displ.:     0.0238184 α      in ANC's #3, #4, #1, ...

   *** GEOMETRY OPTIMIZATION CONVERGED AFTER 18 ITERATIONS ***

------------------------------------------------------------------------
 total energy gain   :        -0.0058698 Eh       -3.6834 kcal/mol
 total RMSD          :         0.4566679 a0        0.2417 Å
 total power (kW/mol):        -0.8561808 (step) -117.8107 (real)
------------------------------------------------------------------------

 ANCopt (total)                0 d,  0 h,  0 min,  0.131 sec
 optimizer setup                ...        0 min,  0.000 sec (  0.064%)
 model hessian                  ...        0 min,  0.011 sec (  8.126%)
 ANC generation                 ...        0 min,  0.000 sec (  0.310%)
 coordinate transformation      ...        0 min,  0.000 sec (  0.097%)
 single point calculation       ...        0 min,  0.116 sec ( 88.870%)
 optimization log               ...        0 min,  0.001 sec (  0.940%)
 hessian update                 ...        0 min,  0.000 sec (  0.194%)
 rational function              ...        0 min,  0.001 sec (  0.886%)

================
 final structure:
================
24
 xtb: 6.7.1 (edcfbbe)
O            1.16633576157840        0.05903988296410        0.33627838755365
C            0.46722086297842        1.00649109784997        0.99429293551635
O            0.96513444273093        2.00576229537085        1.41206024892608
C           -1.00582166619039        0.65515493947056        1.08857672851507
C           -1.77791307832737        1.21464284544304       -0.11039423213332
C           -1.40964160687406        0.54421787954243       -1.44170883624127
N           -1.84836354219012       -0.84114517147182       -1.46400747631017
C           -1.00756036002016       -1.81256068014213       -1.09193689483822
C           -1.42044581988649       -3.12962829333277       -1.04296970040847
C           -2.72776346455854       -3.44663155466422       -1.38635810190773
C           -3.58405004882972       -2.42111305467307       -1.77067737261209
C           -3.11330252818945       -1.12550542777166       -1.79646311583043
H            2.11085155973190        0.28720430899074        0.32597102385041
H           -1.12029598862226       -0.42675552894596        1.16825557539042
H           -1.39229878578097        1.11953320444116        1.99588145594939
H           -2.84885482047027        1.10420907799387        0.07053295807598
H           -1.56223179630581        2.28013287038574       -0.20041155663803
H           -1.89136679578744        1.08061983977425       -2.26140993241799
H           -0.32919198267416        0.57423251522369       -1.58841539577218
H            0.00073657218304       -1.52189076702650       -0.82888395440442
H           -0.72293764647812       -3.89426671370316       -0.73926800384777
H           -3.07259207375820       -4.46825662720308       -1.35809462437160
H           -4.60584816590431       -2.62379122742235       -2.04965957392418
H           -3.74571902835548       -0.30003571109351       -2.08983054212032

 Bond Distances (Angstroems)
 ---------------------------
O1-C2=1.3489         O1-H13=0.9717        C2-O1=1.3489         C2-O3=1.1921         C2-C4=1.5173         O3-C2=1.1921         
C4-C2=1.5173         C4-C5=1.5319         C4-H14=1.0909        C4-H15=1.0901        C5-C4=1.5319         C5-C6=1.5354         
C5-H16=1.0917        C5-H17=1.0908        C6-C5=1.5354         C6-N7=1.4533         C6-H18=1.0916        C6-H19=1.0908        
N7-C6=1.4533         N7-C8=1.3375         N7-C12=1.3385        C8-N7=1.3375         C8-C9=1.3811         C8-H20=1.0818        
C9-C8=1.3811         C9-C10=1.3883        C9-H21=1.0786        C10-C9=1.3883        C10-C11=1.3902       C10-H22=1.0786       
C11-C10=1.3902       C11-C12=1.3787       C11-H23=1.0784       C12-N7=1.3385        C12-C11=1.3787       C12-H24=1.0805       
H13-O1=0.9717        H14-C4=1.0909        H15-C4=1.0901        H16-C5=1.0917        H17-C5=1.0908        H18-C6=1.0916        
H19-C6=1.0908        H20-C8=1.0818        H21-C9=1.0786        H22-C10=1.0786       H23-C11=1.0784       H24-C12=1.0805       
 C  H  Rav=1.0858 sigma=0.0058  Rmin=1.0784  Rmax=1.0917    11
 C  C  Rav=1.4461 sigma=0.0713  Rmin=1.3787  Rmax=1.5354     7
 N  C  Rav=1.3764 sigma=0.0544  Rmin=1.3375  Rmax=1.4533     3
 O  H  Rav=0.9717 sigma=0.0000  Rmin=0.9717  Rmax=0.9717     1
 O  C  Rav=1.2705 sigma=0.0784  Rmin=1.1921  Rmax=1.3489     2

 selected bond angles (degree)
 --------------------
H13-O1-C2=110.12               O3-C2-O1=122.91                C4-C2-O1=111.77                C4-C2-O3=125.30                
C5-C4-C2=110.86                H14-C4-C2=109.64               H14-C4-C5=111.50               H15-C4-C2=107.29               
H15-C4-C5=108.49               H15-C4-H14=108.94              C6-C5-C4=113.47                H16-C5-C4=109.13               
H16-C5-C6=109.56               H17-C5-C4=108.76               H17-C5-C6=107.91               H17-C5-H16=107.85              
N7-C6-C5=110.92                H18-C6-C5=109.31               H18-C6-N7=108.88               H19-C6-C5=110.01               
H19-C6-N7=108.86               H19-C6-H18=108.82              C8-N7-C6=119.89                C12-N7-C6=119.45               
C12-N7-C8=120.59               C9-C8-N7=120.97                H20-C8-N7=117.28               H20-C8-C9=121.75               
C10-C9-C8=119.37               H21-C9-C8=119.52               H21-C9-C10=121.11              C11-C10-C9=118.68              
H22-C10-C9=120.72              H22-C10-C11=120.60             

 selected dihedral angles (degree)
 ---------------------------------
O3-C2-O1-H13=  4.36           C4-C2-O1-H13=182.63           C5-C4-C2-O1=269.74            C5-C4-C2-O3= 87.96            
H14-C4-C2-O1= 33.28           H14-C4-C2-O3=211.50           H15-C4-C2-O1=151.44           H15-C4-C2-O3=329.66           
C6-C5-C4-C2= 67.54            C6-C5-C4-H14=305.08           C6-C5-C4-H15=185.12           H16-C5-C4-C2=190.02           
H16-C5-C4-H14= 67.56          H16-C5-C4-H15=307.59          H17-C5-C4-C2=307.43           H17-C5-C4-H14=184.98          
H17-C5-C4-H15= 65.01          N7-C6-C5-C4= 67.62            N7-C6-C5-H16=305.38           N7-C6-C5-H17=188.21           
H18-C6-C5-C4=187.69           H18-C6-C5-H16= 65.45          H18-C6-C5-H17=308.28          H19-C6-C5-C4=307.13           
H19-C6-C5-H16=184.88          H19-C6-C5-H17= 67.71          C8-N7-C6-C5=266.55            C8-N7-C6-H18=146.22           
C8-N7-C6-H19= 27.73           C12-N7-C6-C5= 83.36           C12-N7-C6-H18=323.03          C12-N7-C6-H19=204.53          
C9-C8-N7-C6=176.86            C9-C8-N7-C12=  0.09           H20-C8-N7-C6=357.13           H20-C8-N7-C12=180.36          
C10-C9-C8-N7=  0.04           C10-C9-C8-H20=179.75          H21-C9-C8-N7=180.02           H21-C9-C8-H20=359.73          
C11-C10-C9-C8=  0.00          C11-C10-C9-H21=180.01         H22-C10-C9-C8=179.85          H22-C10-C9-H21=359.87         
           -------------------------------------------------
          |                Final Singlepoint                |
           -------------------------------------------------

          ...................................................
          :                      SETUP                      :
          :.................................................:
          :  # basis functions                  60          :
          :  # atomic orbitals                  60          :
          :  # shells                           36          :
          :  # electrons                        64          :
          :  max. iterations                   250          :
          :  Hamiltonian                  GFN2-xTB          :
          :  restarted?                      false          :
          :  GBSA solvation                  false          :
          :  PC potential                    false          :
          :  electronic temp.          300.0000000     K    :
          :  accuracy                    1.0000000          :
          :  -> integral cutoff          0.2500000E+02      :
          :  -> integral neglect         0.1000000E-07      :
          :  -> SCF convergence          0.1000000E-05 Eh   :
          :  -> wf. convergence          0.1000000E-03 e    :
          :  Broyden damping             0.4000000          :
          :  net charge                          1          :
          :  unpaired electrons                  0          :
          ...................................................

 iter      E             dE          RMSdq      gap      omega  full diag
   1    -36.5499976 -0.365500E+02  0.719E-05    2.18       0.0  T
   2    -36.5499976 -0.138201E-10  0.459E-05    2.18     445.0  T
   3    -36.5499976 -0.238742E-11  0.296E-05    2.18     690.6  T

   *** convergence criteria satisfied after 3 iterations ***

         #    Occupation            Energy/Eh            Energy/eV
      -------------------------------------------------------------
         1        2.0000           -0.8857398             -24.1022
       ...           ...                  ...                  ...
        26        2.0000           -0.6273874             -17.0721
        27        2.0000           -0.6206483             -16.8887
        28        2.0000           -0.6135842             -16.6965
        29        2.0000           -0.6048317             -16.4583
        30        2.0000           -0.5998408             -16.3225
        31        2.0000           -0.5948101             -16.1856
        32        2.0000           -0.5442072             -14.8086 (HOMO)
        33                         -0.4642169             -12.6320 (LUMO)
        34                         -0.4333050             -11.7908
        35                         -0.3589919              -9.7687
        36                         -0.3128248              -8.5124
        37                         -0.1787193              -4.8632
       ...                                ...                  ...
        60                          0.5493925              14.9497
      -------------------------------------------------------------
                  HL-Gap            0.0799903 Eh            2.1766 eV
             Fermi-level           -0.5042121 Eh          -13.7203 eV

 SCC (total)                   0 d,  0 h,  0 min,  0.005 sec
 SCC setup                      ...        0 min,  0.000 sec (  1.309%)
 Dispersion                     ...        0 min,  0.000 sec (  1.840%)
 classical contributions        ...        0 min,  0.000 sec (  0.313%)
 integral evaluation            ...        0 min,  0.001 sec ( 14.182%)
 iterations                     ...        0 min,  0.002 sec ( 38.613%)
 molecular gradient             ...        0 min,  0.002 sec ( 41.931%)
 printout                       ...        0 min,  0.000 sec (  1.501%)

         :::::::::::::::::::::::::::::::::::::::::::::::::::::
         ::                     SUMMARY                     ::
         :::::::::::::::::::::::::::::::::::::::::::::::::::::
         :: total energy             -36.047212034513 Eh    ::
         :: gradient norm              0.000682763336 Eh/a0 ::
         :: HOMO-LUMO gap              2.176647930936 eV    ::
         ::.................................................::
         :: SCC energy               -36.549864164178 Eh    ::
         :: -> isotropic ES            0.131999976682 Eh    ::
         :: -> anisotropic ES         -0.016229053645 Eh    ::
         :: -> anisotropic XC          0.017589127980 Eh    ::
         :: -> dispersion             -0.019194025424 Eh    ::
         :: repulsion energy           0.502652129665 Eh    ::
         :: add. restraining           0.000000000000 Eh    ::
         :: total charge               1.000000000000 e     ::
         :::::::::::::::::::::::::::::::::::::::::::::::::::::

           -------------------------------------------------
          |                Property Printout                |
           -------------------------------------------------

    * Orbital Energies and Occupations

         #    Occupation            Energy/Eh            Energy/eV
      -------------------------------------------------------------
         1        2.0000           -0.8857398             -24.1022
       ...           ...                  ...                  ...
        20        2.0000           -0.6806879             -18.5225
        21        2.0000           -0.6680807             -18.1794
        22        2.0000           -0.6581290             -17.9086
        23        2.0000           -0.6356472             -17.2968
        24        2.0000           -0.6322048             -17.2032
        25        2.0000           -0.6288688             -17.1124
        26        2.0000           -0.6273874             -17.0721
        27        2.0000           -0.6206483             -16.8887
        28        2.0000           -0.6135842             -16.6965
        29        2.0000           -0.6048317             -16.4583
        30        2.0000           -0.5998408             -16.3225
        31        2.0000           -0.5948101             -16.1856
        32        2.0000           -0.5442072             -14.8086 (HOMO)
        33                         -0.4642169             -12.6320 (LUMO)
        34                         -0.4333050             -11.7908
        35                         -0.3589919              -9.7687
        36                         -0.3128248              -8.5124
        37                         -0.1787193              -4.8632
        38                         -0.0929214              -2.5285
        39                         -0.0787666              -2.1433
        40                         -0.0646748              -1.7599
        41                         -0.0529748              -1.4415
        42                         -0.0354595              -0.9649
        43                         -0.0243972              -0.6639
       ...                                ...                  ...
        60                          0.5493925              14.9497
      -------------------------------------------------------------
                  HL-Gap            0.0799903 Eh            2.1766 eV
             Fermi-level           -0.5042121 Eh          -13.7203 eV

     #   Z          covCN         q      C6AA      α(0)
     1   8 O        1.659    -0.396    20.770     6.152
     2   6 C        2.688     0.358    20.920     7.485
     3   8 O        0.856    -0.360    20.896     6.129
     4   6 C        3.802    -0.101    22.424     6.742
     5   6 C        3.803    -0.066    21.768     6.642
     6   6 C        3.759    -0.041    21.354     6.588
     7   7 N        2.750     0.117    19.243     6.515
     8   6 C        2.890     0.028    27.369     8.577
     9   6 C        2.916    -0.010    28.268     8.719
    10   6 C        2.924     0.014    27.692     8.630
    11   6 C        2.915    -0.010    28.257     8.717
    12   6 C        2.892     0.031    27.306     8.567
    13   1 H        0.804     0.343     0.606     1.223
    14   1 H        0.924     0.063     2.161     2.299
    15   1 H        0.925     0.099     1.797     2.096
    16   1 H        0.924     0.070     2.087     2.259
    17   1 H        0.924     0.094     1.840     2.121
    18   1 H        0.924     0.097     1.816     2.107
    19   1 H        0.924     0.103     1.760     2.075
    20   1 H        0.925     0.129     1.539     1.940
    21   1 H        0.926     0.110     1.700     2.039
    22   1 H        0.926     0.109     1.707     2.043
    23   1 H        0.926     0.110     1.700     2.039
    24   1 H        0.926     0.110     1.701     2.039

 Mol. C6AA /au·bohr⁶  :       5448.453976
 Mol. C8AA /au·bohr⁸  :     127103.809974
 Mol. α(0) /au        :        113.744247


Wiberg/Mayer (AO) data.
largest (>0.10) Wiberg bond orders for each atom

 ---------------------------------------------------------------------------
     #   Z sym  total        # sym  WBO       # sym  WBO       # sym  WBO
 ---------------------------------------------------------------------------
     1   8 O    2.181 --     2 C    1.107    13 H    0.858     3 O    0.176
     2   6 C    3.919 --     3 O    1.821     1 O    1.107     4 C    0.965
     3   8 O    2.092 --     2 C    1.821     1 O    0.176
     4   6 C    3.991 --     5 C    0.993    14 H    0.967     2 C    0.965
                            15 H    0.960
     5   6 C    3.983 --     4 C    0.993     6 C    0.980    16 H    0.970
                            17 H    0.963
     6   6 C    3.936 --     5 C    0.980     7 N    0.965    18 H    0.961
                            19 H    0.960
     7   7 N    3.770 --     8 C    1.329    12 C    1.324     6 C    0.965
     8   6 C    3.951 --     9 C    1.454     7 N    1.329    20 H    0.944
     9   6 C    3.981 --     8 C    1.454    10 C    1.428    21 H    0.959
    10   6 C    3.969 --     9 C    1.428    11 C    1.416    22 H    0.961
    11   6 C    3.980 --    12 C    1.468    10 C    1.416    23 H    0.959
    12   6 C    3.959 --    11 C    1.468     7 N    1.324    24 H    0.954
    13   1 H    0.882 --     1 O    0.858
    14   1 H    0.996 --     4 C    0.967
    15   1 H    0.990 --     4 C    0.960
    16   1 H    0.995 --     5 C    0.970
    17   1 H    0.990 --     5 C    0.963
    18   1 H    0.990 --     6 C    0.961
    19   1 H    0.989 --     6 C    0.960
    20   1 H    0.983 --     8 C    0.944
    21   1 H    0.988 --     9 C    0.959
    22   1 H    0.988 --    10 C    0.961
    23   1 H    0.988 --    11 C    0.959
    24   1 H    0.988 --    12 C    0.954
 ---------------------------------------------------------------------------

Topologies differ in total number of bonds
Writing topology from bond orders to xtbtopo.mol

molecular dipole:
                 x           y           z       tot (Debye)
 q only:       -3.916      -2.883      -2.610
   full:       -3.821      -2.946      -2.672      14.018
molecular quadrupole (traceless):
                xx          xy          yy          xz          yz          zz
 q only:       13.765      13.901      -0.312      14.996       6.468     -13.452
  q+dip:       16.822      13.955      -1.098      16.206       4.647     -15.724
   full:       15.314      13.555      -2.539      15.270       4.898     -12.774

           -------------------------------------------------
          |                Geometry Summary                 |
           -------------------------------------------------

      molecular mass/u    :      166.1974251
   center of mass at/Å    :       -1.1927855      -0.5286463      -0.4748024
  moments of inertia/u·Å² :        0.2336863E+03   0.9436161E+03   0.1071327E+04
rotational constants/cm⁻¹ :        0.7213787E-01   0.1786493E-01   0.1573529E-01

 * 23 selected distances

     #   Z          #   Z                                           value/Å
     1   8 O        2   6 C                                       1.3488547
     2   6 C        3   8 O                                       1.1920531
     4   6 C        5   6 C                                       1.5318889
     5   6 C        6   6 C                                       1.5354128 (max)
     6   6 C        7   7 N                                       1.4533428
     7   7 N        8   6 C                                       1.3375481
     8   6 C        9   6 C                                       1.3811371
     9   6 C       10   6 C                                       1.3883395
    10   6 C       11   6 C                                       1.3901858
     7   7 N       12   6 C                                       1.3384538
    11   6 C       12   6 C                                       1.3787196
     1   8 O       13   1 H                                       0.9717384 (min)
     4   6 C       14   1 H                                       1.0908637
     4   6 C       15   1 H                                       1.0900522
     5   6 C       16   1 H                                       1.0917173
     5   6 C       17   1 H                                       1.0908211
     6   6 C       18   1 H                                       1.0916484
     6   6 C       19   1 H                                       1.0907774
     8   6 C       20   1 H                                       1.0818266
     9   6 C       21   1 H                                       1.0786216
    10   6 C       22   1 H                                       1.0786212
    11   6 C       23   1 H                                       1.0784160
    12   6 C       24   1 H                                       1.0804701

 * 5 distinct bonds (by element types)

   Z      Z             #   av. dist./Å        max./Å        min./Å
   1 H    6 C          11     1.0858032     1.0917173     1.0784160
   6 C    6 C           6     1.4342806     1.5354128     1.3787196
   6 C    7 N           3     1.3764482     1.4533428     1.3375481
   1 H    8 O           1     0.9717384     0.9717384     0.9717384
   6 C    8 O           2     1.2704539     1.3488547     1.1920531


optimized geometry written to: xtbopt.xyz


           -------------------------------------------------
          | TOTAL ENERGY              -36.047212034513 Eh   |
          | GRADIENT NORM               0.000682763336 Eh/α |
          | HOMO-LUMO GAP               2.176647930936 eV   |
           -------------------------------------------------

------------------------------------------------------------------------
 * finished run on 2024/12/20 at 07:18:20.349     
------------------------------------------------------------------------
 total:
 * wall-time:     0 d,  0 h,  0 min,  0.165 sec
 *  cpu-time:     0 d,  0 h,  0 min,  1.304 sec
 * ratio c/w:     7.895 speedup
 SCF:
 * wall-time:     0 d,  0 h,  0 min,  0.013 sec
 *  cpu-time:     0 d,  0 h,  0 min,  0.103 sec
 * ratio c/w:     7.923 speedup
 ANC optimizer:
 * wall-time:     0 d,  0 h,  0 min,  0.136 sec
 *  cpu-time:     0 d,  0 h,  0 min,  1.088 sec
 * ratio c/w:     7.973 speedup

