      -----------------------------------------------------------      
     |                   =====================                   |     
     |                           x T B                           |     
     |                   =====================                   |     
     |                         S. Grimme                         |     
     |          Mulliken Center for Theoretical Chemistry        |     
     |                    University of Bonn                     |     
      -----------------------------------------------------------      

   * xtb version 6.7.1 (edcfbbe) compiled by 'conda@3ef47c1a292c' on 2024-11-25

   xtb is free software: you can redistribute it and/or modify it under
   the terms of the GNU Lesser General Public License as published by
   the Free Software Foundation, either version 3 of the License, or
   (at your option) any later version.
   
   xtb is distributed in the hope that it will be useful,
   but WITHOUT ANY WARRANTY; without even the implied warranty of
   MERCHANTABILITY or FITNESS FOR A PARTICULAR PURPOSE.  See the
   GNU Lesser General Public License for more details.
   
   Cite this work as:
   * C. Bannwarth, E. Caldeweyher, S. Ehlert, A. Hansen, P. Pracht,
     J. Seibert, S. Spicher, S. Grimme, WIREs Comput. Mol. Sci., 2020, 11,
     e01493. DOI: 10.1002/wcms.1493
   
   for GFN2-xTB:
   * C. Bannwarth, S. Ehlert and S. Grimme., J. Chem. Theory Comput., 2019,
     15, 1652-1671. DOI: 10.1021/acs.jctc.8b01176
   for GFN1-xTB:
   * S. Grimme, C. Bannwarth, P. Shushkov, J. Chem. Theory Comput., 2017,
     13, 1989-2009. DOI: 10.1021/acs.jctc.7b00118
   for GFN0-xTB:
   * P. Pracht, E. Caldeweyher, S. Ehlert, S. Grimme, ChemRxiv, 2019, preprint.
     DOI: 10.26434/chemrxiv.8326202.v1
   for GFN-FF:
   * S. Spicher and S. Grimme, Angew. Chem. Int. Ed., 2020, 59, 15665-15673.
     DOI: 10.1002/anie.202004239
   
   for ALPB and GBSA implicit solvation:
   * S. Ehlert, M. Stahn, S. Spicher, S. Grimme, J. Chem. Theory Comput.,
     2021, 17, 4250-4261. DOI: 10.1021/acs.jctc.1c00471
   
   for ddCOSMO and CPCM-X implicit solvation:
   * M. Stahn, S. Ehlert, S. Grimme, J. Phys. Chem. A,
     2023, XX, XXXX-XXXX. DOI: 10.1021/acs.jpca.3c04382
   
   for DFT-D4:
   * E. Caldeweyher, C. Bannwarth and S. Grimme, J. Chem. Phys., 2017,
     147, 034112. DOI: 10.1063/1.4993215
   * E. Caldeweyher, S. Ehlert, A. Hansen, H. Neugebauer, S. Spicher,
     C. Bannwarth and S. Grimme, J. Chem. Phys., 2019, 150, 154122.
     DOI: 10.1063/1.5090222
   * E. Caldeweyher, J.-M. Mewes, S. Ehlert and S. Grimme, Phys. Chem. Chem. Phys.
     2020, 22, 8499-8512. DOI: 10.1039/D0CP00502A
   
   for sTDA-xTB:
   * S. Grimme and C. Bannwarth, J. Chem. Phys., 2016, 145, 054103.
     DOI: 10.1063/1.4959605
   
   in the mass-spec context:
   * V. Asgeirsson, C. Bauer and S. Grimme, Chem. Sci., 2017, 8, 4879.
     DOI: 10.1039/c7sc00601b
   * J. Koopman and S. Grimme, ACS Omega 2019, 4, 12, 15120-15133.
     DOI: 10.1021/acsomega.9b02011
   
   for metadynamics refer to:
   * S. Grimme, J. Chem. Theory Comput., 2019, 155, 2847-2862
     DOI: 10.1021/acs.jctc.9b00143
   
   for SPH calculations refer to:
   * S. Spicher and S. Grimme, J. Chem. Theory Comput., 2021, 17, 1701-1714
     DOI: 10.1021/acs.jctc.0c01306
   
   for ONIOM refer to:
   * C. Plett, A. Katbashev, S. Ehlert, S. Grimme, M. Bursch,
     Phys. Chem. Chem. Phys., 2023, 25, 17860-17868. DOI: 10.1039/D3CP02178E
   
   for DIPRO refer to:
   * J. Kohn, N. Gildemeister, S. Grimme, D. Fazzi, A. Hansen,
     J. Chem. Phys., 2023, just accepted.
   
   for PTB refer to:
   * S. Grimme, M. Mueller, A. Hansen, J. Chem. Phys., 2023, 158, 124111.
     DOI: 10.1063/5.0137838
   
   with help from (in alphabetical order)
   P. Atkinson, C. Bannwarth, F. Bohle, G. Brandenburg, E. Caldeweyher
   M. Checinski, S. Dohm, S. Ehlert, S. Ehrlich, I. Gerasimov, C. Hölzer
   A. Katbashev, J. Kohn, J. Koopman, C. Lavigne, S. Lehtola, F. März, M. Müller,
   F. Musil, H. Neugebauer, J. Pisarek, C. Plett, P. Pracht, F. Pultar,
   J. Seibert, P. Shushkov, S. Spicher, M. Stahn, M. Steiner, T. Strunk,
   J. Stückrath, T. Rose, and J. Unsleber
   
 * started run on 2024/12/20 at 07:18:36.824     
   ID    Z sym.   atoms
    1    6 C      1-12, 14-38
    2    7 N      13
    3    1 H      39-116

           -------------------------------------------------
          |                Calculation Setup                |
           -------------------------------------------------

          program call               : xtb C1294.xyz --opt --namespace C1294 --charge +1
          calculation namespace      : C1294
          coordinate file            : C1294.xyz
          omp threads                :                     8


           -------------------------------------------------
          |                 G F N 2 - x T B                 |
           -------------------------------------------------

        Reference                      10.1021/acs.jctc.8b01176
      * Hamiltonian:
        H0-scaling (s, p, d)           1.850000    2.230000    2.230000
        zeta-weighting                 0.500000
      * Dispersion:
        s8                             2.700000
        a1                             0.520000
        a2                             5.000000
        s9                             5.000000
      * Repulsion:
        kExp                           1.500000    1.000000
        rExp                           1.000000
      * Coulomb:
        alpha                          2.000000
        third order                    shell-resolved
        anisotropic                    true
        a3                             3.000000
        a5                             4.000000
        cn-shift                       1.200000
        cn-exp                         4.000000
        max-rad                        5.000000


          ...................................................
          :                      SETUP                      :
          :.................................................:
          :  # basis functions                 230          :
          :  # atomic orbitals                 230          :
          :  # shells                          154          :
          :  # electrons                       230          :
          :  max. iterations                   250          :
          :  Hamiltonian                  GFN2-xTB          :
          :  restarted?                      false          :
          :  GBSA solvation                  false          :
          :  PC potential                    false          :
          :  electronic temp.          300.0000000     K    :
          :  accuracy                    1.0000000          :
          :  -> integral cutoff          0.2500000E+02      :
          :  -> integral neglect         0.1000000E-07      :
          :  -> SCF convergence          0.1000000E-05 Eh   :
          :  -> wf. convergence          0.1000000E-03 e    :
          :  Broyden damping             0.4000000          :
          :  net charge                          1          :
          :  unpaired electrons                  0          :
          ...................................................

 iter      E             dE          RMSdq      gap      omega  full diag
   1   -122.9758277 -0.122976E+03  0.246E+00    9.08       0.0  T
   2   -123.3012081 -0.325380E+00  0.150E+00    6.33       1.0  T
   3   -123.3062201 -0.501198E-02  0.810E-01    5.85       1.0  T
   4   -123.3074427 -0.122261E-02  0.115E-01    5.24       1.0  T
   5   -123.3075598 -0.117111E-03  0.561E-02    5.25       1.0  T
   6   -123.3075622 -0.245310E-05  0.744E-03    5.27       1.2  T
   7   -123.3075644 -0.212386E-05  0.258E-03    5.27       3.6  T
   8   -123.3075644 -0.728158E-07  0.448E-04    5.27      20.7  T
   9   -123.3075644 -0.402230E-08  0.173E-04    5.27      53.5  T

   *** convergence criteria satisfied after 9 iterations ***

         #    Occupation            Energy/Eh            Energy/eV
      -------------------------------------------------------------
         1        2.0000           -0.8270041             -22.5039
       ...           ...                  ...                  ...
       109        2.0000           -0.4728178             -12.8660
       110        2.0000           -0.4712051             -12.8221
       111        2.0000           -0.4710970             -12.8192
       112        2.0000           -0.4705810             -12.8052
       113        2.0000           -0.4686762             -12.7533
       114        2.0000           -0.4686024             -12.7513
       115        2.0000           -0.4681653             -12.7394 (HOMO)
       116                         -0.2745351              -7.4705 (LUMO)
       117                         -0.2019773              -5.4961
       118                         -0.1888983              -5.1402
       119                         -0.1733066              -4.7159
       120                         -0.0819236              -2.2293
       ...                                ...                  ...
       230                          0.2444693               6.6523
      -------------------------------------------------------------
                  HL-Gap            0.1936302 Eh            5.2689 eV
             Fermi-level           -0.3713502 Eh          -10.1050 eV

 SCC (total)                   0 d,  0 h,  0 min,  0.133 sec
 SCC setup                      ...        0 min,  0.000 sec (  0.344%)
 Dispersion                     ...        0 min,  0.003 sec (  2.558%)
 classical contributions        ...        0 min,  0.000 sec (  0.193%)
 integral evaluation            ...        0 min,  0.009 sec (  6.429%)
 iterations                     ...        0 min,  0.068 sec ( 51.429%)
 molecular gradient             ...        0 min,  0.051 sec ( 38.519%)
 printout                       ...        0 min,  0.001 sec (  0.513%)

         :::::::::::::::::::::::::::::::::::::::::::::::::::::
         ::                     SUMMARY                     ::
         :::::::::::::::::::::::::::::::::::::::::::::::::::::
         :: total energy            -121.587771729145 Eh    ::
         :: gradient norm              0.060912674387 Eh/a0 ::
         :: HOMO-LUMO gap              5.268944891578 eV    ::
         ::.................................................::
         :: SCC energy              -123.306973297865 Eh    ::
         :: -> isotropic ES            0.081199752567 Eh    ::
         :: -> anisotropic ES          0.022515071474 Eh    ::
         :: -> anisotropic XC          0.073347596050 Eh    ::
         :: -> dispersion             -0.102336934879 Eh    ::
         :: repulsion energy           1.719201568720 Eh    ::
         :: add. restraining           0.000000000000 Eh    ::
         :: total charge               1.000000000000 e     ::
         :::::::::::::::::::::::::::::::::::::::::::::::::::::

      ----------------------------------------------------------- 
     |                   =====================                   |
     |                        A N C O P T                        |
     |                   =====================                   |
     |               Approximate Normal Coordinate               |
     |                Rational Function Optimizer                |
      ----------------------------------------------------------- 
      ----------------------------------------------------------- 
     |                   =====================                   |
     |                        A N C O P T                        |
     |                   =====================                   |
     |               Approximate Normal Coordinate               |
     |                Rational Function Optimizer                |
      ----------------------------------------------------------- 

          ...................................................
          :                      SETUP                      :
          :.................................................:
          :   optimization level            normal          :
          :   max. optcycles                   348          :
          :   ANC micro-cycles                  20          :
          :   degrees of freedom               342          :
          :.................................................:
          :   RF solver                   davidson          :
          :   write xtbopt.log                true          :
          :   linear?                        false          :
          :   energy convergence         0.5000000E-05 Eh   :
          :   grad. convergence          0.1000000E-02 Eh/α :
          :   maxmium RF displ.          1.0000000          :
          :   Hlow (freq-cutoff)         0.1000000E-01      :
          :   Hmax (freq-cutoff)         5.0000000          :
          :   S6 in model hess.         20.0000000          :
          ...................................................

generating ANC from exact Hessian ...
Using Lindh-Hessian (1995)
 Shifting diagonal of input Hessian by    9.9948923158335295E-003
 Lowest  eigenvalues of input Hessian
    0.000000    0.000000    0.000000    0.000000    0.000000    0.000000
    0.010000    0.010007    0.010008    0.010067    0.010084    0.010097
    0.010258    0.010277    0.010341    0.010376    0.010401    0.010464
 Highest eigenvalues
    1.278724    1.281656    1.287010    1.288015    1.289670    1.297031


........................................................................
.............................. CYCLE    1 ..............................
........................................................................

 iter      E             dE          RMSdq      gap      omega  full diag
   1   -123.3075644 -0.123308E+03  0.609E-05    5.27       0.0  T
   2   -123.3075644 -0.367777E-10  0.368E-05    5.27     252.4  T
   3   -123.3075644 -0.100897E-11  0.145E-05    5.27     639.3  T
     SCC iter.                  ...        0 min,  0.025 sec
     gradient                   ...        0 min,  0.051 sec
 * total energy  :  -121.5877717 Eh     change       -0.1369358E-09 Eh
   gradient norm :     0.0609121 Eh/α   predicted     0.0000000E+00 (-100.00%)
   displ. norm   :     0.3418477 α      lambda       -0.1303152E-01
   maximum displ.:     0.1389940 α      in ANC's #82, #84, #159, ...

........................................................................
.............................. CYCLE    2 ..............................
........................................................................

 iter      E             dE          RMSdq      gap      omega  full diag
   1   -123.3538174 -0.123354E+03  0.121E-01    5.98       0.0  T
   2   -123.3540207 -0.203296E-03  0.720E-02    5.95       1.0  T
   3   -123.3540253 -0.456547E-05  0.273E-02    5.94       1.0  T
   4   -123.3540274 -0.207036E-05  0.250E-03    5.94       3.7  T
   5   -123.3540274 -0.393630E-07  0.128E-03    5.94       7.3  T
   6   -123.3540274 -0.762178E-08  0.174E-04    5.94      53.3  T
   7   -123.3540274 -0.447827E-09  0.709E-05    5.94     130.9  T
     SCC iter.                  ...        0 min,  0.050 sec
     gradient                   ...        0 min,  0.051 sec
 * total energy  :  -121.5966889 Eh     change       -0.8917173E-02 Eh
   gradient norm :     0.0292789 Eh/α   predicted    -0.7277439E-02 ( -18.39%)
   displ. norm   :     0.2585510 α      lambda       -0.3928440E-02
   maximum displ.:     0.0925761 α      in ANC's #82, #84, #20, ...

........................................................................
.............................. CYCLE    3 ..............................
........................................................................

 iter      E             dE          RMSdq      gap      omega  full diag
   1   -123.3786425 -0.123379E+03  0.723E-02    6.64       0.0  T
   2   -123.3787857 -0.143201E-03  0.452E-02    6.61       1.0  T
   3   -123.3787876 -0.186719E-05  0.219E-02    6.61       1.0  T
   4   -123.3787880 -0.373188E-06  0.153E-03    6.60       6.1  T
   5   -123.3787880 -0.294154E-07  0.822E-04    6.60      11.3  T
   6   -123.3787880 -0.240547E-08  0.127E-04    6.60      73.1  T
     SCC iter.                  ...        0 min,  0.046 sec
     gradient                   ...        0 min,  0.051 sec
 * total energy  :  -121.5987651 Eh     change       -0.2076189E-02 Eh
   gradient norm :     0.0055921 Eh/α   predicted    -0.2096427E-02 (   0.97%)
   displ. norm   :     0.1164261 α      lambda       -0.2248145E-03
   maximum displ.:     0.0612355 α      in ANC's #20, #22, #9, ...

........................................................................
.............................. CYCLE    4 ..............................
........................................................................

 iter      E             dE          RMSdq      gap      omega  full diag
   1   -123.3780978 -0.123378E+03  0.132E-02    6.67       0.0  T
   2   -123.3780998 -0.194844E-05  0.764E-03    6.67       1.2  T
   3   -123.3780998 -0.306980E-07  0.246E-03    6.67       3.8  T
   4   -123.3780998 -0.157277E-07  0.234E-04    6.67      39.6  T
   5   -123.3780998 -0.526967E-09  0.117E-04    6.67      79.7  T
     SCC iter.                  ...        0 min,  0.036 sec
     gradient                   ...        0 min,  0.054 sec
 * total energy  :  -121.5989428 Eh     change       -0.1777319E-03 Eh
   gradient norm :     0.0027121 Eh/α   predicted    -0.1141280E-03 ( -35.79%)
   displ. norm   :     0.2734662 α      lambda       -0.3232996E-03
   maximum displ.:     0.1461300 α      in ANC's #20, #22, #9, ...

........................................................................
.............................. CYCLE    5 ..............................
........................................................................

 iter      E             dE          RMSdq      gap      omega  full diag
   1   -123.3762011 -0.123376E+03  0.210E-02    6.74       0.0  T
   2   -123.3762031 -0.199502E-05  0.123E-02    6.74       1.0  T
   3   -123.3762032 -0.502141E-07  0.215E-03    6.74       4.3  T
   4   -123.3762032 -0.360647E-07  0.350E-04    6.74      26.5  T
   5   -123.3762032 -0.101186E-08  0.155E-04    6.74      59.8  T
     SCC iter.                  ...        0 min,  0.036 sec
     gradient                   ...        0 min,  0.055 sec
 * total energy  :  -121.5991697 Eh     change       -0.2268887E-03 Eh
   gradient norm :     0.0041098 Eh/α   predicted    -0.1737505E-03 ( -23.42%)
   displ. norm   :     0.2610735 α      lambda       -0.1901333E-03
   maximum displ.:     0.1367996 α      in ANC's #20, #22, #9, ...

........................................................................
.............................. CYCLE    6 ..............................
........................................................................

 iter      E             dE          RMSdq      gap      omega  full diag
   1   -123.3760854 -0.123376E+03  0.153E-02    6.76       0.0  T
   2   -123.3760856 -0.179923E-06  0.905E-03    6.76       1.0  T
   3   -123.3760856 -0.227483E-07  0.514E-04    6.76      18.1  T
   4   -123.3760856 -0.627064E-08  0.219E-04    6.76      42.3  T
     SCC iter.                  ...        0 min,  0.032 sec
     gradient                   ...        0 min,  0.051 sec
 * total energy  :  -121.5993208 Eh     change       -0.1510957E-03 Eh
   gradient norm :     0.0049917 Eh/α   predicted    -0.1015469E-03 ( -32.79%)
   displ. norm   :     0.3326936 α      lambda       -0.2146142E-03
   maximum displ.:     0.1680360 α      in ANC's #20, #22, #9, ...

........................................................................
.............................. CYCLE    7 ..............................
........................................................................

 iter      E             dE          RMSdq      gap      omega  full diag
   1   -123.3776474 -0.123378E+03  0.179E-02    6.75       0.0  T
   2   -123.3776477 -0.327858E-06  0.106E-02    6.75       1.0  T
   3   -123.3776477 -0.235044E-07  0.686E-04    6.75      13.5  T
   4   -123.3776478 -0.171424E-07  0.260E-04    6.75      35.7  T
     SCC iter.                  ...        0 min,  0.032 sec
     gradient                   ...        0 min,  0.051 sec
 * total energy  :  -121.5994840 Eh     change       -0.1631586E-03 Eh
   gradient norm :     0.0037767 Eh/α   predicted    -0.1191863E-03 ( -26.95%)
   displ. norm   :     0.3172234 α      lambda       -0.1533698E-03
   maximum displ.:     0.1550528 α      in ANC's #20, #9, #4, ...

........................................................................
.............................. CYCLE    8 ..............................
........................................................................

 iter      E             dE          RMSdq      gap      omega  full diag
   1   -123.3799940 -0.123380E+03  0.165E-02    6.73       0.0  T
   2   -123.3799945 -0.497630E-06  0.976E-03    6.73       1.0  T
   3   -123.3799946 -0.214332E-07  0.873E-04    6.73      10.6  T
   4   -123.3799946 -0.177045E-07  0.245E-04    6.73      37.9  T
     SCC iter.                  ...        0 min,  0.032 sec
     gradient                   ...        0 min,  0.051 sec
 * total energy  :  -121.5995923 Eh     change       -0.1083479E-03 Eh
   gradient norm :     0.0017676 Eh/α   predicted    -0.8440410E-04 ( -22.10%)
   displ. norm   :     0.3460044 α      lambda       -0.8010403E-04
   maximum displ.:     0.1542138 α      in ANC's #20, #4, #9, ...

........................................................................
.............................. CYCLE    9 ..............................
........................................................................

 iter      E             dE          RMSdq      gap      omega  full diag
   1   -123.3824076 -0.123382E+03  0.172E-02    6.71       0.0  T
   2   -123.3824081 -0.516316E-06  0.102E-02    6.71       1.0  T
   3   -123.3824082 -0.169318E-07  0.922E-04    6.71      10.1  T
   4   -123.3824082 -0.240500E-07  0.251E-04    6.71      37.0  T
     SCC iter.                  ...        0 min,  0.034 sec
     gradient                   ...        0 min,  0.054 sec
 * total energy  :  -121.5996707 Eh     change       -0.7838822E-04 Eh
   gradient norm :     0.0022361 Eh/α   predicted    -0.4218373E-04 ( -46.19%)
   displ. norm   :     0.1528727 α      lambda       -0.6216953E-04
   maximum displ.:     0.0685661 α      in ANC's #4, #2, #5, ...

........................................................................
.............................. CYCLE   10 ..............................
........................................................................

 iter      E             dE          RMSdq      gap      omega  full diag
   1   -123.3828398 -0.123383E+03  0.768E-03    6.72       0.0  T
   2   -123.3828398 -0.387328E-07  0.454E-03    6.71       2.0  T
   3   -123.3828398 -0.299480E-08  0.260E-04    6.72      35.7  T
   4   -123.3828398 -0.326831E-08  0.101E-04    6.71      92.0  T
     SCC iter.                  ...        0 min,  0.066 sec
     gradient                   ...        0 min,  0.051 sec
 * total energy  :  -121.5997280 Eh     change       -0.5726862E-04 Eh
   gradient norm :     0.0024808 Eh/α   predicted    -0.3181216E-04 ( -44.45%)
   displ. norm   :     0.4163295 α      lambda       -0.1887980E-03
   maximum displ.:     0.1870220 α      in ANC's #4, #2, #5, ...

........................................................................
.............................. CYCLE   11 ..............................
........................................................................

 iter      E             dE          RMSdq      gap      omega  full diag
   1   -123.3824442 -0.123382E+03  0.215E-02    6.73       0.0  T
   2   -123.3824444 -0.243304E-06  0.127E-02    6.73       1.0  T
   3   -123.3824445 -0.314059E-07  0.622E-04    6.73      14.9  T
   4   -123.3824445 -0.154117E-07  0.273E-04    6.73      34.1  T
     SCC iter.                  ...        0 min,  0.029 sec
     gradient                   ...        0 min,  0.051 sec
 * total energy  :  -121.5998820 Eh     change       -0.1540730E-03 Eh
   gradient norm :     0.0026919 Eh/α   predicted    -0.1107613E-03 ( -28.11%)
   displ. norm   :     0.5132365 α      lambda       -0.1770907E-03
   maximum displ.:     0.2358954 α      in ANC's #4, #2, #1, ...

........................................................................
.............................. CYCLE   12 ..............................
........................................................................

 iter      E             dE          RMSdq      gap      omega  full diag
   1   -123.3806265 -0.123381E+03  0.258E-02    6.74       0.0  T
   2   -123.3806268 -0.330600E-06  0.153E-02    6.74       1.0  T
   3   -123.3806268 -0.397948E-07  0.748E-04    6.74      12.4  T
   4   -123.3806268 -0.241620E-07  0.320E-04    6.74      29.0  T
     SCC iter.                  ...        0 min,  0.033 sec
     gradient                   ...        0 min,  0.051 sec
 * total energy  :  -121.6000243 Eh     change       -0.1422137E-03 Eh
   gradient norm :     0.0027915 Eh/α   predicted    -0.1118776E-03 ( -21.33%)
   displ. norm   :     0.4843712 α      lambda       -0.1473494E-03
   maximum displ.:     0.2271822 α      in ANC's #4, #2, #1, ...

........................................................................
.............................. CYCLE   13 ..............................
........................................................................

 iter      E             dE          RMSdq      gap      omega  full diag
   1   -123.3795225 -0.123380E+03  0.240E-02    6.76       0.0  T
   2   -123.3795227 -0.216462E-06  0.142E-02    6.76       1.0  T
   3   -123.3795228 -0.341105E-07  0.601E-04    6.76      15.4  T
   4   -123.3795228 -0.141124E-07  0.275E-04    6.76      33.8  T
     SCC iter.                  ...        0 min,  0.032 sec
     gradient                   ...        0 min,  0.052 sec
 * total energy  :  -121.6001507 Eh     change       -0.1264453E-03 Eh
   gradient norm :     0.0025594 Eh/α   predicted    -0.9095999E-04 ( -28.06%)
   displ. norm   :     0.5091230 α      lambda       -0.1750208E-03
   maximum displ.:     0.2427591 α      in ANC's #4, #2, #1, ...

........................................................................
.............................. CYCLE   14 ..............................
........................................................................

 iter      E             dE          RMSdq      gap      omega  full diag
   1   -123.3794392 -0.123379E+03  0.254E-02    6.77       0.0  T
   2   -123.3794394 -0.234946E-06  0.150E-02    6.77       1.0  T
   3   -123.3794394 -0.356960E-07  0.641E-04    6.77      14.5  T
   4   -123.3794394 -0.173742E-07  0.288E-04    6.77      32.2  T
     SCC iter.                  ...        0 min,  0.029 sec
     gradient                   ...        0 min,  0.053 sec
 * total energy  :  -121.6003037 Eh     change       -0.1530190E-03 Eh
   gradient norm :     0.0024383 Eh/α   predicted    -0.1102000E-03 ( -27.98%)
   displ. norm   :     0.5731032 α      lambda       -0.2107612E-03
   maximum displ.:     0.2761768 α      in ANC's #4, #2, #1, ...

........................................................................
.............................. CYCLE   15 ..............................
........................................................................

 iter      E             dE          RMSdq      gap      omega  full diag
   1   -123.3798542 -0.123380E+03  0.293E-02    6.77       0.0  T
   2   -123.3798545 -0.306339E-06  0.173E-02    6.77       1.0  T
   3   -123.3798546 -0.517008E-07  0.699E-04    6.77      13.3  T
   4   -123.3798546 -0.176281E-07  0.328E-04    6.77      28.3  T
     SCC iter.                  ...        0 min,  0.032 sec
     gradient                   ...        0 min,  0.051 sec
 * total energy  :  -121.6004819 Eh     change       -0.1782016E-03 Eh
   gradient norm :     0.0029432 Eh/α   predicted    -0.1399927E-03 ( -21.44%)
   displ. norm   :     0.6034632 α      lambda       -0.1981808E-03
   maximum displ.:     0.2926143 α      in ANC's #4, #2, #1, ...

........................................................................
.............................. CYCLE   16 ..............................
........................................................................

 iter      E             dE          RMSdq      gap      omega  full diag
   1   -123.3799343 -0.123380E+03  0.313E-02    6.76       0.0  T
   2   -123.3799347 -0.344521E-06  0.185E-02    6.76       1.0  T
   3   -123.3799347 -0.633645E-07  0.708E-04    6.76      13.1  T
   4   -123.3799347 -0.136021E-07  0.344E-04    6.76      27.0  T
     SCC iter.                  ...        0 min,  0.029 sec
     gradient                   ...        0 min,  0.051 sec
 * total energy  :  -121.6006475 Eh     change       -0.1655699E-03 Eh
   gradient norm :     0.0031780 Eh/α   predicted    -0.1351774E-03 ( -18.36%)
   displ. norm   :     0.6028338 α      lambda       -0.1778515E-03
   maximum displ.:     0.2940831 α      in ANC's #4, #2, #1, ...

........................................................................
.............................. CYCLE   17 ..............................
........................................................................

 iter      E             dE          RMSdq      gap      omega  full diag
   1   -123.3801460 -0.123380E+03  0.313E-02    6.75       0.0  T
   2   -123.3801463 -0.298857E-06  0.185E-02    6.75       1.0  T
   3   -123.3801463 -0.607034E-07  0.700E-04    6.75      13.3  T
   4   -123.3801464 -0.138744E-07  0.342E-04    6.75      27.2  T
     SCC iter.                  ...        0 min,  0.032 sec
     gradient                   ...        0 min,  0.051 sec
 * total energy  :  -121.6007994 Eh     change       -0.1519291E-03 Eh
   gradient norm :     0.0027179 Eh/α   predicted    -0.1212426E-03 ( -20.20%)
   displ. norm   :     0.6177567 α      lambda       -0.1829674E-03
   maximum displ.:     0.3020240 α      in ANC's #4, #2, #1, ...

........................................................................
.............................. CYCLE   18 ..............................
........................................................................

 iter      E             dE          RMSdq      gap      omega  full diag
   1   -123.3807236 -0.123381E+03  0.321E-02    6.75       0.0  T
   2   -123.3807239 -0.276729E-06  0.190E-02    6.75       1.0  T
   3   -123.3807240 -0.619143E-07  0.722E-04    6.75      12.9  T
   4   -123.3807240 -0.161994E-07  0.354E-04    6.75      26.2  T
     SCC iter.                  ...        0 min,  0.029 sec
     gradient                   ...        0 min,  0.051 sec
 * total energy  :  -121.6009591 Eh     change       -0.1597198E-03 Eh
   gradient norm :     0.0020092 Eh/α   predicted    -0.1263997E-03 ( -20.86%)
   displ. norm   :     0.6521550 α      lambda       -0.2020575E-03
   maximum displ.:     0.3178252 α      in ANC's #4, #2, #1, ...

........................................................................
.............................. CYCLE   19 ..............................
........................................................................

 iter      E             dE          RMSdq      gap      omega  full diag
   1   -123.3813629 -0.123381E+03  0.339E-02    6.75       0.0  T
   2   -123.3813632 -0.282350E-06  0.201E-02    6.75       1.0  T
   3   -123.3813633 -0.700113E-07  0.758E-04    6.75      12.2  T
   4   -123.3813633 -0.176246E-07  0.377E-04    6.75      24.6  T
     SCC iter.                  ...        0 min,  0.034 sec
     gradient                   ...        0 min,  0.054 sec
 * total energy  :  -121.6011354 Eh     change       -0.1762730E-03 Eh
   gradient norm :     0.0022824 Eh/α   predicted    -0.1439972E-03 ( -18.31%)
   displ. norm   :     0.6765205 α      lambda       -0.2075990E-03
   maximum displ.:     0.3284663 α      in ANC's #4, #2, #1, ...

........................................................................
.............................. CYCLE   20 ..............................
........................................................................

 iter      E             dE          RMSdq      gap      omega  full diag
   1   -123.3816181 -0.123382E+03  0.350E-02    6.75       0.0  T
   2   -123.3816184 -0.286896E-06  0.207E-02    6.75       1.0  T
   3   -123.3816185 -0.816659E-07  0.740E-04    6.75      12.5  T
   4   -123.3816185 -0.123366E-07  0.384E-04    6.75      24.2  T
     SCC iter.                  ...        0 min,  0.030 sec
     gradient                   ...        0 min,  0.051 sec
 * total energy  :  -121.6013141 Eh     change       -0.1786810E-03 Eh
   gradient norm :     0.0030252 Eh/α   predicted    -0.1513087E-03 ( -15.32%)
   displ. norm   :     0.6750601 α      lambda       -0.1937034E-03
   maximum displ.:     0.3279939 α      in ANC's #4, #2, #1, ...
 * RMSD in coord.:     0.6867300 α      energy gain  -0.1354237E-01 Eh

generating ANC from exact Hessian ...
Using Lindh-Hessian (1995)
 Shifting diagonal of input Hessian by    9.9942465988554739E-003
 Lowest  eigenvalues of input Hessian
    0.000000    0.000000    0.000000    0.000000    0.000000    0.000000
    0.010000    0.010005    0.010005    0.010072    0.010087    0.010102
    0.010272    0.010293    0.010373    0.010383    0.010402    0.010483
 Highest eigenvalues
    1.296364    1.297436    1.298166    1.404335    1.417149    1.437199


........................................................................
.............................. CYCLE   21 ..............................
........................................................................

 iter      E             dE          RMSdq      gap      omega  full diag
   1   -123.3816582 -0.123382E+03  0.346E-02    6.76       0.0  T
   2   -123.3816585 -0.297315E-06  0.205E-02    6.76       1.0  T
   3   -123.3816585 -0.804597E-07  0.733E-04    6.76      12.7  T
   4   -123.3816586 -0.124231E-07  0.381E-04    6.76      24.4  T
     SCC iter.                  ...        0 min,  0.032 sec
     gradient                   ...        0 min,  0.051 sec
 * total energy  :  -121.6014795 Eh     change       -0.1654323E-03 Eh
   gradient norm :     0.0030342 Eh/α   predicted     0.0000000E+00 (-100.00%)
   displ. norm   :     0.0482439 α      lambda       -0.4474333E-04
   maximum displ.:     0.0154500 α      in ANC's #26, #27, #4, ...

........................................................................
.............................. CYCLE   22 ..............................
........................................................................

 iter      E             dE          RMSdq      gap      omega  full diag
   1   -123.3825714 -0.123383E+03  0.468E-03    6.76       0.0  T
   2   -123.3825714 -0.747367E-07  0.273E-03    6.76       3.4  T
   3   -123.3825714 -0.539728E-09  0.486E-04    6.76      19.1  T
   4   -123.3825714 -0.702765E-08  0.108E-04    6.76      86.1  T
     SCC iter.                  ...        0 min,  0.029 sec
     gradient                   ...        0 min,  0.051 sec
 * total energy  :  -121.6015172 Eh     change       -0.3765564E-04 Eh
   gradient norm :     0.0014722 Eh/α   predicted    -0.2243100E-04 ( -40.43%)
   displ. norm   :     0.2430430 α      lambda       -0.9722621E-04
   maximum displ.:     0.0750683 α      in ANC's #26, #4, #10, ...

........................................................................
.............................. CYCLE   23 ..............................
........................................................................

 iter      E             dE          RMSdq      gap      omega  full diag
   1   -123.3839643 -0.123384E+03  0.182E-02    6.76       0.0  T
   2   -123.3839650 -0.667877E-06  0.107E-02    6.76       1.0  T
   3   -123.3839650  0.979909E-09  0.138E-03    6.76       6.7  T
   4   -123.3839650 -0.821909E-07  0.356E-04    6.76      26.1  T
   5   -123.3839650 -0.100603E-08  0.113E-04    6.76      82.1  T
     SCC iter.                  ...        0 min,  0.042 sec
     gradient                   ...        0 min,  0.051 sec
 * total energy  :  -121.6015849 Eh     change       -0.6770625E-04 Eh
   gradient norm :     0.0037016 Eh/α   predicted    -0.4988990E-04 ( -26.31%)
   displ. norm   :     0.0541461 α      lambda       -0.2810487E-04
   maximum displ.:     0.0192161 α      in ANC's #4, #10, #2, ...

........................................................................
.............................. CYCLE   24 ..............................
........................................................................

 iter      E             dE          RMSdq      gap      omega  full diag
   1   -123.3835388 -0.123384E+03  0.347E-03    6.77       0.0  T
   2   -123.3835389 -0.231588E-07  0.203E-03    6.76       4.6  T
   3   -123.3835389 -0.760437E-09  0.224E-04    6.76      41.5  T
   4   -123.3835389 -0.172038E-08  0.651E-05    6.76     142.7  T
     SCC iter.                  ...        0 min,  0.033 sec
     gradient                   ...        0 min,  0.051 sec
 * total energy  :  -121.6016109 Eh     change       -0.2603297E-04 Eh
   gradient norm :     0.0027538 Eh/α   predicted    -0.1409397E-04 ( -45.86%)
   displ. norm   :     0.3058119 α      lambda       -0.1319724E-03
   maximum displ.:     0.1087651 α      in ANC's #4, #10, #2, ...

........................................................................
.............................. CYCLE   25 ..............................
........................................................................

 iter      E             dE          RMSdq      gap      omega  full diag
   1   -123.3818458 -0.123382E+03  0.181E-02    6.77       0.0  T
   2   -123.3818463 -0.470303E-06  0.107E-02    6.77       1.0  T
   3   -123.3818463 -0.119411E-07  0.992E-04    6.77       9.4  T
   4   -123.3818463 -0.432995E-07  0.296E-04    6.77      31.3  T
     SCC iter.                  ...        0 min,  0.032 sec
     gradient                   ...        0 min,  0.051 sec
 * total energy  :  -121.6017018 Eh     change       -0.9088393E-04 Eh
   gradient norm :     0.0018801 Eh/α   predicted    -0.7228278E-04 ( -20.47%)
   displ. norm   :     0.3944930 α      lambda       -0.5831502E-04
   maximum displ.:     0.1448663 α      in ANC's #4, #10, #2, ...

........................................................................
.............................. CYCLE   26 ..............................
........................................................................

 iter      E             dE          RMSdq      gap      omega  full diag
   1   -123.3806962 -0.123381E+03  0.215E-02    6.77       0.0  T
   2   -123.3806965 -0.242001E-06  0.127E-02    6.77       1.0  T
   3   -123.3806965 -0.274038E-07  0.652E-04    6.77      14.2  T
   4   -123.3806965 -0.199673E-07  0.276E-04    6.77      33.6  T
     SCC iter.                  ...        0 min,  0.032 sec
     gradient                   ...        0 min,  0.051 sec
 * total energy  :  -121.6017606 Eh     change       -0.5882524E-04 Eh
   gradient norm :     0.0040068 Eh/α   predicted    -0.3123706E-04 ( -46.90%)
   displ. norm   :     0.2011029 α      lambda       -0.5373799E-04
   maximum displ.:     0.0776846 α      in ANC's #4, #10, #2, ...

........................................................................
.............................. CYCLE   27 ..............................
........................................................................

 iter      E             dE          RMSdq      gap      omega  full diag
   1   -123.3813671 -0.123381E+03  0.104E-02    6.76       0.0  T
   2   -123.3813671 -0.410142E-07  0.615E-03    6.76       1.5  T
   3   -123.3813672 -0.732534E-08  0.238E-04    6.76      39.0  T
   4   -123.3813672 -0.162473E-08  0.118E-04    6.76      78.9  T
     SCC iter.                  ...        0 min,  0.032 sec
     gradient                   ...        0 min,  0.051 sec
 * total energy  :  -121.6018097 Eh     change       -0.4904312E-04 Eh
   gradient norm :     0.0032498 Eh/α   predicted    -0.2795611E-04 ( -43.00%)
   displ. norm   :     0.4457296 α      lambda       -0.1364183E-03
   maximum displ.:     0.1763909 α      in ANC's #4, #10, #2, ...

........................................................................
.............................. CYCLE   28 ..............................
........................................................................

 iter      E             dE          RMSdq      gap      omega  full diag
   1   -123.3828642 -0.123383E+03  0.233E-02    6.75       0.0  T
   2   -123.3828645 -0.296777E-06  0.138E-02    6.75       1.0  T
   3   -123.3828645 -0.338589E-07  0.639E-04    6.75      14.5  T
   4   -123.3828645 -0.155256E-07  0.279E-04    6.75      33.2  T
     SCC iter.                  ...        0 min,  0.081 sec
     gradient                   ...        0 min,  0.063 sec
 * total energy  :  -121.6019195 Eh     change       -0.1098405E-03 Eh
   gradient norm :     0.0011570 Eh/α   predicted    -0.8180800E-04 ( -25.52%)
   displ. norm   :     0.7677336 α      lambda       -0.1136785E-03
   maximum displ.:     0.3095354 α      in ANC's #4, #10, #2, ...

........................................................................
.............................. CYCLE   29 ..............................
........................................................................

 iter      E             dE          RMSdq      gap      omega  full diag
   1   -123.3824277 -0.123382E+03  0.402E-02    6.74       0.0  T
   2   -123.3824283 -0.620193E-06  0.237E-02    6.74       1.0  T
   3   -123.3824284 -0.107470E-06  0.911E-04    6.74      10.2  T
   4   -123.3824285 -0.250160E-07  0.447E-04    6.74      20.8  T
     SCC iter.                  ...        0 min,  0.032 sec
     gradient                   ...        0 min,  0.051 sec
 * total energy  :  -121.6020384 Eh     change       -0.1188442E-03 Eh
   gradient norm :     0.0028780 Eh/α   predicted    -0.7173018E-04 ( -39.64%)
   displ. norm   :     0.3235445 α      lambda       -0.6190809E-04
   maximum displ.:     0.1346618 α      in ANC's #4, #10, #2, ...

........................................................................
.............................. CYCLE   30 ..............................
........................................................................

 iter      E             dE          RMSdq      gap      omega  full diag
   1   -123.3828117 -0.123383E+03  0.169E-02    6.74       0.0  T
   2   -123.3828118 -0.640712E-07  0.100E-02    6.74       1.0  T
   3   -123.3828118 -0.201607E-07  0.335E-04    6.74      27.7  T
   4   -123.3828118 -0.178166E-08  0.180E-04    6.74      51.7  T
     SCC iter.                  ...        0 min,  0.033 sec
     gradient                   ...        0 min,  0.051 sec
 * total energy  :  -121.6020935 Eh     change       -0.5514232E-04 Eh
   gradient norm :     0.0023699 Eh/α   predicted    -0.3419570E-04 ( -37.99%)
   displ. norm   :     0.4378786 α      lambda       -0.1010775E-03
   maximum displ.:     0.1858687 α      in ANC's #4, #2, #10, ...

........................................................................
.............................. CYCLE   31 ..............................
........................................................................

 iter      E             dE          RMSdq      gap      omega  full diag
   1   -123.3835554 -0.123384E+03  0.237E-02    6.75       0.0  T
   2   -123.3835555 -0.160596E-06  0.140E-02    6.75       1.0  T
   3   -123.3835556 -0.386988E-07  0.527E-04    6.75      17.6  T
   4   -123.3835556 -0.735325E-08  0.270E-04    6.75      34.4  T
     SCC iter.                  ...        0 min,  0.032 sec
     gradient                   ...        0 min,  0.051 sec
 * total energy  :  -121.6021793 Eh     change       -0.8580847E-04 Eh
   gradient norm :     0.0012525 Eh/α   predicted    -0.6023182E-04 ( -29.81%)
   displ. norm   :     0.7765500 α      lambda       -0.1097091E-03
   maximum displ.:     0.3332094 α      in ANC's #4, #2, #10, ...

........................................................................
.............................. CYCLE   32 ..............................
........................................................................

 iter      E             dE          RMSdq      gap      omega  full diag
   1   -123.3820004 -0.123382E+03  0.425E-02    6.77       0.0  T
   2   -123.3820009 -0.483537E-06  0.251E-02    6.77       1.0  T
   3   -123.3820010 -0.129546E-06  0.928E-04    6.77      10.0  T
   4   -123.3820010 -0.200129E-07  0.483E-04    6.77      19.2  T
     SCC iter.                  ...        0 min,  0.032 sec
     gradient                   ...        0 min,  0.054 sec
 * total energy  :  -121.6023010 Eh     change       -0.1217286E-03 Eh
   gradient norm :     0.0026134 Eh/α   predicted    -0.6955811E-04 ( -42.86%)
   displ. norm   :     0.3619268 α      lambda       -0.7879605E-04
   maximum displ.:     0.1565683 α      in ANC's #2, #4, #10, ...

........................................................................
.............................. CYCLE   33 ..............................
........................................................................

 iter      E             dE          RMSdq      gap      omega  full diag
   1   -123.3826223 -0.123383E+03  0.197E-02    6.77       0.0  T
   2   -123.3826224 -0.826764E-07  0.116E-02    6.77       1.0  T
   3   -123.3826224 -0.263499E-07  0.419E-04    6.77      22.2  T
   4   -123.3826224 -0.354839E-08  0.221E-04    6.77      42.1  T
     SCC iter.                  ...        0 min,  0.032 sec
     gradient                   ...        0 min,  0.051 sec
 * total energy  :  -121.6023702 Eh     change       -0.6911206E-04 Eh
   gradient norm :     0.0027259 Eh/α   predicted    -0.4455942E-04 ( -35.53%)
   displ. norm   :     0.5377992 α      lambda       -0.1319736E-03
   maximum displ.:     0.2332373 α      in ANC's #2, #4, #10, ...

........................................................................
.............................. CYCLE   34 ..............................
........................................................................

 iter      E             dE          RMSdq      gap      omega  full diag
   1   -123.3823716 -0.123382E+03  0.293E-02    6.76       0.0  T
   2   -123.3823718 -0.198231E-06  0.173E-02    6.76       1.0  T
   3   -123.3823718 -0.591751E-07  0.603E-04    6.76      15.4  T
   4   -123.3823718 -0.691846E-08  0.319E-04    6.76      29.1  T
     SCC iter.                  ...        0 min,  0.032 sec
     gradient                   ...        0 min,  0.051 sec
 * total energy  :  -121.6024846 Eh     change       -0.1144001E-03 Eh
   gradient norm :     0.0023740 Eh/α   predicted    -0.8507261E-04 ( -25.64%)
   displ. norm   :     0.6028657 α      lambda       -0.1564862E-03
   maximum displ.:     0.2614854 α      in ANC's #2, #4, #1, ...

........................................................................
.............................. CYCLE   35 ..............................
........................................................................

 iter      E             dE          RMSdq      gap      omega  full diag
   1   -123.3820031 -0.123382E+03  0.326E-02    6.75       0.0  T
   2   -123.3820034 -0.328041E-06  0.193E-02    6.75       1.0  T
   3   -123.3820035 -0.676661E-07  0.728E-04    6.75      12.8  T
   4   -123.3820035 -0.157335E-07  0.363E-04    6.75      25.6  T
     SCC iter.                  ...        0 min,  0.032 sec
     gradient                   ...        0 min,  0.051 sec
 * total energy  :  -121.6026145 Eh     change       -0.1299230E-03 Eh
   gradient norm :     0.0017722 Eh/α   predicted    -0.1066809E-03 ( -17.89%)
   displ. norm   :     0.8851265 α      lambda       -0.1387772E-03
   maximum displ.:     0.3889832 α      in ANC's #2, #4, #1, ...

........................................................................
.............................. CYCLE   36 ..............................
........................................................................

 iter      E             dE          RMSdq      gap      omega  full diag
   1   -123.3798201 -0.123380E+03  0.467E-02    6.73       0.0  T
   2   -123.3798209 -0.801529E-06  0.276E-02    6.73       1.0  T
   3   -123.3798211 -0.137320E-06  0.109E-03    6.73       8.5  T
   4   -123.3798211 -0.404354E-07  0.525E-04    6.73      17.7  T
   5   -123.3798211 -0.945775E-09  0.177E-04    6.73      52.3  T
     SCC iter.                  ...        0 min,  0.039 sec
     gradient                   ...        0 min,  0.051 sec
 * total energy  :  -121.6027640 Eh     change       -0.1495104E-03 Eh
   gradient norm :     0.0027644 Eh/α   predicted    -0.9355565E-04 ( -37.43%)
   displ. norm   :     0.3605642 α      lambda       -0.9601023E-04
   maximum displ.:     0.1609388 α      in ANC's #2, #1, #4, ...

........................................................................
.............................. CYCLE   37 ..............................
........................................................................

 iter      E             dE          RMSdq      gap      omega  full diag
   1   -123.3822142 -0.123382E+03  0.183E-02    6.73       0.0  T
   2   -123.3822143 -0.153441E-06  0.108E-02    6.73       1.0  T
   3   -123.3822143 -0.224601E-07  0.494E-04    6.73      18.8  T
   4   -123.3822143 -0.823846E-08  0.229E-04    6.73      40.5  T
     SCC iter.                  ...        0 min,  0.034 sec
     gradient                   ...        0 min,  0.055 sec
 * total energy  :  -121.6028424 Eh     change       -0.7846028E-04 Eh
   gradient norm :     0.0023062 Eh/α   predicted    -0.5424627E-04 ( -30.86%)
   displ. norm   :     0.6206621 α      lambda       -0.1529120E-03
   maximum displ.:     0.2849934 α      in ANC's #2, #1, #4, ...

........................................................................
.............................. CYCLE   38 ..............................
........................................................................

 iter      E             dE          RMSdq      gap      omega  full diag
   1   -123.3810822 -0.123381E+03  0.309E-02    6.74       0.0  T
   2   -123.3810825 -0.271620E-06  0.183E-02    6.74       1.0  T
   3   -123.3810825 -0.739782E-07  0.653E-04    6.74      14.2  T
   4   -123.3810825 -0.658252E-08  0.345E-04    6.74      26.9  T
     SCC iter.                  ...        0 min,  0.032 sec
     gradient                   ...        0 min,  0.052 sec
 * total energy  :  -121.6029697 Eh     change       -0.1272779E-03 Eh
   gradient norm :     0.0026359 Eh/α   predicted    -0.1059125E-03 ( -16.79%)
   displ. norm   :     0.5482333 α      lambda       -0.1718947E-03
   maximum displ.:     0.2515012 α      in ANC's #2, #1, #4, ...

........................................................................
.............................. CYCLE   39 ..............................
........................................................................

 iter      E             dE          RMSdq      gap      omega  full diag
   1   -123.3834252 -0.123383E+03  0.274E-02    6.76       0.0  T
   2   -123.3834254 -0.286527E-06  0.162E-02    6.76       1.0  T
   3   -123.3834255 -0.581038E-07  0.696E-04    6.76      13.3  T
   4   -123.3834255 -0.127740E-07  0.345E-04    6.76      26.9  T
     SCC iter.                  ...        0 min,  0.032 sec
     gradient                   ...        0 min,  0.051 sec
 * total energy  :  -121.6030984 Eh     change       -0.1286569E-03 Eh
   gradient norm :     0.0023013 Eh/α   predicted    -0.1117837E-03 ( -13.11%)
   displ. norm   :     0.6205411 α      lambda       -0.1232569E-03
   maximum displ.:     0.2920887 α      in ANC's #2, #1, #4, ...

........................................................................
.............................. CYCLE   40 ..............................
........................................................................

 iter      E             dE          RMSdq      gap      omega  full diag
   1   -123.3807115 -0.123381E+03  0.306E-02    6.77       0.0  T
   2   -123.3807118 -0.251908E-06  0.181E-02    6.77       1.0  T
   3   -123.3807118 -0.740035E-07  0.669E-04    6.77      13.9  T
   4   -123.3807118 -0.828808E-08  0.356E-04    6.77      26.1  T
     SCC iter.                  ...        0 min,  0.033 sec
     gradient                   ...        0 min,  0.052 sec
 * total energy  :  -121.6031918 Eh     change       -0.9346305E-04 Eh
   gradient norm :     0.0030196 Eh/α   predicted    -0.8536015E-04 (  -8.67%)
   displ. norm   :     0.4588531 α      lambda       -0.1132444E-03
   maximum displ.:     0.2183000 α      in ANC's #2, #1, #4, ...

........................................................................
.............................. CYCLE   41 ..............................
........................................................................

 iter      E             dE          RMSdq      gap      omega  full diag
   1   -123.3826716 -0.123383E+03  0.227E-02    6.78       0.0  T
   2   -123.3826719 -0.254317E-06  0.134E-02    6.78       1.0  T
   3   -123.3826719 -0.354453E-07  0.647E-04    6.78      14.4  T
   4   -123.3826719 -0.158946E-07  0.292E-04    6.78      31.8  T
     SCC iter.                  ...        0 min,  0.032 sec
     gradient                   ...        0 min,  0.052 sec
 * total energy  :  -121.6032726 Eh     change       -0.8074422E-04 Eh
   gradient norm :     0.0025264 Eh/α   predicted    -0.6854817E-04 ( -15.10%)
   displ. norm   :     0.5390872 α      lambda       -0.9281862E-04
   maximum displ.:     0.2620924 α      in ANC's #2, #1, #4, ...

........................................................................
.............................. CYCLE   42 ..............................
........................................................................

 iter      E             dE          RMSdq      gap      omega  full diag
   1   -123.3811174 -0.123381E+03  0.262E-02    6.77       0.0  T
   2   -123.3811175 -0.169879E-06  0.155E-02    6.77       1.0  T
   3   -123.3811176 -0.461558E-07  0.555E-04    6.77      16.7  T
   4   -123.3811176 -0.880472E-08  0.285E-04    6.77      32.5  T
     SCC iter.                  ...        0 min,  0.065 sec
     gradient                   ...        0 min,  0.056 sec
 * total energy  :  -121.6033496 Eh     change       -0.7698291E-04 Eh
   gradient norm :     0.0030310 Eh/α   predicted    -0.5990026E-04 ( -22.19%)
   displ. norm   :     0.4902898 α      lambda       -0.1314444E-03
   maximum displ.:     0.2437898 α      in ANC's #2, #1, #4, ...
 * RMSD in coord.:     0.8420826 α      energy gain  -0.2035474E-02 Eh

generating ANC from exact Hessian ...
Using Lindh-Hessian (1995)
 Shifting diagonal of input Hessian by    9.9928765697957205E-003
 Lowest  eigenvalues of input Hessian
    0.000000    0.000000    0.000000    0.000000    0.000000    0.000000
    0.010000    0.010002    0.010004    0.010076    0.010086    0.010099
    0.010290    0.010306    0.010371    0.010381    0.010393    0.010486
 Highest eigenvalues
    1.296287    1.297067    1.297990    1.404557    1.414643    1.433634


........................................................................
.............................. CYCLE   43 ..............................
........................................................................

 iter      E             dE          RMSdq      gap      omega  full diag
   1   -123.3843147 -0.123384E+03  0.242E-02    6.77       0.0  T
   2   -123.3843151 -0.382697E-06  0.143E-02    6.77       1.0  T
   3   -123.3843151 -0.306190E-07  0.824E-04    6.77      11.3  T
   4   -123.3843151 -0.318944E-07  0.318E-04    6.77      29.2  T
     SCC iter.                  ...        0 min,  0.032 sec
     gradient                   ...        0 min,  0.051 sec
 * total energy  :  -121.6034411 Eh     change       -0.9150768E-04 Eh
   gradient norm :     0.0027448 Eh/α   predicted     0.0000000E+00 (-100.00%)
   displ. norm   :     0.0384475 α      lambda       -0.3412917E-04
   maximum displ.:     0.0106471 α      in ANC's #2, #29, #20, ...

........................................................................
.............................. CYCLE   44 ..............................
........................................................................

 iter      E             dE          RMSdq      gap      omega  full diag
   1   -123.3848440 -0.123385E+03  0.461E-03    6.77       0.0  T
   2   -123.3848440 -0.660628E-07  0.267E-03    6.77       3.5  T
   3   -123.3848440 -0.199869E-08  0.460E-04    6.77      20.2  T
   4   -123.3848440 -0.554566E-08  0.110E-04    6.77      84.4  T
     SCC iter.                  ...        0 min,  0.032 sec
     gradient                   ...        0 min,  0.051 sec
 * total energy  :  -121.6034683 Eh     change       -0.2723724E-04 Eh
   gradient norm :     0.0010540 Eh/α   predicted    -0.1711035E-04 ( -37.18%)
   displ. norm   :     0.1457247 α      lambda       -0.4513930E-04
   maximum displ.:     0.0460863 α      in ANC's #2, #18, #20, ...

........................................................................
.............................. CYCLE   45 ..............................
........................................................................

 iter      E             dE          RMSdq      gap      omega  full diag
   1   -123.3855077 -0.123386E+03  0.119E-02    6.78       0.0  T
   2   -123.3855080 -0.298305E-06  0.698E-03    6.78       1.3  T
   3   -123.3855080 -0.819841E-08  0.908E-04    6.78      10.2  T
   4   -123.3855080 -0.300981E-07  0.255E-04    6.78      36.4  T
     SCC iter.                  ...        0 min,  0.032 sec
     gradient                   ...        0 min,  0.053 sec
 * total energy  :  -121.6035017 Eh     change       -0.3333805E-04 Eh
   gradient norm :     0.0026018 Eh/α   predicted    -0.2437672E-04 ( -26.88%)
   displ. norm   :     0.0320755 α      lambda       -0.1312098E-04
   maximum displ.:     0.0136255 α      in ANC's #2, #10, #18, ...

........................................................................
.............................. CYCLE   46 ..............................
........................................................................

 iter      E             dE          RMSdq      gap      omega  full diag
   1   -123.3852768 -0.123385E+03  0.237E-03    6.78       0.0  T
   2   -123.3852768 -0.111161E-07  0.138E-03    6.78       6.7  T
   3   -123.3852768 -0.716938E-09  0.168E-04    6.78      55.4  T
   4   -123.3852768 -0.634458E-09  0.499E-05    6.78     186.0  T
     SCC iter.                  ...        0 min,  0.032 sec
     gradient                   ...        0 min,  0.060 sec
 * total energy  :  -121.6035134 Eh     change       -0.1172584E-04 Eh
   gradient norm :     0.0017167 Eh/α   predicted    -0.6567341E-05 ( -43.99%)
   displ. norm   :     0.2256182 α      lambda       -0.4497469E-04
   maximum displ.:     0.0954841 α      in ANC's #2, #10, #18, ...

........................................................................
.............................. CYCLE   47 ..............................
........................................................................

 iter      E             dE          RMSdq      gap      omega  full diag
   1   -123.3840092 -0.123384E+03  0.143E-02    6.77       0.0  T
   2   -123.3840095 -0.288668E-06  0.842E-03    6.77       1.1  T
   3   -123.3840095 -0.130726E-07  0.837E-04    6.77      11.1  T
   4   -123.3840096 -0.223803E-07  0.251E-04    6.77      37.1  T
     SCC iter.                  ...        0 min,  0.032 sec
     gradient                   ...        0 min,  0.051 sec
 * total energy  :  -121.6035451 Eh     change       -0.3169980E-04 Eh
   gradient norm :     0.0026105 Eh/α   predicted    -0.2299728E-04 ( -27.45%)
   displ. norm   :     0.0453458 α      lambda       -0.1183047E-04
   maximum displ.:     0.0217225 α      in ANC's #2, #10, #18, ...

........................................................................
.............................. CYCLE   48 ..............................
........................................................................

 iter      E             dE          RMSdq      gap      omega  full diag
   1   -123.3842541 -0.123384E+03  0.270E-03    6.77       0.0  T
   2   -123.3842542 -0.635397E-08  0.159E-03    6.77       5.8  T
   3   -123.3842542 -0.523102E-09  0.115E-04    6.77      80.9  T
   4   -123.3842542 -0.498858E-09  0.421E-05    6.77     220.8  T
     SCC iter.                  ...        0 min,  0.033 sec
     gradient                   ...        0 min,  0.051 sec
 * total energy  :  -121.6035561 Eh     change       -0.1104191E-04 Eh
   gradient norm :     0.0020200 Eh/α   predicted    -0.5939700E-05 ( -46.21%)
   displ. norm   :     0.2126084 α      lambda       -0.5288265E-04
   maximum displ.:     0.1007073 α      in ANC's #2, #10, #18, ...

........................................................................
.............................. CYCLE   49 ..............................
........................................................................

 iter      E             dE          RMSdq      gap      omega  full diag
   1   -123.3850733 -0.123385E+03  0.122E-02    6.77       0.0  T
   2   -123.3850734 -0.106499E-06  0.718E-03    6.77       1.3  T
   3   -123.3850734 -0.116579E-07  0.449E-04    6.77      20.7  T
   4   -123.3850734 -0.696990E-08  0.179E-04    6.77      51.8  T
     SCC iter.                  ...        0 min,  0.033 sec
     gradient                   ...        0 min,  0.051 sec
 * total energy  :  -121.6035943 Eh     change       -0.3822060E-04 Eh
   gradient norm :     0.0008098 Eh/α   predicted    -0.2763705E-04 ( -27.69%)
   displ. norm   :     0.3545423 α      lambda       -0.3100666E-04
   maximum displ.:     0.1698904 α      in ANC's #2, #10, #1, ...

........................................................................
.............................. CYCLE   50 ..............................
........................................................................

 iter      E             dE          RMSdq      gap      omega  full diag
   1   -123.3848849 -0.123385E+03  0.188E-02    6.76       0.0  T
   2   -123.3848850 -0.120370E-06  0.112E-02    6.77       1.0  T
   3   -123.3848850 -0.223908E-07  0.472E-04    6.77      19.7  T
   4   -123.3848850 -0.820658E-08  0.222E-04    6.77      41.7  T
     SCC iter.                  ...        0 min,  0.036 sec
     gradient                   ...        0 min,  0.051 sec
 * total energy  :  -121.6036249 Eh     change       -0.3053544E-04 Eh
   gradient norm :     0.0025042 Eh/α   predicted    -0.1637312E-04 ( -46.38%)
   displ. norm   :     0.1421406 α      lambda       -0.1947069E-04
   maximum displ.:     0.0710712 α      in ANC's #2, #10, #1, ...

........................................................................
.............................. CYCLE   51 ..............................
........................................................................

 iter      E             dE          RMSdq      gap      omega  full diag
   1   -123.3848643 -0.123385E+03  0.727E-03    6.76       0.0  T
   2   -123.3848643 -0.137588E-07  0.431E-03    6.76       2.2  T
   3   -123.3848643 -0.360946E-08  0.161E-04    6.76      57.6  T
   4   -123.3848643 -0.665040E-09  0.831E-05    6.76     111.7  T
     SCC iter.                  ...        0 min,  0.033 sec
     gradient                   ...        0 min,  0.051 sec
 * total energy  :  -121.6036425 Eh     change       -0.1761981E-04 Eh
   gradient norm :     0.0019374 Eh/α   predicted    -0.9936170E-05 ( -43.61%)
   displ. norm   :     0.3406615 α      lambda       -0.3797858E-04
   maximum displ.:     0.1756144 α      in ANC's #2, #10, #1, ...

........................................................................
.............................. CYCLE   52 ..............................
........................................................................

 iter      E             dE          RMSdq      gap      omega  full diag
   1   -123.3846278 -0.123385E+03  0.174E-02    6.76       0.0  T
   2   -123.3846279 -0.107336E-06  0.103E-02    6.76       1.0  T
   3   -123.3846279 -0.226729E-07  0.462E-04    6.76      20.1  T
   4   -123.3846279 -0.666940E-08  0.222E-04    6.76      41.8  T
     SCC iter.                  ...        0 min,  0.032 sec
     gradient                   ...        0 min,  0.051 sec
 * total energy  :  -121.6036834 Eh     change       -0.4094203E-04 Eh
   gradient norm :     0.0007021 Eh/α   predicted    -0.1996993E-04 ( -51.22%)
   displ. norm   :     0.2731333 α      lambda       -0.2056389E-04
   maximum displ.:     0.1456597 α      in ANC's #2, #10, #1, ...

........................................................................
.............................. CYCLE   53 ..............................
........................................................................

 iter      E             dE          RMSdq      gap      omega  full diag
   1   -123.3841229 -0.123384E+03  0.136E-02    6.76       0.0  T
   2   -123.3841229 -0.435705E-07  0.805E-03    6.76       1.2  T
   3   -123.3841229 -0.128213E-07  0.286E-04    6.76      32.5  T
   4   -123.3841229 -0.193668E-08  0.151E-04    6.76      61.4  T
     SCC iter.                  ...        0 min,  0.032 sec
     gradient                   ...        0 min,  0.051 sec
 * total energy  :  -121.6037090 Eh     change       -0.2555090E-04 Eh
   gradient norm :     0.0011929 Eh/α   predicted    -0.1062567E-04 ( -58.41%)
   displ. norm   :     0.2608220 α      lambda       -0.2307812E-04
   maximum displ.:     0.1429828 α      in ANC's #2, #10, #1, ...

........................................................................
.............................. CYCLE   54 ..............................
........................................................................

 iter      E             dE          RMSdq      gap      omega  full diag
   1   -123.3844161 -0.123384E+03  0.128E-02    6.76       0.0  T
   2   -123.3844161 -0.365027E-07  0.758E-03    6.76       1.2  T
   3   -123.3844161 -0.116449E-07  0.257E-04    6.76      36.1  T
   4   -123.3844161 -0.111589E-08  0.140E-04    6.76      66.2  T
     SCC iter.                  ...        0 min,  0.032 sec
     gradient                   ...        0 min,  0.052 sec
 * total energy  :  -121.6037392 Eh     change       -0.3016866E-04 Eh
   gradient norm :     0.0011559 Eh/α   predicted    -0.1188846E-04 ( -60.59%)
   displ. norm   :     0.3851942 α      lambda       -0.3574205E-04
   maximum displ.:     0.2120278 α      in ANC's #2, #10, #1, ...

........................................................................
.............................. CYCLE   55 ..............................
........................................................................

 iter      E             dE          RMSdq      gap      omega  full diag
   1   -123.3839780 -0.123384E+03  0.191E-02    6.76       0.0  T
   2   -123.3839781 -0.804953E-07  0.113E-02    6.76       1.0  T
   3   -123.3839781 -0.259401E-07  0.372E-04    6.76      25.0  T
   4   -123.3839781 -0.185288E-08  0.204E-04    6.76      45.5  T
     SCC iter.                  ...        0 min,  0.035 sec
     gradient                   ...        0 min,  0.052 sec
 * total energy  :  -121.6037851 Eh     change       -0.4594843E-04 Eh
   gradient norm :     0.0009180 Eh/α   predicted    -0.1904961E-04 ( -58.54%)
   displ. norm   :     0.5167974 α      lambda       -0.4606549E-04
   maximum displ.:     0.2863331 α      in ANC's #2, #10, #1, ...

........................................................................
.............................. CYCLE   56 ..............................
........................................................................

 iter      E             dE          RMSdq      gap      omega  full diag
   1   -123.3837379 -0.123384E+03  0.255E-02    6.75       0.0  T
   2   -123.3837381 -0.132689E-06  0.151E-02    6.75       1.0  T
   3   -123.3837381 -0.452392E-07  0.494E-04    6.75      18.8  T
   4   -123.3837381 -0.340124E-08  0.272E-04    6.75      34.1  T
     SCC iter.                  ...        0 min,  0.033 sec
     gradient                   ...        0 min,  0.051 sec
 * total energy  :  -121.6038423 Eh     change       -0.5723630E-04 Eh
   gradient norm :     0.0010614 Eh/α   predicted    -0.2576827E-04 ( -54.98%)
   displ. norm   :     0.5807815 α      lambda       -0.4845634E-04
   maximum displ.:     0.3245758 α      in ANC's #2, #10, #1, ...

........................................................................
.............................. CYCLE   57 ..............................
........................................................................

 iter      E             dE          RMSdq      gap      omega  full diag
   1   -123.3834764 -0.123383E+03  0.290E-02    6.75       0.0  T
   2   -123.3834766 -0.166890E-06  0.172E-02    6.75       1.0  T
   3   -123.3834766 -0.559642E-07  0.572E-04    6.75      16.2  T
   4   -123.3834766 -0.639956E-08  0.312E-04    6.75      29.8  T
     SCC iter.                  ...        0 min,  0.037 sec
     gradient                   ...        0 min,  0.051 sec
 * total energy  :  -121.6039019 Eh     change       -0.5955432E-04 Eh
   gradient norm :     0.0013725 Eh/α   predicted    -0.2786183E-04 ( -53.22%)
   displ. norm   :     0.6039755 α      lambda       -0.5112520E-04
   maximum displ.:     0.3414916 α      in ANC's #2, #10, #1, ...

........................................................................
.............................. CYCLE   58 ..............................
........................................................................

 iter      E             dE          RMSdq      gap      omega  full diag
   1   -123.3839900 -0.123384E+03  0.302E-02    6.75       0.0  T
   2   -123.3839902 -0.178917E-06  0.179E-02    6.75       1.0  T
   3   -123.3839903 -0.614996E-07  0.595E-04    6.75      15.6  T
   4   -123.3839903 -0.650863E-08  0.323E-04    6.75      28.7  T
     SCC iter.                  ...        0 min,  0.033 sec
     gradient                   ...        0 min,  0.051 sec
 * total energy  :  -121.6039641 Eh     change       -0.6223303E-04 Eh
   gradient norm :     0.0013047 Eh/α   predicted    -0.2970837E-04 ( -52.26%)
   displ. norm   :     0.6125546 α      lambda       -0.5101100E-04
   maximum displ.:     0.3510677 α      in ANC's #2, #10, #1, ...

........................................................................
.............................. CYCLE   59 ..............................
........................................................................

 iter      E             dE          RMSdq      gap      omega  full diag
   1   -123.3845250 -0.123385E+03  0.313E-02    6.75       0.0  T
   2   -123.3845252 -0.212247E-06  0.186E-02    6.75       1.0  T
   3   -123.3845253 -0.638080E-07  0.651E-04    6.75      14.3  T
   4   -123.3845253 -0.107659E-07  0.342E-04    6.75      27.1  T
     SCC iter.                  ...        0 min,  0.034 sec
     gradient                   ...        0 min,  0.051 sec
 * total energy  :  -121.6040250 Eh     change       -0.6086758E-04 Eh
   gradient norm :     0.0012409 Eh/α   predicted    -0.2976414E-04 ( -51.10%)
   displ. norm   :     0.5961947 α      lambda       -0.4601559E-04
   maximum displ.:     0.3469104 α      in ANC's #2, #10, #1, ...

........................................................................
.............................. CYCLE   60 ..............................
........................................................................

 iter      E             dE          RMSdq      gap      omega  full diag
   1   -123.3847994 -0.123385E+03  0.303E-02    6.76       0.0  T
   2   -123.3847996 -0.188880E-06  0.180E-02    6.76       1.0  T
   3   -123.3847997 -0.649963E-07  0.618E-04    6.76      15.0  T
   4   -123.3847997 -0.653299E-08  0.330E-04    6.76      28.1  T
     SCC iter.                  ...        0 min,  0.034 sec
     gradient                   ...        0 min,  0.051 sec
 * total energy  :  -121.6040779 Eh     change       -0.5287803E-04 Eh
   gradient norm :     0.0011497 Eh/α   predicted    -0.2664430E-04 ( -49.61%)
   displ. norm   :     0.5187430 α      lambda       -0.3543014E-04
   maximum displ.:     0.3074856 α      in ANC's #2, #10, #1, ...

........................................................................
.............................. CYCLE   61 ..............................
........................................................................

 iter      E             dE          RMSdq      gap      omega  full diag
   1   -123.3853083 -0.123385E+03  0.266E-02    6.76       0.0  T
   2   -123.3853085 -0.163452E-06  0.157E-02    6.76       1.0  T
   3   -123.3853085 -0.458612E-07  0.581E-04    6.76      16.0  T
   4   -123.3853085 -0.987717E-08  0.299E-04    6.76      31.1  T
     SCC iter.                  ...        0 min,  0.032 sec
     gradient                   ...        0 min,  0.051 sec
 * total energy  :  -121.6041184 Eh     change       -0.4047535E-04 Eh
   gradient norm :     0.0008844 Eh/α   predicted    -0.1983589E-04 ( -50.99%)
   displ. norm   :     0.4555974 α      lambda       -0.2671383E-04
   maximum displ.:     0.2734983 α      in ANC's #2, #10, #1, ...

........................................................................
.............................. CYCLE   62 ..............................
........................................................................

 iter      E             dE          RMSdq      gap      omega  full diag
   1   -123.3848160 -0.123385E+03  0.228E-02    6.76       0.0  T
   2   -123.3848161 -0.108623E-06  0.135E-02    6.76       1.0  T
   3   -123.3848162 -0.370763E-07  0.451E-04    6.76      20.6  T
   4   -123.3848162 -0.318174E-08  0.242E-04    6.76      38.3  T
     SCC iter.                  ...        0 min,  0.032 sec
     gradient                   ...        0 min,  0.052 sec
 * total energy  :  -121.6041506 Eh     change       -0.3222152E-04 Eh
   gradient norm :     0.0010126 Eh/α   predicted    -0.1458986E-04 ( -54.72%)
   displ. norm   :     0.3953113 α      lambda       -0.2879367E-04
   maximum displ.:     0.2435117 α      in ANC's #2, #10, #1, ...

........................................................................
.............................. CYCLE   63 ..............................
........................................................................

 iter      E             dE          RMSdq      gap      omega  full diag
   1   -123.3871667 -0.123387E+03  0.193E-02    6.75       0.0  T
   2   -123.3871669 -0.122731E-06  0.114E-02    6.75       1.0  T
   3   -123.3871669 -0.274625E-07  0.430E-04    6.76      21.6  T
   4   -123.3871669 -0.390483E-08  0.225E-04    6.76      41.3  T
     SCC iter.                  ...        0 min,  0.032 sec
     gradient                   ...        0 min,  0.051 sec
 * total energy  :  -121.6041811 Eh     change       -0.3052459E-04 Eh
   gradient norm :     0.0012792 Eh/α   predicted    -0.1539752E-04 ( -49.56%)
   displ. norm   :     0.5765956 α      lambda       -0.3671335E-04
   maximum displ.:     0.3472834 α      in ANC's #2, #10, #1, ...

........................................................................
.............................. CYCLE   64 ..............................
........................................................................

 iter      E             dE          RMSdq      gap      omega  full diag
   1   -123.3830312 -0.123383E+03  0.288E-02    6.75       0.0  T
   2   -123.3830316 -0.394073E-06  0.170E-02    6.75       1.0  T
   3   -123.3830316 -0.648649E-07  0.679E-04    6.75      13.7  T
   4   -123.3830316 -0.955384E-08  0.335E-04    6.75      27.7  T
     SCC iter.                  ...        0 min,  0.032 sec
     gradient                   ...        0 min,  0.051 sec
 * total energy  :  -121.6042136 Eh     change       -0.3245443E-04 Eh
   gradient norm :     0.0019552 Eh/α   predicted    -0.2107166E-04 ( -35.07%)
   displ. norm   :     0.2497855 α      lambda       -0.2356903E-04
   maximum displ.:     0.1561160 α      in ANC's #2, #1, #10, ...

........................................................................
.............................. CYCLE   65 ..............................
........................................................................

 iter      E             dE          RMSdq      gap      omega  full diag
   1   -123.3841729 -0.123384E+03  0.123E-02    6.75       0.0  T
   2   -123.3841729 -0.603409E-07  0.725E-03    6.75       1.3  T
   3   -123.3841730 -0.101883E-07  0.313E-04    6.75      29.7  T
   4   -123.3841730 -0.294767E-08  0.148E-04    6.75      62.8  T
     SCC iter.                  ...        0 min,  0.034 sec
     gradient                   ...        0 min,  0.052 sec
 * total energy  :  -121.6042417 Eh     change       -0.2817030E-04 Eh
   gradient norm :     0.0013895 Eh/α   predicted    -0.1211550E-04 ( -56.99%)
   displ. norm   :     0.4063864 α      lambda       -0.3905515E-04
   maximum displ.:     0.2545067 α      in ANC's #2, #1, #10, ...

........................................................................
.............................. CYCLE   66 ..............................
........................................................................

 iter      E             dE          RMSdq      gap      omega  full diag
   1   -123.3862487 -0.123386E+03  0.190E-02    6.74       0.0  T
   2   -123.3862489 -0.135810E-06  0.112E-02    6.74       1.0  T
   3   -123.3862489 -0.276210E-07  0.469E-04    6.74      19.8  T
   4   -123.3862489 -0.532437E-08  0.238E-04    6.74      39.0  T
     SCC iter.                  ...        0 min,  0.032 sec
     gradient                   ...        0 min,  0.052 sec
 * total energy  :  -121.6042823 Eh     change       -0.4061687E-04 Eh
   gradient norm :     0.0011473 Eh/α   predicted    -0.2096296E-04 ( -48.39%)
   displ. norm   :     0.5151962 α      lambda       -0.3030667E-04
   maximum displ.:     0.3241245 α      in ANC's #2, #1, #10, ...
 * RMSD in coord.:     0.7173021 α      energy gain  -0.9327687E-03 Eh

generating ANC from exact Hessian ...
Using Lindh-Hessian (1995)
 Shifting diagonal of input Hessian by    9.9926186609863767E-003
 Lowest  eigenvalues of input Hessian
    0.000000    0.000000    0.000000    0.000000    0.000000    0.000000
    0.010000    0.010002    0.010004    0.010077    0.010087    0.010100
    0.010292    0.010308    0.010364    0.010385    0.010389    0.010473
 Highest eigenvalues
    1.297350    1.298070    1.298634    1.404655    1.413205    1.433004


........................................................................
.............................. CYCLE   67 ..............................
........................................................................

 iter      E             dE          RMSdq      gap      omega  full diag
   1   -123.3851960 -0.123385E+03  0.246E-02    6.74       0.0  T
   2   -123.3851962 -0.178788E-06  0.145E-02    6.74       1.0  T
   3   -123.3851963 -0.421780E-07  0.536E-04    6.74      17.3  T
   4   -123.3851963 -0.683244E-08  0.275E-04    6.74      33.8  T
[...]
   109   1 H        0.924     0.029     2.597     2.520
   110   1 H        0.924     0.030     2.594     2.518
   111   1 H        0.925     0.035     2.510     2.477
   112   1 H        0.925     0.034     2.528     2.486
   113   1 H        0.925     0.034     2.534     2.489
   114   1 H        0.925     0.101     1.775     2.083
   115   1 H        0.925     0.092     1.862     2.134
   116   1 H        0.925     0.089     1.887     2.148

 Mol. C6AA /au·bohr⁶  :      88988.779471
 Mol. C8AA /au·bohr⁸  :    1877112.304239
 Mol. α(0) /au        :        442.812756


Wiberg/Mayer (AO) data.
largest (>0.10) Wiberg bond orders for each atom

 ---------------------------------------------------------------------------
     #   Z sym  total        # sym  WBO       # sym  WBO       # sym  WBO
 ---------------------------------------------------------------------------
     1   6 C    3.997 --     2 C    1.020    41 H    0.987    40 H    0.987
                            39 H    0.986
     2   6 C    3.998 --     1 C    1.020     3 C    1.008    43 H    0.978
                            42 H    0.976
     3   6 C    3.997 --     2 C    1.008     4 C    1.008    45 H    0.977
                            44 H    0.976
     4   6 C    3.997 --     5 C    1.008     3 C    1.008    46 H    0.975
                            47 H    0.975
     5   6 C    3.997 --     4 C    1.008     6 C    1.008    48 H    0.975
                            49 H    0.974
     6   6 C    3.997 --     5 C    1.008     7 C    1.007    50 H    0.975
                            51 H    0.974
     7   6 C    3.996 --     6 C    1.007     8 C    1.007    52 H    0.975
                            53 H    0.974
     8   6 C    3.996 --     7 C    1.007     9 C    1.007    54 H    0.976
                            55 H    0.973
     9   6 C    3.995 --    10 C    1.008     8 C    1.007    57 H    0.971
                            56 H    0.971
    10   6 C    3.992 --     9 C    1.008    11 C    1.004    58 H    0.974
                            59 H    0.971
    11   6 C    3.986 --    12 C    1.005    10 C    1.004    60 H    0.967
                            61 H    0.966
    12   6 C    3.932 --    11 C    1.005    62 H    0.963    63 H    0.954
                            13 N    0.929
    13   7 N    3.803 --    38 C    0.963    12 C    0.929    26 C    0.928
                            14 C    0.926
    14   6 C    3.932 --    15 C    1.006    65 H    0.964    64 H    0.960
                            13 N    0.926
    15   6 C    3.985 --    14 C    1.006    16 C    1.004    67 H    0.966
                            66 H    0.965
    16   6 C    3.992 --    17 C    1.008    15 C    1.004    69 H    0.974
                            68 H    0.970
    17   6 C    3.995 --    16 C    1.008    18 C    1.007    71 H    0.971
                            70 H    0.971
    18   6 C    3.996 --    19 C    1.007    17 C    1.007    73 H    0.976
                            72 H    0.973
    19   6 C    3.996 --    20 C    1.008    18 C    1.007    75 H    0.975
                            74 H    0.974
    20   6 C    3.997 --    21 C    1.008    19 C    1.008    77 H    0.975
                            76 H    0.974
    21   6 C    3.997 --    22 C    1.008    20 C    1.008    79 H    0.975
                            78 H    0.974
    22   6 C    3.997 --    21 C    1.008    23 C    1.008    81 H    0.975
                            80 H    0.975
    23   6 C    3.997 --    24 C    1.008    22 C    1.008    82 H    0.977
                            83 H    0.976
    24   6 C    3.998 --    25 C    1.020    23 C    1.008    84 H    0.978
                            85 H    0.976
    25   6 C    3.997 --    24 C    1.020    86 H    0.987    87 H    0.987
                            88 H    0.986
    26   6 C    3.930 --    27 C    1.003    90 H    0.968    89 H    0.957
                            13 N    0.928
    27   6 C    3.986 --    28 C    1.005    26 C    1.003    91 H    0.967
                            92 H    0.963
    28   6 C    3.992 --    29 C    1.007    27 C    1.005    94 H    0.975
                            93 H    0.971
    29   6 C    3.995 --    30 C    1.007    28 C    1.007    96 H    0.972
                            95 H    0.972
    30   6 C    3.996 --    29 C    1.007    31 C    1.007    98 H    0.976
                            97 H    0.973
    31   6 C    3.997 --    32 C    1.007    30 C    1.007   100 H    0.975
                            99 H    0.974
    32   6 C    3.997 --    33 C    1.008    31 C    1.007   102 H    0.975
                           101 H    0.974
    33   6 C    3.997 --    34 C    1.008    32 C    1.008   104 H    0.975
                           103 H    0.974
    34   6 C    3.997 --    33 C    1.008    35 C    1.008   106 H    0.975
                           105 H    0.975
    35   6 C    3.997 --    36 C    1.008    34 C    1.008   107 H    0.977
                           108 H    0.976
    36   6 C    3.998 --    37 C    1.020    35 C    1.008   109 H    0.978
                           110 H    0.976
    37   6 C    3.997 --    36 C    1.020   111 H    0.987   112 H    0.987
                           113 H    0.986
    38   6 C    3.934 --   116 H    0.974   115 H    0.973   114 H    0.970
                            13 N    0.963
    39   1 H    0.999 --     1 C    0.986
    40   1 H    0.999 --     1 C    0.987
    41   1 H    0.999 --     1 C    0.987
    42   1 H    0.999 --     2 C    0.976
    43   1 H    0.999 --     2 C    0.978
    44   1 H    0.999 --     3 C    0.976
    45   1 H    0.999 --     3 C    0.977
    46   1 H    0.999 --     4 C    0.975
    47   1 H    0.999 --     4 C    0.975
    48   1 H    0.999 --     5 C    0.975
    49   1 H    0.999 --     5 C    0.974
    50   1 H    0.999 --     6 C    0.975
    51   1 H    0.998 --     6 C    0.974
    52   1 H    0.999 --     7 C    0.975
    53   1 H    0.998 --     7 C    0.974
    54   1 H    1.000 --     8 C    0.976
    55   1 H    0.998 --     8 C    0.973
    56   1 H    1.000 --     9 C    0.971
    57   1 H    0.997 --     9 C    0.971
    58   1 H    0.999 --    10 C    0.974
    59   1 H    0.996 --    10 C    0.971
    60   1 H    0.998 --    11 C    0.967
    61   1 H    0.995 --    11 C    0.966
    62   1 H    0.995 --    12 C    0.963
    63   1 H    0.992 --    12 C    0.954
    64   1 H    0.992 --    14 C    0.960
    65   1 H    0.994 --    14 C    0.964
    66   1 H    0.994 --    15 C    0.965
    67   1 H    0.998 --    15 C    0.966
    68   1 H    0.996 --    16 C    0.970
    69   1 H    0.999 --    16 C    0.974
    70   1 H    0.997 --    17 C    0.971
    71   1 H    1.000 --    17 C    0.971
    72   1 H    0.998 --    18 C    0.973
    73   1 H    1.000 --    18 C    0.976
    74   1 H    0.998 --    19 C    0.974
    75   1 H    0.999 --    19 C    0.975
    76   1 H    0.998 --    20 C    0.974
    77   1 H    0.999 --    20 C    0.975
    78   1 H    0.999 --    21 C    0.974
    79   1 H    0.999 --    21 C    0.975
    80   1 H    0.999 --    22 C    0.975
    81   1 H    0.999 --    22 C    0.975
    82   1 H    0.999 --    23 C    0.977
    83   1 H    0.999 --    23 C    0.976
    84   1 H    0.999 --    24 C    0.978
    85   1 H    0.999 --    24 C    0.976
    86   1 H    0.999 --    25 C    0.987
    87   1 H    0.999 --    25 C    0.987
    88   1 H    0.999 --    25 C    0.986
    89   1 H    0.991 --    26 C    0.957
    90   1 H    0.994 --    26 C    0.968
    91   1 H    0.995 --    27 C    0.967
    92   1 H    0.998 --    27 C    0.963
    93   1 H    0.996 --    28 C    0.971
    94   1 H    0.999 --    28 C    0.975
    95   1 H    0.997 --    29 C    0.972
    96   1 H    1.000 --    29 C    0.972
    97   1 H    0.998 --    30 C    0.973
    98   1 H    1.000 --    30 C    0.976
    99   1 H    0.998 --    31 C    0.974
   100   1 H    0.999 --    31 C    0.975
   101   1 H    0.999 --    32 C    0.974
   102   1 H    0.999 --    32 C    0.975
   103   1 H    0.999 --    33 C    0.974
   104   1 H    0.999 --    33 C    0.975
   105   1 H    0.999 --    34 C    0.975
   106   1 H    0.999 --    34 C    0.975
   107   1 H    0.999 --    35 C    0.977
   108   1 H    0.999 --    35 C    0.976
   109   1 H    0.999 --    36 C    0.978
   110   1 H    0.999 --    36 C    0.976
   111   1 H    0.999 --    37 C    0.987
   112   1 H    0.999 --    37 C    0.987
   113   1 H    0.999 --    37 C    0.986
   114   1 H    0.989 --    38 C    0.970
   115   1 H    0.992 --    38 C    0.973
   116   1 H    0.992 --    38 C    0.974
 ---------------------------------------------------------------------------

Topologies differ in total number of bonds
Writing topology from bond orders to xtbtopo.mol

molecular dipole:
                 x           y           z       tot (Debye)
 q only:      -10.235      14.985       3.424
   full:      -10.189      15.002       3.499      46.946
molecular quadrupole (traceless):
                xx          xy          yy          xz          yz          zz
 q only:      -14.801    -243.721     172.009     -44.986      80.615    -157.207
  q+dip:      -15.952    -241.026     171.027     -47.574      82.206    -155.075
   full:      -16.013    -241.510     171.505     -47.118      82.255    -155.491

           -------------------------------------------------
          |                Geometry Summary                 |
           -------------------------------------------------

      molecular mass/u    :      537.0233100
   center of mass at/Å    :       -5.7023518       8.2093643       0.7596924
  moments of inertia/u·Å² :        0.9072963E+04   0.1741862E+05   0.2569922E+05
rotational constants/cm⁻¹ :        0.1858007E-02   0.9677940E-03   0.6559588E-03

 * 115 selected distances

     #   Z          #   Z                                           value/Å
     1   6 C        2   6 C                                       1.5240562
     2   6 C        3   6 C                                       1.5294787
     3   6 C        4   6 C                                       1.5300635
     4   6 C        5   6 C                                       1.5298715
     5   6 C        6   6 C                                       1.5300754
     6   6 C        7   6 C                                       1.5302945
     7   6 C        8   6 C                                       1.5301285
     8   6 C        9   6 C                                       1.5299015
     9   6 C       10   6 C                                       1.5304829
    10   6 C       11   6 C                                       1.5357045
    11   6 C       12   6 C                                       1.5320284
    12   6 C       13   7 N                                       1.4955383
    13   7 N       14   6 C                                       1.5000352
    14   6 C       15   6 C                                       1.5328001
    15   6 C       16   6 C                                       1.5360518 (max)
    16   6 C       17   6 C                                       1.5303260
    17   6 C       18   6 C                                       1.5299534
    18   6 C       19   6 C                                       1.5301400
    19   6 C       20   6 C                                       1.5302226
    20   6 C       21   6 C                                       1.5300648
    21   6 C       22   6 C                                       1.5298826
    22   6 C       23   6 C                                       1.5300742
    23   6 C       24   6 C                                       1.5294780
    24   6 C       25   6 C                                       1.5240539
    13   7 N       26   6 C                                       1.4945900
    26   6 C       27   6 C                                       1.5346501
    27   6 C       28   6 C                                       1.5337185
    28   6 C       29   6 C                                       1.5311465
    29   6 C       30   6 C                                       1.5298961
    30   6 C       31   6 C                                       1.5300328
    31   6 C       32   6 C                                       1.5299111
    32   6 C       33   6 C                                       1.5297978
    33   6 C       34   6 C                                       1.5299414
    34   6 C       35   6 C                                       1.5302046
    35   6 C       36   6 C                                       1.5294341
    36   6 C       37   6 C                                       1.5239454
    13   7 N       38   6 C                                       1.4728192
     1   6 C       39   1 H                                       1.0870793
     1   6 C       40   1 H                                       1.0873667
     1   6 C       41   1 H                                       1.0877916
     2   6 C       42   1 H                                       1.0915584
     2   6 C       43   1 H                                       1.0925554
     3   6 C       44   1 H                                       1.0922155
     3   6 C       45   1 H                                       1.0928831
     4   6 C       46   1 H                                       1.0925905
     4   6 C       47   1 H                                       1.0913822
     5   6 C       48   1 H                                       1.0928340
     5   6 C       49   1 H                                       1.0911363
     6   6 C       50   1 H                                       1.0928330
     6   6 C       51   1 H                                       1.0909329
     7   6 C       52   1 H                                       1.0928575
     7   6 C       53   1 H                                       1.0909195
     8   6 C       54   1 H                                       1.0933554
     8   6 C       55   1 H                                       1.0907799
     9   6 C       56   1 H                                       1.0946294
     9   6 C       57   1 H                                       1.0900592
    10   6 C       58   1 H                                       1.0906919
    10   6 C       59   1 H                                       1.0903388
    11   6 C       60   1 H                                       1.0911210
    11   6 C       61   1 H                                       1.0910776
    12   6 C       62   1 H                                       1.0909226
    12   6 C       63   1 H                                       1.0888001
    14   6 C       64   1 H                                       1.0904405
    14   6 C       65   1 H                                       1.0910784
    15   6 C       66   1 H                                       1.0911549
    15   6 C       67   1 H                                       1.0910474
    16   6 C       68   1 H                                       1.0903514
    16   6 C       69   1 H                                       1.0907738
    17   6 C       70   1 H                                       1.0900761
    17   6 C       71   1 H                                       1.0947759
    18   6 C       72   1 H                                       1.0907499
    18   6 C       73   1 H                                       1.0933639
    19   6 C       74   1 H                                       1.0908954
    19   6 C       75   1 H                                       1.0928827
    20   6 C       76   1 H                                       1.0909592
    20   6 C       77   1 H                                       1.0928178
    21   6 C       78   1 H                                       1.0911767
    21   6 C       79   1 H                                       1.0928358
    22   6 C       80   1 H                                       1.0913742
    22   6 C       81   1 H                                       1.0925947
    23   6 C       82   1 H                                       1.0928790
    23   6 C       83   1 H                                       1.0922442
    24   6 C       84   1 H                                       1.0925746
    24   6 C       85   1 H                                       1.0915490
    25   6 C       86   1 H                                       1.0878081
    25   6 C       87   1 H                                       1.0874194
    25   6 C       88   1 H                                       1.0871156
    26   6 C       89   1 H                                       1.0898419
    26   6 C       90   1 H                                       1.0895491
    27   6 C       91   1 H                                       1.0900217
    27   6 C       92   1 H                                       1.0905318
    28   6 C       93   1 H                                       1.0901707
    28   6 C       94   1 H                                       1.0916214
    29   6 C       95   1 H                                       1.0901459
    29   6 C       96   1 H                                       1.0941557
    30   6 C       97   1 H                                       1.0905278
    30   6 C       98   1 H                                       1.0935356
    31   6 C       99   1 H                                       1.0908982
    31   6 C      100   1 H                                       1.0929509
    32   6 C      101   1 H                                       1.0910900
    32   6 C      102   1 H                                       1.0927571
    33   6 C      103   1 H                                       1.0911998
    33   6 C      104   1 H                                       1.0927322
    34   6 C      105   1 H                                       1.0913168
    34   6 C      106   1 H                                       1.0926112
    35   6 C      107   1 H                                       1.0928897
    35   6 C      108   1 H                                       1.0923192
    36   6 C      109   1 H                                       1.0926592
    36   6 C      110   1 H                                       1.0915514
    37   6 C      111   1 H                                       1.0878071
    37   6 C      112   1 H                                       1.0874256
    37   6 C      113   1 H                                       1.0870912
    38   6 C      114   1 H                                       1.0860952 (min)
    38   6 C      115   1 H                                       1.0871972
    38   6 C      116   1 H                                       1.0885996

 * 3 distinct bonds (by element types)

   Z      Z             #   av. dist./Å        max./Å        min./Å
   1 H    6 C          78     1.0910121     1.0947759     1.0860952
   6 C    6 C          33     1.5302367     1.5360518     1.5239454
   6 C    7 N           4     1.4907457     1.5000352     1.4728192


optimized geometry written to: xtbopt.xyz


           -------------------------------------------------
          | TOTAL ENERGY             -121.604536043989 Eh   |
          | GRADIENT NORM               0.000197705277 Eh/α |
          | HOMO-LUMO GAP               6.752445174936 eV   |
           -------------------------------------------------

------------------------------------------------------------------------
 * finished run on 2024/12/20 at 07:18:47.715     
------------------------------------------------------------------------
 total:
 * wall-time:     0 d,  0 h,  0 min, 10.891 sec
 *  cpu-time:     0 d,  0 h,  1 min, 25.958 sec
 * ratio c/w:     7.893 speedup
 SCF:
 * wall-time:     0 d,  0 h,  0 min,  0.134 sec
 *  cpu-time:     0 d,  0 h,  0 min,  1.070 sec
 * ratio c/w:     7.985 speedup
 ANC optimizer:
 * wall-time:     0 d,  0 h,  0 min, 10.728 sec
 *  cpu-time:     0 d,  0 h,  1 min, 24.676 sec
 * ratio c/w:     7.893 speedup

