      -----------------------------------------------------------      
     |                   =====================                   |     
     |                           x T B                           |     
     |                   =====================                   |     
     |                         S. Grimme                         |     
     |          Mulliken Center for Theoretical Chemistry        |     
     |                    University of Bonn                     |     
      -----------------------------------------------------------      

   * xtb version 6.7.1 (edcfbbe) compiled by 'conda@3ef47c1a292c' on 2024-11-25

   xtb is free software: you can redistribute it and/or modify it under
   the terms of the GNU Lesser General Public License as published by
   the Free Software Foundation, either version 3 of the License, or
   (at your option) any later version.
   
   xtb is distributed in the hope that it will be useful,
   but WITHOUT ANY WARRANTY; without even the implied warranty of
   MERCHANTABILITY or FITNESS FOR A PARTICULAR PURPOSE.  See the
   GNU Lesser General Public License for more details.
   
   Cite this work as:
   * C. Bannwarth, E. Caldeweyher, S. Ehlert, A. Hansen, P. Pracht,
     J. Seibert, S. Spicher, S. Grimme, WIREs Comput. Mol. Sci., 2020, 11,
     e01493. DOI: 10.1002/wcms.1493
   
   for GFN2-xTB:
   * C. Bannwarth, S. Ehlert and S. Grimme., J. Chem. Theory Comput., 2019,
     15, 1652-1671. DOI: 10.1021/acs.jctc.8b01176
   for GFN1-xTB:
   * S. Grimme, C. Bannwarth, P. Shushkov, J. Chem. Theory Comput., 2017,
     13, 1989-2009. DOI: 10.1021/acs.jctc.7b00118
   for GFN0-xTB:
   * P. Pracht, E. Caldeweyher, S. Ehlert, S. Grimme, ChemRxiv, 2019, preprint.
     DOI: 10.26434/chemrxiv.8326202.v1
   for GFN-FF:
   * S. Spicher and S. Grimme, Angew. Chem. Int. Ed., 2020, 59, 15665-15673.
     DOI: 10.1002/anie.202004239
   
   for ALPB and GBSA implicit solvation:
   * S. Ehlert, M. Stahn, S. Spicher, S. Grimme, J. Chem. Theory Comput.,
     2021, 17, 4250-4261. DOI: 10.1021/acs.jctc.1c00471
   
   for ddCOSMO and CPCM-X implicit solvation:
   * M. Stahn, S. Ehlert, S. Grimme, J. Phys. Chem. A,
     2023, XX, XXXX-XXXX. DOI: 10.1021/acs.jpca.3c04382
   
   for DFT-D4:
   * E. Caldeweyher, C. Bannwarth and S. Grimme, J. Chem. Phys., 2017,
     147, 034112. DOI: 10.1063/1.4993215
   * E. Caldeweyher, S. Ehlert, A. Hansen, H. Neugebauer, S. Spicher,
     C. Bannwarth and S. Grimme, J. Chem. Phys., 2019, 150, 154122.
     DOI: 10.1063/1.5090222
   * E. Caldeweyher, J.-M. Mewes, S. Ehlert and S. Grimme, Phys. Chem. Chem. Phys.
     2020, 22, 8499-8512. DOI: 10.1039/D0CP00502A
   
   for sTDA-xTB:
   * S. Grimme and C. Bannwarth, J. Chem. Phys., 2016, 145, 054103.
     DOI: 10.1063/1.4959605
   
   in the mass-spec context:
   * V. Asgeirsson, C. Bauer and S. Grimme, Chem. Sci., 2017, 8, 4879.
     DOI: 10.1039/c7sc00601b
   * J. Koopman and S. Grimme, ACS Omega 2019, 4, 12, 15120-15133.
     DOI: 10.1021/acsomega.9b02011
   
   for metadynamics refer to:
   * S. Grimme, J. Chem. Theory Comput., 2019, 155, 2847-2862
     DOI: 10.1021/acs.jctc.9b00143
   
   for SPH calculations refer to:
   * S. Spicher and S. Grimme, J. Chem. Theory Comput., 2021, 17, 1701-1714
     DOI: 10.1021/acs.jctc.0c01306
   
   for ONIOM refer to:
   * C. Plett, A. Katbashev, S. Ehlert, S. Grimme, M. Bursch,
     Phys. Chem. Chem. Phys., 2023, 25, 17860-17868. DOI: 10.1039/D3CP02178E
   
   for DIPRO refer to:
   * J. Kohn, N. Gildemeister, S. Grimme, D. Fazzi, A. Hansen,
     J. Chem. Phys., 2023, just accepted.
   
   for PTB refer to:
   * S. Grimme, M. Mueller, A. Hansen, J. Chem. Phys., 2023, 158, 124111.
     DOI: 10.1063/5.0137838
   
   with help from (in alphabetical order)
   P. Atkinson, C. Bannwarth, F. Bohle, G. Brandenburg, E. Caldeweyher
   M. Checinski, S. Dohm, S. Ehlert, S. Ehrlich, I. Gerasimov, C. Hölzer
   A. Katbashev, J. Kohn, J. Koopman, C. Lavigne, S. Lehtola, F. März, M. Müller,
   F. Musil, H. Neugebauer, J. Pisarek, C. Plett, P. Pracht, F. Pultar,
   J. Seibert, P. Shushkov, S. Spicher, M. Stahn, M. Steiner, T. Strunk,
   J. Stückrath, T. Rose, and J. Unsleber
   
 * started run on 2024/12/20 at 07:18:52.459     
   ID    Z sym.   atoms
    1    6 C      1-4, 6-8, 10, 11, 13, 14
    2    7 N      5, 9
    3    8 O      12
    4    1 H      15-31

           -------------------------------------------------
          |                Calculation Setup                |
           -------------------------------------------------

          program call               : xtb C1300.xyz --opt --namespace C1300 --charge +1
          calculation namespace      : C1300
          coordinate file            : C1300.xyz
          omp threads                :                     8


           -------------------------------------------------
          |                 G F N 2 - x T B                 |
           -------------------------------------------------

        Reference                      10.1021/acs.jctc.8b01176
      * Hamiltonian:
        H0-scaling (s, p, d)           1.850000    2.230000    2.230000
        zeta-weighting                 0.500000
      * Dispersion:
        s8                             2.700000
        a1                             0.520000
        a2                             5.000000
        s9                             5.000000
      * Repulsion:
        kExp                           1.500000    1.000000
        rExp                           1.000000
      * Coulomb:
        alpha                          2.000000
        third order                    shell-resolved
        anisotropic                    true
        a3                             3.000000
        a5                             4.000000
        cn-shift                       1.200000
        cn-exp                         4.000000
        max-rad                        5.000000


          ...................................................
          :                      SETUP                      :
          :.................................................:
          :  # basis functions                  73          :
          :  # atomic orbitals                  73          :
          :  # shells                           45          :
          :  # electrons                        76          :
          :  max. iterations                   250          :
          :  Hamiltonian                  GFN2-xTB          :
          :  restarted?                      false          :
          :  GBSA solvation                  false          :
          :  PC potential                    false          :
          :  electronic temp.          300.0000000     K    :
          :  accuracy                    1.0000000          :
          :  -> integral cutoff          0.2500000E+02      :
          :  -> integral neglect         0.1000000E-07      :
          :  -> SCF convergence          0.1000000E-05 Eh   :
          :  -> wf. convergence          0.1000000E-03 e    :
          :  Broyden damping             0.4000000          :
          :  net charge                          1          :
          :  unpaired electrons                  0          :
          ...................................................

 iter      E             dE          RMSdq      gap      omega  full diag
   1    -42.1813059 -0.421813E+02  0.393E+00    2.87       0.0  T
   2    -42.2769781 -0.956722E-01  0.250E+00    1.59       1.0  T
   3    -42.2766181  0.360058E-03  0.123E+00    1.06       1.0  T
   4    -42.2818636 -0.524553E-02  0.536E-01    0.87       1.0  T
   5    -42.2892751 -0.741154E-02  0.105E-01    0.92       1.0  T
   6    -42.2893769 -0.101734E-03  0.409E-02    0.94       1.0  T
   7    -42.2893763  0.597132E-06  0.168E-02    0.95       1.1  T
   8    -42.2893790 -0.272016E-05  0.429E-03    0.95       4.2  T
   9    -42.2893793 -0.320140E-06  0.179E-03    0.95      10.1  T
  10    -42.2893793 -0.163372E-07  0.636E-04    0.95      28.2  T
  11    -42.2893793 -0.122082E-08  0.160E-04    0.95     112.3  T

   *** convergence criteria satisfied after 11 iterations ***

         #    Occupation            Energy/Eh            Energy/eV
      -------------------------------------------------------------
         1        2.0000           -0.8724016             -23.7393
       ...           ...                  ...                  ...
        32        2.0000           -0.6031823             -16.4134
        33        2.0000           -0.5957140             -16.2102
        34        2.0000           -0.5850563             -15.9202
        35        2.0000           -0.5715289             -15.5521
        36        2.0000           -0.5576693             -15.1750
        37        2.0000           -0.5354423             -14.5701
        38        2.0000           -0.4894033             -13.3173 (HOMO)
        39                         -0.4544615             -12.3665 (LUMO)
        40                         -0.4280749             -11.6485
        41                         -0.3085878              -8.3971
        42                         -0.1904087              -5.1813
        43                         -0.1538747              -4.1871
       ...                                ...                  ...
        73                          0.4130624              11.2400
      -------------------------------------------------------------
                  HL-Gap            0.0349418 Eh            0.9508 eV
             Fermi-level           -0.4719324 Eh          -12.8419 eV

 SCC (total)                   0 d,  0 h,  0 min,  0.017 sec
 SCC setup                      ...        0 min,  0.000 sec (  0.683%)
 Dispersion                     ...        0 min,  0.000 sec (  1.584%)
 classical contributions        ...        0 min,  0.000 sec (  0.276%)
 integral evaluation            ...        0 min,  0.001 sec (  7.404%)
 iterations                     ...        0 min,  0.012 sec ( 70.559%)
 molecular gradient             ...        0 min,  0.003 sec ( 18.757%)
 printout                       ...        0 min,  0.000 sec (  0.647%)

         :::::::::::::::::::::::::::::::::::::::::::::::::::::
         ::                     SUMMARY                     ::
         :::::::::::::::::::::::::::::::::::::::::::::::::::::
         :: total energy             -41.736748903782 Eh    ::
         :: gradient norm              0.057941396862 Eh/a0 ::
         :: HOMO-LUMO gap              0.950814683010 eV    ::
         ::.................................................::
         :: SCC energy               -42.288962865064 Eh    ::
         :: -> isotropic ES            0.101949127967 Eh    ::
         :: -> anisotropic ES         -0.006930884313 Eh    ::
         :: -> anisotropic XC          0.023997659853 Eh    ::
         :: -> dispersion             -0.027539510406 Eh    ::
         :: repulsion energy           0.552213961282 Eh    ::
         :: add. restraining           0.000000000000 Eh    ::
         :: total charge               1.000000000000 e     ::
         :::::::::::::::::::::::::::::::::::::::::::::::::::::

      ----------------------------------------------------------- 
     |                   =====================                   |
     |                        A N C O P T                        |
     |                   =====================                   |
     |               Approximate Normal Coordinate               |
     |                Rational Function Optimizer                |
      ----------------------------------------------------------- 
      ----------------------------------------------------------- 
     |                   =====================                   |
     |                        A N C O P T                        |
     |                   =====================                   |
     |               Approximate Normal Coordinate               |
     |                Rational Function Optimizer                |
      ----------------------------------------------------------- 

          ...................................................
          :                      SETUP                      :
          :.................................................:
          :   optimization level            normal          :
          :   max. optcycles                   200          :
          :   ANC micro-cycles                  20          :
          :   degrees of freedom                87          :
          :.................................................:
          :   RF solver                   davidson          :
          :   write xtbopt.log                true          :
          :   linear?                        false          :
          :   energy convergence         0.5000000E-05 Eh   :
          :   grad. convergence          0.1000000E-02 Eh/α :
          :   maxmium RF displ.          1.0000000          :
          :   Hlow (freq-cutoff)         0.1000000E-01      :
          :   Hmax (freq-cutoff)         5.0000000          :
          :   S6 in model hess.         20.0000000          :
          ...................................................

generating ANC from exact Hessian ...
Using Lindh-Hessian (1995)
 Shifting diagonal of input Hessian by    9.2452049610175138E-003
 Lowest  eigenvalues of input Hessian
    0.000000    0.000000    0.000000    0.000000    0.000000    0.000000
    0.010000    0.010114    0.011355    0.012701    0.017016    0.017261
    0.017828    0.022777    0.023171    0.025350    0.028554    0.029295
 Highest eigenvalues
    1.536511    1.583245    1.672156    1.892589    2.081410    2.090412


........................................................................
.............................. CYCLE    1 ..............................
........................................................................

 iter      E             dE          RMSdq      gap      omega  full diag
   1    -42.2893793 -0.422894E+02  0.604E-05    0.95       0.0  T
   2    -42.2893793 -0.858336E-11  0.351E-05    0.95     511.5  T
   3    -42.2893793  0.174794E-11  0.204E-05    0.95     881.5  T
     SCC iter.                  ...        0 min,  0.003 sec
     gradient                   ...        0 min,  0.003 sec
 * total energy  :   -41.7367489 Eh     change       -0.1467768E-09 Eh
   gradient norm :     0.0579412 Eh/α   predicted     0.0000000E+00 (-100.00%)
   displ. norm   :     0.2453284 α      lambda       -0.7994444E-02
   maximum displ.:     0.1290654 α      in ANC's #30, #21, #27, ...

........................................................................
.............................. CYCLE    2 ..............................
........................................................................

 iter      E             dE          RMSdq      gap      omega  full diag
   1    -42.3142765 -0.423143E+02  0.187E-01    0.95       0.0  T
   2    -42.3143400 -0.634459E-04  0.114E-01    1.01       1.0  T
   3    -42.3143307  0.925562E-05  0.342E-02    1.02       1.0  T
   4    -42.3143449 -0.142122E-04  0.979E-03    1.01       1.8  T
   5    -42.3143466 -0.168103E-05  0.274E-03    1.02       6.6  T
   6    -42.3143466 -0.245457E-07  0.106E-03    1.02      17.0  T
   7    -42.3143466 -0.315673E-08  0.401E-04    1.02      44.8  T
   8    -42.3143466 -0.136457E-08  0.181E-04    1.02      99.0  T
     SCC iter.                  ...        0 min,  0.007 sec
     gradient                   ...        0 min,  0.003 sec
 * total energy  :   -41.7421320 Eh     change       -0.5383116E-02 Eh
   gradient norm :     0.0294329 Eh/α   predicted    -0.4238303E-02 ( -21.27%)
   displ. norm   :     0.1795584 α      lambda       -0.2200414E-02
   maximum displ.:     0.0741173 α      in ANC's #30, #1, #9, ...

........................................................................
.............................. CYCLE    3 ..............................
........................................................................

 iter      E             dE          RMSdq      gap      omega  full diag
   1    -42.3264205 -0.423264E+02  0.117E-01    1.00       0.0  T
   2    -42.3264832 -0.627527E-04  0.705E-02    1.06       1.0  T
   3    -42.3264822  0.103286E-05  0.294E-02    1.07       1.0  T
   4    -42.3264852 -0.302238E-05  0.889E-03    1.07       2.0  T
   5    -42.3264877 -0.249967E-05  0.228E-03    1.07       7.9  T
   6    -42.3264877 -0.241253E-07  0.105E-03    1.07      17.0  T
   7    -42.3264878 -0.136647E-07  0.468E-04    1.07      38.3  T
   8    -42.3264878 -0.214270E-08  0.123E-04    1.07     145.5  T
     SCC iter.                  ...        0 min,  0.007 sec
     gradient                   ...        0 min,  0.003 sec
 * total energy  :   -41.7434177 Eh     change       -0.1285660E-02 Eh
   gradient norm :     0.0123795 Eh/α   predicted    -0.1136054E-02 ( -11.64%)
   displ. norm   :     0.1124208 α      lambda       -0.3682888E-03
   maximum displ.:     0.0650688 α      in ANC's #1, #9, #5, ...

........................................................................
.............................. CYCLE    4 ..............................
........................................................................

 iter      E             dE          RMSdq      gap      omega  full diag
   1    -42.3268081 -0.423268E+02  0.549E-02    1.06       0.0  T
   2    -42.3268266 -0.184987E-04  0.313E-02    1.09       1.0  T
   3    -42.3268266  0.384613E-07  0.146E-02    1.10       1.2  T
   4    -42.3268268 -0.152828E-06  0.555E-03    1.10       3.2  T
   5    -42.3268279 -0.110181E-05  0.111E-03    1.10      16.1  T
   6    -42.3268279 -0.334246E-08  0.401E-04    1.10      44.8  T
   7    -42.3268279 -0.484590E-09  0.149E-04    1.10     120.5  T
     SCC iter.                  ...        0 min,  0.010 sec
     gradient                   ...        0 min,  0.003 sec
 * total energy  :   -41.7436963 Eh     change       -0.2786338E-03 Eh
   gradient norm :     0.0085279 Eh/α   predicted    -0.1864825E-03 ( -33.07%)
   displ. norm   :     0.1621839 α      lambda       -0.3237073E-03
   maximum displ.:     0.1103595 α      in ANC's #1, #5, #9, ...

........................................................................
.............................. CYCLE    5 ..............................
........................................................................

 iter      E             dE          RMSdq      gap      omega  full diag
   1    -42.3254633 -0.423255E+02  0.711E-02    1.10       0.0  T
   2    -42.3254942 -0.309384E-04  0.400E-02    1.14       1.0  T
   3    -42.3254944 -0.165880E-06  0.188E-02    1.14       1.0  T
   4    -42.3254945 -0.111177E-06  0.712E-03    1.14       2.5  T
   5    -42.3254961 -0.162318E-05  0.141E-03    1.14      12.7  T
   6    -42.3254961 -0.556479E-08  0.463E-04    1.14      38.8  T
   7    -42.3254961 -0.497231E-09  0.129E-04    1.14     138.7  T
     SCC iter.                  ...        0 min,  0.006 sec
     gradient                   ...        0 min,  0.003 sec
 * total energy  :   -41.7438996 Eh     change       -0.2032851E-03 Eh
   gradient norm :     0.0049268 Eh/α   predicted    -0.1661115E-03 ( -18.29%)
   displ. norm   :     0.0875604 α      lambda       -0.7268812E-04
   maximum displ.:     0.0731976 α      in ANC's #1, #5, #9, ...

........................................................................
.............................. CYCLE    6 ..............................
........................................................................

 iter      E             dE          RMSdq      gap      omega  full diag
   1    -42.3252697 -0.423253E+02  0.286E-02    1.15       0.0  T
   2    -42.3252747 -0.494779E-05  0.161E-02    1.17       1.1  T
   3    -42.3252747 -0.821603E-07  0.741E-03    1.17       2.4  T
   4    -42.3252747 -0.980914E-08  0.243E-03    1.17       7.4  T
   5    -42.3252749 -0.151447E-06  0.559E-04    1.17      32.1  T
   6    -42.3252749 -0.122913E-08  0.224E-04    1.17      80.1  T
     SCC iter.                  ...        0 min,  0.005 sec
     gradient                   ...        0 min,  0.003 sec
 * total energy  :   -41.7439529 Eh     change       -0.5331388E-04 Eh
   gradient norm :     0.0027698 Eh/α   predicted    -0.3680990E-04 ( -30.96%)
   displ. norm   :     0.0780749 α      lambda       -0.4560150E-04
   maximum displ.:     0.0688716 α      in ANC's #1, #5, #2, ...

........................................................................
.............................. CYCLE    7 ..............................
........................................................................

 iter      E             dE          RMSdq      gap      omega  full diag
   1    -42.3255515 -0.423256E+02  0.201E-02    1.18       0.0  T
   2    -42.3255529 -0.141232E-05  0.114E-02    1.19       1.6  T
   3    -42.3255529 -0.144770E-07  0.428E-03    1.19       4.2  T
   4    -42.3255530 -0.371857E-07  0.107E-03    1.19      16.7  T
   5    -42.3255530 -0.199231E-07  0.350E-04    1.19      51.4  T
   6    -42.3255530 -0.546088E-09  0.129E-04    1.19     138.9  T
     SCC iter.                  ...        0 min,  0.005 sec
     gradient                   ...        0 min,  0.003 sec
 * total energy  :   -41.7439876 Eh     change       -0.3466577E-04 Eh
   gradient norm :     0.0015907 Eh/α   predicted    -0.2296065E-04 ( -33.77%)
   displ. norm   :     0.1025187 α      lambda       -0.2839838E-04
   maximum displ.:     0.0895807 α      in ANC's #1, #2, #5, ...

........................................................................
.............................. CYCLE    8 ..............................
........................................................................

 iter      E             dE          RMSdq      gap      omega  full diag
   1    -42.3259618 -0.423260E+02  0.238E-02    1.20       0.0  T
   2    -42.3259623 -0.439707E-06  0.138E-02    1.20       1.3  T
   3    -42.3259622  0.591413E-07  0.259E-03    1.20       6.9  T
   4    -42.3259623 -0.947311E-07  0.942E-04    1.20      19.1  T
   5    -42.3259623 -0.220522E-07  0.385E-04    1.20      46.7  T
     SCC iter.                  ...        0 min,  0.004 sec
     gradient                   ...        0 min,  0.003 sec
 * total energy  :   -41.7440181 Eh     change       -0.3055825E-04 Eh
   gradient norm :     0.0027210 Eh/α   predicted    -0.1426587E-04 ( -53.32%)
   displ. norm   :     0.0452749 α      lambda       -0.1638799E-04
   maximum displ.:     0.0391935 α      in ANC's #1, #2, #5, ...

........................................................................
.............................. CYCLE    9 ..............................
........................................................................

 iter      E             dE          RMSdq      gap      omega  full diag
   1    -42.3259773 -0.423260E+02  0.990E-03    1.20       0.0  T
   2    -42.3259774 -0.836551E-07  0.579E-03    1.20       3.1  T
   3    -42.3259774  0.115590E-07  0.115E-03    1.20      15.6  T
   4    -42.3259774 -0.190940E-07  0.402E-04    1.20      44.7  T
   5    -42.3259774 -0.289494E-08  0.157E-04    1.20     114.4  T
     SCC iter.                  ...        0 min,  0.004 sec
     gradient                   ...        0 min,  0.003 sec
 * total energy  :   -41.7440333 Eh     change       -0.1518504E-04 Eh
   gradient norm :     0.0024413 Eh/α   predicted    -0.8215434E-05 ( -45.90%)
   displ. norm   :     0.0617962 α      lambda       -0.2437061E-04
   maximum displ.:     0.0516439 α      in ANC's #1, #2, #3, ...

........................................................................
.............................. CYCLE   10 ..............................
........................................................................

 iter      E             dE          RMSdq      gap      omega  full diag
   1    -42.3259228 -0.423259E+02  0.149E-02    1.20       0.0  T
   2    -42.3259234 -0.599047E-06  0.862E-03    1.19       2.1  T
   3    -42.3259234  0.198462E-07  0.288E-03    1.20       6.2  T
   4    -42.3259234 -0.399890E-07  0.921E-04    1.19      19.5  T
   5    -42.3259234 -0.197200E-07  0.244E-04    1.19      73.5  T
     SCC iter.                  ...        0 min,  0.004 sec
     gradient                   ...        0 min,  0.003 sec
 * total energy  :   -41.7440546 Eh     change       -0.2131540E-04 Eh
   gradient norm :     0.0014506 Eh/α   predicted    -0.1223228E-04 ( -42.61%)
   displ. norm   :     0.1244937 α      lambda       -0.2594102E-04
   maximum displ.:     0.1022704 α      in ANC's #1, #2, #4, ...

........................................................................
.............................. CYCLE   11 ..............................
........................................................................

 iter      E             dE          RMSdq      gap      omega  full diag
   1    -42.3256661 -0.423257E+02  0.297E-02    1.19       0.0  T
   2    -42.3256678 -0.174380E-05  0.173E-02    1.18       1.0  T
   3    -42.3256677  0.118083E-06  0.501E-03    1.18       3.6  T
   4    -42.3256679 -0.166874E-06  0.165E-03    1.18      10.9  T
   5    -42.3256680 -0.714791E-07  0.429E-04    1.18      41.8  T
   6    -42.3256680 -0.244405E-09  0.176E-04    1.18     102.1  T
     SCC iter.                  ...        0 min,  0.005 sec
     gradient                   ...        0 min,  0.003 sec
 * total energy  :   -41.7440847 Eh     change       -0.3004392E-04 Eh
   gradient norm :     0.0013920 Eh/α   predicted    -0.1306118E-04 ( -56.53%)
   displ. norm   :     0.0954639 α      lambda       -0.1472019E-04
   maximum displ.:     0.0775446 α      in ANC's #1, #2, #4, ...

........................................................................
.............................. CYCLE   12 ..............................
........................................................................

 iter      E             dE          RMSdq      gap      omega  full diag
   1    -42.3255778 -0.423256E+02  0.223E-02    1.18       0.0  T
   2    -42.3255780 -0.151468E-06  0.131E-02    1.18       1.4  T
   3    -42.3255779  0.986197E-07  0.200E-03    1.18       9.0  T
   4    -42.3255780 -0.120093E-06  0.677E-04    1.18      26.5  T
   5    -42.3255780 -0.121830E-07  0.259E-04    1.18      69.3  T
     SCC iter.                  ...        0 min,  0.004 sec
     gradient                   ...        0 min,  0.004 sec
 * total energy  :   -41.7441044 Eh     change       -0.1975605E-04 Eh
   gradient norm :     0.0016675 Eh/α   predicted    -0.7391936E-05 ( -62.58%)
   displ. norm   :     0.0913367 α      lambda       -0.1410339E-04
   maximum displ.:     0.0728062 α      in ANC's #1, #2, #7, ...

........................................................................
.............................. CYCLE   13 ..............................
........................................................................

 iter      E             dE          RMSdq      gap      omega  full diag
   1    -42.3256604 -0.423257E+02  0.226E-02    1.18       0.0  T
   2    -42.3256606 -0.145716E-06  0.133E-02    1.18       1.4  T
   3    -42.3256605  0.979869E-07  0.200E-03    1.18       9.0  T
   4    -42.3256606 -0.127813E-06  0.564E-04    1.18      31.8  T
   5    -42.3256606 -0.587361E-08  0.246E-04    1.18      73.0  T
     SCC iter.                  ...        0 min,  0.004 sec
     gradient                   ...        0 min,  0.003 sec
 * total energy  :   -41.7441232 Eh     change       -0.1877235E-04 Eh
   gradient norm :     0.0011781 Eh/α   predicted    -0.7082957E-05 ( -62.27%)
   displ. norm   :     0.0994360 α      lambda       -0.1276766E-04
   maximum displ.:     0.0784783 α      in ANC's #1, #2, #7, ...

........................................................................
.............................. CYCLE   14 ..............................
........................................................................

 iter      E             dE          RMSdq      gap      omega  full diag
   1    -42.3257192 -0.423257E+02  0.253E-02    1.18       0.0  T
   2    -42.3257195 -0.240280E-06  0.148E-02    1.19       1.2  T
   3    -42.3257194  0.103252E-06  0.227E-03    1.19       7.9  T
   4    -42.3257195 -0.138268E-06  0.668E-04    1.19      26.9  T
   5    -42.3257195 -0.924570E-08  0.268E-04    1.19      67.1  T
     SCC iter.                  ...        0 min,  0.004 sec
     gradient                   ...        0 min,  0.006 sec
 * total energy  :   -41.7441398 Eh     change       -0.1658936E-04 Eh
   gradient norm :     0.0005975 Eh/α   predicted    -0.6413363E-05 ( -61.34%)
   displ. norm   :     0.0950320 α      lambda       -0.9583354E-05
   maximum displ.:     0.0741295 α      in ANC's #1, #2, #7, ...

........................................................................
.............................. CYCLE   15 ..............................
........................................................................

 iter      E             dE          RMSdq      gap      omega  full diag
   1    -42.3258130 -0.423258E+02  0.246E-02    1.19       0.0  T
   2    -42.3258132 -0.192193E-06  0.144E-02    1.19       1.2  T
   3    -42.3258131  0.432073E-07  0.171E-03    1.19      10.5  T
   4    -42.3258132 -0.691864E-07  0.581E-04    1.19      30.9  T
   5    -42.3258132 -0.629575E-08  0.244E-04    1.19      73.6  T
     SCC iter.                  ...        0 min,  0.004 sec
     gradient                   ...        0 min,  0.003 sec
 * total energy  :   -41.7441523 Eh     change       -0.1251376E-04 Eh
   gradient norm :     0.0004658 Eh/α   predicted    -0.4811537E-05 ( -61.55%)
   displ. norm   :     0.0887495 α      lambda       -0.7344768E-05
   maximum displ.:     0.0680491 α      in ANC's #1, #2, #3, ...

........................................................................
.............................. CYCLE   16 ..............................
........................................................................

 iter      E             dE          RMSdq      gap      omega  full diag
   1    -42.3258429 -0.423258E+02  0.237E-02    1.19       0.0  T
   2    -42.3258430 -0.118029E-06  0.138E-02    1.20       1.3  T
   3    -42.3258430  0.139032E-07  0.123E-03    1.20      14.7  T
   4    -42.3258430 -0.341828E-07  0.473E-04    1.20      37.9  T
   5    -42.3258430 -0.341709E-08  0.213E-04    1.20      84.3  T
     SCC iter.                  ...        0 min,  0.004 sec
     gradient                   ...        0 min,  0.003 sec
 * total energy  :   -41.7441618 Eh     change       -0.9488373E-05 Eh
   gradient norm :     0.0005000 Eh/α   predicted    -0.3688863E-05 ( -61.12%)
   displ. norm   :     0.0849296 α      lambda       -0.5737023E-05
   maximum displ.:     0.0646653 α      in ANC's #1, #2, #3, ...

........................................................................
.............................. CYCLE   17 ..............................
........................................................................

 iter      E             dE          RMSdq      gap      omega  full diag
   1    -42.3258341 -0.423258E+02  0.231E-02    1.20       0.0  T
   2    -42.3258342 -0.679441E-07  0.135E-02    1.20       1.3  T
   3    -42.3258342  0.410587E-09  0.932E-04    1.20      19.3  T
   4    -42.3258342 -0.192558E-07  0.411E-04    1.20      43.7  T
     SCC iter.                  ...        0 min,  0.004 sec
     gradient                   ...        0 min,  0.003 sec
 * total energy  :   -41.7441688 Eh     change       -0.7026344E-05 Eh
   gradient norm :     0.0004452 Eh/α   predicted    -0.2879941E-05 ( -59.01%)
   displ. norm   :     0.0710125 α      lambda       -0.3617570E-05
   maximum displ.:     0.0544327 α      in ANC's #1, #2, #3, ...

........................................................................
.............................. CYCLE   18 ..............................
........................................................................

 iter      E             dE          RMSdq      gap      omega  full diag
   1    -42.3258495 -0.423258E+02  0.198E-02    1.20       0.0  T
   2    -42.3258496 -0.380733E-07  0.116E-02    1.20       1.5  T
   3    -42.3258495  0.374017E-08  0.817E-04    1.20      22.0  T
   4    -42.3258496 -0.172507E-07  0.330E-04    1.20      54.4  T
     SCC iter.                  ...        0 min,  0.003 sec
     gradient                   ...        0 min,  0.003 sec
 * total energy  :   -41.7441730 Eh     change       -0.4183717E-05 Eh
   gradient norm :     0.0002740 Eh/α   predicted    -0.1815320E-05 ( -56.61%)
   displ. norm   :     0.0428486 α      lambda       -0.1479159E-05
   maximum displ.:     0.0340217 α      in ANC's #1, #2, #3, ...

   *** GEOMETRY OPTIMIZATION CONVERGED AFTER 18 ITERATIONS ***

------------------------------------------------------------------------
 total energy gain   :        -0.0074241 Eh       -4.6587 kcal/mol
 total RMSD          :         0.2584138 a0        0.1367 Å
 total power (kW/mol):        -1.0828883 (step)  -96.0824 (real)
------------------------------------------------------------------------

 ANCopt (total)                0 d,  0 h,  0 min,  0.203 sec
 optimizer setup                ...        0 min,  0.000 sec (  0.037%)
 model hessian                  ...        0 min,  0.024 sec ( 11.967%)
 ANC generation                 ...        0 min,  0.001 sec (  0.294%)
 coordinate transformation      ...        0 min,  0.000 sec (  0.095%)
 single point calculation       ...        0 min,  0.174 sec ( 85.747%)
 optimization log               ...        0 min,  0.002 sec (  0.779%)
 hessian update                 ...        0 min,  0.000 sec (  0.146%)
 rational function              ...        0 min,  0.001 sec (  0.595%)

================
 final structure:
================
31
 xtb: 6.7.1 (edcfbbe)
C            1.19040488931369       -0.08630028558335        0.88015052737044
C            0.63785472761470        1.27572043885696        0.71391072208937
C           -0.70578328380487        1.55916707030816        0.98430232343011
C           -1.19371246460950        2.83199269067567        0.80753733721041
N           -0.41005230062523        3.82846344791799        0.37617548223998
C            0.88135797137016        3.59204816328969        0.11353960489850
C            1.42934051038131        2.34093564199013        0.27031164203340
C           -1.01728922345058        5.18591581593855        0.04891412610694
N           -1.50095906554135        5.32452733232922       -1.24928553014485
C           -2.73114758806853        4.66574621089473       -1.65463226957468
C           -2.45012185142177        3.34739689527332       -2.38896856251761
O           -1.58370104689538        3.55131529943389       -3.47879734587169
C           -0.36057899111756        4.12510102848623       -3.08546897949914
C           -0.58576691778551        5.46399419956211       -2.36937849305703
H            1.04138655599218       -0.65093308831212       -0.04236589073695
H            0.68085581529552       -0.62444446265721        1.67546530556726
H            2.25838880620008       -0.05962538188742        1.07936639550388
H           -1.36545644544428        0.78295264912500        1.33918695258428
H           -2.22419384120598        3.07486251983988        1.02090860937803
H            1.47689009941547        4.43039012559876       -0.21662430959977
H            2.47542512817261        2.18972063944465        0.05485234137320
H           -1.82647386565632        5.32811200520273        0.77037276219489
H           -0.22560174719513        5.91626378160150        0.23645522485383
H           -3.24642848089141        5.34060147554317       -2.34499150638627
H           -3.37212305233229        4.50108549042730       -0.78868925622091
H           -2.01430433194728        2.60269487203801       -1.69940380196987
H           -3.37095814111424        2.94103587325718       -2.80803516850809
H            0.21069799067131        4.27455489493076       -4.00199336645111
H            0.18926159202445        3.42268558528766       -2.43415731366868
H           -1.04640234791637        6.15937189827508       -3.07766153394719
H            0.35905090057092        5.88944717291019       -2.03168602868258

 Bond Distances (Angstroems)
 ---------------------------
C1-C2=1.4792         C1-H15=1.0918        C1-H16=1.0871        C1-H17=1.0867        C2-C1=1.4792         C2-C3=1.3996         
C2-C7=1.3993         C3-C2=1.3996         C3-C4=1.3746         C3-H18=1.0787        C4-C3=1.3746         C4-N5=1.3391         
C4-H19=1.0800        N5-C4=1.3391         N5-C6=1.3389         N5-C8=1.5227         C6-N5=1.3389         C6-C7=1.3748         
C6-H20=1.0800        C7-C2=1.3993         C7-C6=1.3748         C7-H21=1.0787        C8-N5=1.5227         C8-N9=1.3923         
C8-H22=1.0934        C8-H23=1.0933        N9-C8=1.3923         N9-C10=1.4532        N9-C14=1.4531        C10-N9=1.4532        
C10-C11=1.5350       C10-H24=1.0943       C10-H25=1.0899       C11-C10=1.5350       C11-O12=1.4071       C11-H26=1.1045       
C11-H27=1.0903       O12-C11=1.4071       O12-C13=1.4071       C13-O12=1.4071       C13-C14=1.5350       C13-H28=1.0903       
C13-H29=1.1045       C14-N9=1.4531        C14-C13=1.5350       C14-H30=1.0943       C14-H31=1.0898       H15-C1=1.0918        
H16-C1=1.0871        H17-C1=1.0867        H18-C3=1.0787        H19-C4=1.0800        H20-C6=1.0800        H21-C7=1.0787        
H22-C8=1.0934        H23-C8=1.0933        H24-C10=1.0943       H25-C10=1.0899       H26-C11=1.1045       H27-C11=1.0903       
H28-C13=1.0903       H29-C13=1.1045       H30-C14=1.0943       H31-C14=1.0898       
 C  H  Rav=1.0899 sigma=0.0075  Rmin=1.0787  Rmax=1.1045    17
 C  C  Rav=1.4425 sigma=0.0669  Rmin=1.3746  Rmax=1.5350     7
 N  C  Rav=1.4165 sigma=0.0665  Rmin=1.3389  Rmax=1.5227     6
 O  C  Rav=1.4071 sigma=0.0000  Rmin=1.4071  Rmax=1.4071     2

 selected bond angles (degree)
 --------------------
H15-C1-C2=109.28               H16-C1-C2=111.28               H16-C1-H15=107.35              H17-C1-C2=111.41               
H17-C1-H15=107.56              H17-C1-H16=109.80              C3-C2-C1=121.56                C7-C2-C1=121.69                
C7-C2-C3=116.75                C4-C3-C2=120.23                H18-C3-C2=120.33               H18-C3-C4=119.44               
N5-C4-C3=121.52                H19-C4-C3=121.43               H19-C4-N5=117.04               C6-N5-C4=119.75                
C8-N5-C4=119.95                C8-N5-C6=119.99                C7-C6-N5=121.52                H20-C6-N5=117.05               
H20-C6-C7=121.43               C6-C7-C2=120.23                H21-C7-C2=120.34               H21-C7-C6=119.43               
N9-C8-N5=115.32                H22-C8-N5=105.62               H22-C8-N9=110.19               H23-C8-N5=105.66               
H23-C8-N9=110.18               H23-C8-H22=109.62              C10-N9-C8=120.60               C14-N9-C8=120.63               
C14-N9-C10=111.20              C11-C10-N9=111.58              H24-C10-N9=107.16              H24-C10-C11=108.30             
H25-C10-N9=110.17              H25-C10-C11=110.98             H25-C10-H24=108.51             

 selected dihedral angles (degree)
 ---------------------------------
C3-C2-C1-H15= 87.44           C3-C2-C1-H16=329.06           C3-C2-C1-H17=206.16           C7-C2-C1-H15=267.89           
C7-C2-C1-H16=149.51           C7-C2-C1-H17= 26.61           C4-C3-C2-C1=180.66            C4-C3-C2-C7=  0.23            
H18-C3-C2-C1=  1.06           H18-C3-C2-C7=180.64           N5-C4-C3-C2=  0.03            N5-C4-C3-H18=179.63           
H19-C4-C3-C2=180.70           H19-C4-C3-H18=  0.30          C6-N5-C4-C3=359.70            C6-N5-C4-H19=179.06           
C8-N5-C4-C3=173.39            C8-N5-C4-H19=352.74           C7-C6-N5-C4=  0.29            C7-C6-N5-C8=186.61            
H20-C6-N5-C4=180.96           H20-C6-N5-C8=  7.27           C6-C7-C2-C1=179.34            C6-C7-C2-C3=359.77            
H21-C7-C2-C1=358.93           H21-C7-C2-C3=179.35           C2-C7-C6-N5=359.97            C2-C7-C6-H20=179.28           
H21-C7-C6-N5=180.39           H21-C7-C6-H20=359.69          N9-C8-N5-C4=273.10            N9-C8-N5-C6= 86.77            
H22-C8-N5-C4= 35.03           H22-C8-N5-C6=208.70           H23-C8-N5-C4=151.17           H23-C8-N5-C6=324.84           
C10-N9-C8-N5= 73.24           C10-N9-C8-H22=313.81          C10-N9-C8-H23=192.72          C14-N9-C8-N5=286.26           
C14-N9-C8-H22=166.83          C14-N9-C8-H23= 45.74          C11-C10-N9-C8=262.12          C11-C10-N9-C14= 51.92         
H24-C10-N9-C8=143.72          H24-C10-N9-C14=293.53         H25-C10-N9-C8= 25.86          H25-C10-N9-C14=175.66         
           -------------------------------------------------
          |                Final Singlepoint                |
           -------------------------------------------------

          ...................................................
          :                      SETUP                      :
          :.................................................:
          :  # basis functions                  73          :
          :  # atomic orbitals                  73          :
          :  # shells                           45          :
          :  # electrons                        76          :
          :  max. iterations                   250          :
          :  Hamiltonian                  GFN2-xTB          :
          :  restarted?                      false          :
          :  GBSA solvation                  false          :
          :  PC potential                    false          :
          :  electronic temp.          300.0000000     K    :
          :  accuracy                    1.0000000          :
          :  -> integral cutoff          0.2500000E+02      :
          :  -> integral neglect         0.1000000E-07      :
          :  -> SCF convergence          0.1000000E-05 Eh   :
          :  -> wf. convergence          0.1000000E-03 e    :
          :  Broyden damping             0.4000000          :
          :  net charge                          1          :
          :  unpaired electrons                  0          :
          ...................................................

 iter      E             dE          RMSdq      gap      omega  full diag
   1    -42.3258496 -0.423258E+02  0.145E-04    1.20       0.0  T
   2    -42.3258496 -0.742020E-10  0.861E-05    1.20     208.6  T
   3    -42.3258496 -0.205063E-10  0.535E-05    1.20     335.7  T

   *** convergence criteria satisfied after 3 iterations ***

         #    Occupation            Energy/Eh            Energy/eV
      -------------------------------------------------------------
         1        2.0000           -0.8710166             -23.7016
       ...           ...                  ...                  ...
        32        2.0000           -0.6023612             -16.3911
        33        2.0000           -0.5921596             -16.1135
        34        2.0000           -0.5862037             -15.9514
        35        2.0000           -0.5753696             -15.6566
        36        2.0000           -0.5642298             -15.3535
        37        2.0000           -0.5402905             -14.7021
        38        2.0000           -0.4926186             -13.4048 (HOMO)
        39                         -0.4485124             -12.2046 (LUMO)
        40                         -0.4204279             -11.4404
        41                         -0.3020672              -8.2197
        42                         -0.2131801              -5.8009
        43                         -0.1336861              -3.6378
       ...                                ...                  ...
        73                          0.4368194              11.8865
      -------------------------------------------------------------
                  HL-Gap            0.0441062 Eh            1.2002 eV
             Fermi-level           -0.4705655 Eh          -12.8047 eV

 SCC (total)                   0 d,  0 h,  0 min,  0.007 sec
 SCC setup                      ...        0 min,  0.000 sec (  0.856%)
 Dispersion                     ...        0 min,  0.000 sec (  1.696%)
 classical contributions        ...        0 min,  0.000 sec (  0.316%)
 integral evaluation            ...        0 min,  0.001 sec ( 13.292%)
 iterations                     ...        0 min,  0.003 sec ( 36.664%)
 molecular gradient             ...        0 min,  0.003 sec ( 45.831%)
 printout                       ...        0 min,  0.000 sec (  1.130%)

         :::::::::::::::::::::::::::::::::::::::::::::::::::::
         ::                     SUMMARY                     ::
         :::::::::::::::::::::::::::::::::::::::::::::::::::::
         :: total energy             -41.744173011376 Eh    ::
         :: gradient norm              0.000273430241 Eh/a0 ::
         :: HOMO-LUMO gap              1.200190724931 eV    ::
         ::.................................................::
         :: SCC energy               -42.325417058438 Eh    ::
         :: -> isotropic ES            0.098825645921 Eh    ::
         :: -> anisotropic ES         -0.007032008291 Eh    ::
         :: -> anisotropic XC          0.022192643279 Eh    ::
         :: -> dispersion             -0.028093964498 Eh    ::
         :: repulsion energy           0.581244047062 Eh    ::
         :: add. restraining           0.000000000000 Eh    ::
         :: total charge               1.000000000000 e     ::
         :::::::::::::::::::::::::::::::::::::::::::::::::::::

           -------------------------------------------------
          |                Property Printout                |
           -------------------------------------------------

    * Orbital Energies and Occupations

         #    Occupation            Energy/Eh            Energy/eV
      -------------------------------------------------------------
         1        2.0000           -0.8710166             -23.7016
       ...           ...                  ...                  ...
        26        2.0000           -0.6299655             -17.1422
        27        2.0000           -0.6232630             -16.9598
        28        2.0000           -0.6231874             -16.9578
        29        2.0000           -0.6175391             -16.8041
        30        2.0000           -0.6111997             -16.6316
        31        2.0000           -0.6075471             -16.5322
        32        2.0000           -0.6023612             -16.3911
        33        2.0000           -0.5921596             -16.1135
        34        2.0000           -0.5862037             -15.9514
        35        2.0000           -0.5753696             -15.6566
        36        2.0000           -0.5642298             -15.3535
        37        2.0000           -0.5402905             -14.7021
        38        2.0000           -0.4926186             -13.4048 (HOMO)
        39                         -0.4485124             -12.2046 (LUMO)
        40                         -0.4204279             -11.4404
        41                         -0.3020672              -8.2197
        42                         -0.2131801              -5.8009
        43                         -0.1336861              -3.6378
        44                         -0.0871623              -2.3718
        45                         -0.0849768              -2.3123
        46                         -0.0680119              -1.8507
        47                         -0.0461704              -1.2564
        48                         -0.0336841              -0.9166
        49                         -0.0295108              -0.8030
       ...                                ...                  ...
        73                          0.4368194              11.8865
      -------------------------------------------------------------
                  HL-Gap            0.0441062 Eh            1.2002 eV
             Fermi-level           -0.4705655 Eh          -12.8047 eV

     #   Z          covCN         q      C6AA      α(0)
     1   6 C        3.758    -0.133    23.113     6.854
     2   6 C        2.969     0.072    26.381     8.425
     3   6 C        2.920    -0.028    28.696     8.785
     4   6 C        2.883     0.038    27.149     8.542
     5   7 N        2.742     0.048    20.407     6.709
     6   6 C        2.883     0.038    27.145     8.541
     7   6 C        2.920    -0.028    28.693     8.784
     8   6 C        3.681     0.034    20.210     6.438
     9   7 N        2.728    -0.128    23.775     7.242
    10   6 C        3.753    -0.020    20.989     6.533
    11   6 C        3.710     0.074    19.475     6.307
    12   8 O        1.701    -0.298    18.964     5.880
    13   6 C        3.710     0.074    19.477     6.307
    14   6 C        3.753    -0.020    20.990     6.533
    15   1 H        0.924     0.107     1.720     2.051
    16   1 H        0.925     0.091     1.872     2.139
    17   1 H        0.925     0.089     1.887     2.148
    18   1 H        0.926     0.099     1.793     2.094
    19   1 H        0.926     0.097     1.808     2.103
    20   1 H        0.926     0.098     1.808     2.102
    21   1 H        0.926     0.099     1.793     2.094
    22   1 H        0.924     0.090     1.881     2.145
    23   1 H        0.924     0.090     1.880     2.144
    24   1 H        0.924     0.081     1.973     2.197
    25   1 H        0.925     0.049     2.336     2.390
    26   1 H        0.923     0.006     2.964     2.693
    27   1 H        0.924     0.074     2.045     2.236
    28   1 H        0.924     0.074     2.044     2.236
    29   1 H        0.923     0.006     2.961     2.691
    30   1 H        0.924     0.081     1.973     2.197
    31   1 H        0.925     0.049     2.335     2.390

 Mol. C6AA /au·bohr⁶  :       8367.340820
 Mol. C8AA /au·bohr⁸  :     189712.210834
 Mol. α(0) /au        :        139.930270


Wiberg/Mayer (AO) data.
largest (>0.10) Wiberg bond orders for each atom

 ---------------------------------------------------------------------------
     #   Z sym  total        # sym  WBO       # sym  WBO       # sym  WBO
 ---------------------------------------------------------------------------
     1   6 C    3.983 --     2 C    1.065    17 H    0.969    16 H    0.966
                            15 H    0.927
     2   6 C    3.969 --     7 C    1.363     3 C    1.362     1 C    1.065
     3   6 C    3.984 --     4 C    1.490     2 C    1.362    18 H    0.959
     4   6 C    3.962 --     3 C    1.490     5 N    1.315    19 H    0.955
     5   7 N    3.722 --     6 C    1.316     4 C    1.315     8 C    0.853
     6   6 C    3.962 --     7 C    1.489     5 N    1.316    20 H    0.955
     7   6 C    3.984 --     6 C    1.489     2 C    1.363    21 H    0.959
     8   6 C    3.946 --     9 N    1.109    23 H    0.956    22 H    0.956
                             5 N    0.853
     9   7 N    3.283 --     8 C    1.109    10 C    0.990    14 C    0.990
    10   6 C    3.973 --     9 N    0.990    11 C    0.988    25 H    0.971
                            24 H    0.964
    11   6 C    3.958 --    12 O    0.993    10 C    0.988    27 H    0.967
                            26 H    0.963
    12   8 O    2.092 --    11 C    0.993    13 C    0.992
    13   6 C    3.958 --    12 O    0.992    14 C    0.988    28 H    0.967
                            29 H    0.963
    14   6 C    3.973 --     9 N    0.990    13 C    0.988    31 H    0.971
                            30 H    0.964
    15   1 H    0.987 --     1 C    0.927
    16   1 H    0.991 --     1 C    0.966
    17   1 H    0.991 --     1 C    0.969
    18   1 H    0.990 --     3 C    0.959
    19   1 H    0.990 --     4 C    0.955
    20   1 H    0.990 --     6 C    0.955
    21   1 H    0.990 --     7 C    0.959
    22   1 H    0.991 --     8 C    0.956
    23   1 H    0.991 --     8 C    0.956
    24   1 H    0.993 --    10 C    0.964
    25   1 H    0.998 --    10 C    0.971
    26   1 H    1.000 --    11 C    0.963
    27   1 H    0.994 --    11 C    0.967
    28   1 H    0.994 --    13 C    0.967
    29   1 H    1.000 --    13 C    0.963
    30   1 H    0.993 --    14 C    0.964
    31   1 H    0.998 --    14 C    0.971
 ---------------------------------------------------------------------------

Topologies differ in total number of bonds
Writing topology from bond orders to xtbtopo.mol

molecular dipole:
                 x           y           z       tot (Debye)
 q only:       -0.345       5.878       0.526
   full:       -0.239       5.764       0.723      14.779
molecular quadrupole (traceless):
                xx          xy          yy          xz          yz          zz
 q only:      -15.048     -10.194      45.554      -1.305      -4.801     -30.506
  q+dip:      -11.867      -7.852      44.327      -3.538      -3.289     -32.460
   full:      -12.712      -7.360      43.100      -2.945      -2.232     -30.388

           -------------------------------------------------
          |                Geometry Summary                 |
           -------------------------------------------------

      molecular mass/u    :      193.2658990
   center of mass at/Å    :       -0.6266114       3.3786133      -0.7734464
  moments of inertia/u·Å² :        0.4054629E+03   0.1088385E+04   0.1138554E+04
rotational constants/cm⁻¹ :        0.4157626E-01   0.1548867E-01   0.1480618E-01

 * 31 selected distances

     #   Z          #   Z                                           value/Å
     1   6 C        2   6 C                                       1.4792053
     2   6 C        3   6 C                                       1.3995775
     3   6 C        4   6 C                                       1.3745567
     4   6 C        5   7 N                                       1.3390857
     5   7 N        6   6 C                                       1.3388841
     2   6 C        7   6 C                                       1.3992547
     6   6 C        7   6 C                                       1.3748255
     8   6 C        9   7 N                                       1.3922903
     9   7 N       10   6 C                                       1.4531561
    10   6 C       11   6 C                                       1.5350149 (max)
    11   6 C       12   8 O                                       1.4071229
    12   8 O       13   6 C                                       1.4071124
     9   7 N       14   6 C                                       1.4531470
    13   6 C       14   6 C                                       1.5349692
     1   6 C       15   1 H                                       1.0918120
     1   6 C       16   1 H                                       1.0870903
     1   6 C       17   1 H                                       1.0867329
     3   6 C       18   1 H                                       1.0787126
     4   6 C       19   1 H                                       1.0800024
     6   6 C       20   1 H                                       1.0800390
     7   6 C       21   1 H                                       1.0786945 (min)
     8   6 C       22   1 H                                       1.0933903
     8   6 C       23   1 H                                       1.0933202
    10   6 C       24   1 H                                       1.0943218
    10   6 C       25   1 H                                       1.0898717
    11   6 C       26   1 H                                       1.1045442
    11   6 C       27   1 H                                       1.0902687
    13   6 C       28   1 H                                       1.0902802
    13   6 C       29   1 H                                       1.1044995
    14   6 C       30   1 H                                       1.0942578
    14   6 C       31   1 H                                       1.0898291

 * 4 distinct bonds (by element types)

   Z      Z             #   av. dist./Å        max./Å        min./Å
   1 H    6 C          17     1.0898628     1.1045442     1.0786945
   6 C    6 C           7     1.4424862     1.5350149     1.3745567
   6 C    7 N           5     1.3953127     1.4531561     1.3388841
   6 C    8 O           2     1.4071176     1.4071229     1.4071124


optimized geometry written to: xtbopt.xyz


           -------------------------------------------------
          | TOTAL ENERGY              -41.744173011376 Eh   |
          | GRADIENT NORM               0.000273430241 Eh/α |
          | HOMO-LUMO GAP               1.200190724931 eV   |
           -------------------------------------------------

------------------------------------------------------------------------
 * finished run on 2024/12/20 at 07:18:52.704     
------------------------------------------------------------------------
 total:
 * wall-time:     0 d,  0 h,  0 min,  0.244 sec
 *  cpu-time:     0 d,  0 h,  0 min,  1.927 sec
 * ratio c/w:     7.887 speedup
 SCF:
 * wall-time:     0 d,  0 h,  0 min,  0.017 sec
 *  cpu-time:     0 d,  0 h,  0 min,  0.137 sec
 * ratio c/w:     7.937 speedup
 ANC optimizer:
 * wall-time:     0 d,  0 h,  0 min,  0.211 sec
 *  cpu-time:     0 d,  0 h,  0 min,  1.675 sec
 * ratio c/w:     7.937 speedup

