41
 energy: -48.926758909433 gnorm: 0.068131803668 xtb: 6.7.1 (edcfbbe)
C            1.43086000000000       -0.09038000000000       -0.56263000000000
C            0.56419000000000       -1.06784000000000       -0.25452000000000
C           -0.94732000000000       -0.95948000000000       -0.03589000000000
N           -1.73782000000000       -1.65415000000000       -1.27775000000000
C           -1.43292000000000       -3.17408000000000       -1.47664000000000
C           -1.74487000000000       -4.20649000000000       -0.42190000000000
C           -3.03005000000000       -4.41642000000000        0.09841000000000
C           -3.26760000000000       -5.42316000000000        1.03979000000000
C           -2.23661000000000       -6.26610000000000        1.44257000000000
C           -0.96530000000000       -6.10700000000000        0.90384000000000
C           -0.72141000000000       -5.08830000000000       -0.01952000000000
C           -3.24487000000000       -1.41528000000000       -1.21268000000000
C           -1.27304000000000       -1.01153000000000       -2.61566000000000
C           -1.29606000000000       -1.66302000000000        1.33129000000000
C           -0.82582000000000       -0.94194000000000        2.57550000000000
C           -1.64115000000000       -0.49951000000000        3.54222000000000
C           -1.41914000000000        0.52330000000000        0.06445000000000
H            1.13968000000000        0.94530000000000       -0.71048000000000
H            2.49386000000000       -0.30510000000000       -0.65814000000000
H            0.99095000000000       -2.05946000000000       -0.10132000000000
H           -1.96640000000000       -3.47733000000000       -2.38804000000000
H           -0.36511000000000       -3.22395000000000       -1.72270000000000
H           -3.88362000000000       -3.82850000000000       -0.21981000000000
H           -4.26631000000000       -5.56591000000000        1.44860000000000
H           -2.42888000000000       -7.05989000000000        2.16151000000000
H           -0.16596000000000       -6.78564000000000        1.19545000000000
H            0.28366000000000       -5.00850000000000       -0.43228000000000
H           -3.45087000000000       -0.36696000000000       -1.44815000000000
H           -3.73167000000000       -2.04681000000000       -1.96245000000000
H           -3.61875000000000       -1.64535000000000       -0.21685000000000
H           -1.49057000000000        0.05681000000000       -2.60921000000000
H           -0.20529000000000       -1.19566000000000       -2.75531000000000
H           -1.83380000000000       -1.48208000000000       -3.43064000000000
H           -2.37466000000000       -1.82213000000000        1.41644000000000
H           -0.82383000000000       -2.64762000000000        1.38044000000000
H            0.24744000000000       -0.79809000000000        2.69652000000000
H           -1.23909000000000       -0.00185000000000        4.42175000000000
H           -2.71861000000000       -0.62681000000000        3.50068000000000
H           -0.84899000000000        1.07505000000000        0.82185000000000
H           -1.29384000000000        1.08413000000000       -0.86461000000000
H           -2.47142000000000        0.59376000000000        0.36066000000000
41
 energy: -48.938737018970 gnorm: 0.030530756089 xtb: 6.7.1 (edcfbbe)
C            1.38870354770303       -0.10692761693590       -0.56550456507122
C            0.53127930603075       -1.07794974268421       -0.27822679072173
C           -0.96034630631845       -0.95414784584342       -0.03624161168059
N           -1.72064586399032       -1.65567106987038       -1.26116841152579
C           -1.42653340406819       -3.15396790832880       -1.45341590345755
C           -1.74156889576576       -4.18243364518789       -0.39254278202154
C           -3.02338022876696       -4.40681050190589        0.10853608215891
C           -3.26147743683594       -5.41761230795770        1.03025476190856
C           -2.23538331943579       -6.25540794963495        1.43343949900661
C           -0.97008629667535       -6.08968732289766        0.89539327456931
C           -0.72564130857076       -5.06190507093701       -0.00388692738956
C           -3.20109781966257       -1.41955441267771       -1.19891403604590
C           -1.27079366704819       -1.02921929827105       -2.56816951318725
C           -1.30299616369274       -1.67011454793816        1.30574169228549
C           -0.83466915053193       -0.91682656403597        2.52873662192706
C           -1.63257836935021       -0.49946078244554        3.50045079940352
C           -1.42260336969262        0.50784166122485        0.05698043549445
H            1.10764074821262        0.92420534236236       -0.70988124717710
H            2.44647152278442       -0.31420072408676       -0.64252198407146
H            0.94431284654678       -2.06665330564029       -0.10633137537337
H           -1.97257704000195       -3.43902357365025       -2.36176692587809
H           -0.36146741342483       -3.21452933702383       -1.69159723644917
H           -3.86915458963646       -3.82026537138536       -0.21775261275197
H           -4.25655060641048       -5.55930249495230        1.42937054110937
H           -2.42503555285710       -7.04448960938815        2.14852650481160
H           -0.17158779195839       -6.76148583933618        1.18003505828892
H            0.26970277563000       -4.97398745769844       -0.42227387269008
H           -3.42306275923626       -0.38023314538547       -1.43519215679228
H           -3.69371557209601       -2.04761567316572       -1.94061301960711
H           -3.58966491119903       -1.65109602668010       -0.21289565403247
H           -1.48196112393070        0.03524866297514       -2.57234409608441
H           -0.20669624773807       -1.19249672518807       -2.71629003558126
H           -1.82211387134712       -1.48876375873492       -3.38887552910734
H           -2.37986253087795       -1.81573723537383        1.39920303828266
H           -0.82656930983779       -2.65371465485806        1.33722192060980
H            0.23585383567546       -0.79400810420795        2.64338930545623
H           -1.23435574911782       -0.03255557792176        4.38897919095895
H           -2.70365266784266       -0.62936235963040        3.47330038891040
H           -0.83507380277044        1.01546527825636        0.82275200563524
H           -1.28815980714271        1.06515025626214       -0.86777637946076
H           -2.46391163475143        0.57533636077931        0.36666154534101
41
 energy: -48.942516522127 gnorm: 0.012146669636 xtb: 6.7.1 (edcfbbe)
C            1.35669382908652       -0.11907772457073       -0.54601607714640
C            0.50947975507175       -1.09249181099830       -0.27004894847337
C           -0.97529003642264       -0.96680569705142       -0.05082809425466
N           -1.72019948622699       -1.65358900974383       -1.25854284214959
C           -1.42234644982624       -3.12866737416010       -1.43267164392042
C           -1.74142067367899       -4.15739040340620       -0.37108829139969
C           -3.02251923739589       -4.39142235703184        0.11660784563343
C           -3.25853764884965       -5.40610882515241        1.02623786730669
C           -2.23240628609399       -6.24003121610911        1.42986826232322
C           -0.96730916602808       -6.06138143194126        0.89949461928986
C           -0.72464685761311       -5.02743620101187        0.01426865283684
C           -3.17514358449365       -1.42665633096411       -1.18798521264414
C           -1.26294467584977       -1.04175774441117       -2.52648489600727
C           -1.31433744717222       -1.67912764609976        1.27565936799275
C           -0.83366339924516       -0.93366093978372        2.49425095107214
C           -1.62069097059997       -0.52467342102954        3.46847875647718
C           -1.42364676587874        0.48409502062195        0.05939648769023
H            1.07189403060014        0.90439808309957       -0.71000741840315
H            2.40670667025300       -0.32411477673004       -0.65543382084748
H            0.90339509469674       -2.08886930392143       -0.12215920473197
H           -1.97032608432605       -3.41591904804600       -2.33621340374541
H           -0.35805856737810       -3.20367887405738       -1.65978948007879
H           -3.86177896576580       -3.80308466128755       -0.21524403864640
H           -4.25529647958820       -5.55617512310259        1.40761897504829
H           -2.42185671206876       -7.03473725587864        2.13243766050063
H           -0.16908622086167       -6.73276482492598        1.17088203879380
H            0.26742094415154       -4.91951857947922       -0.39896059027239
H           -3.40615862157108       -0.39047911950946       -1.41791661180589
H           -3.67519934052434       -2.05184802594805       -1.92445125025873
H           -3.56752793714577       -1.66282998578385       -0.20530732198464
H           -1.46816080809748        0.02270049914312       -2.54014302040608
H           -0.19740229163948       -1.19132996709567       -2.67136541549674
H           -1.79994906193996       -1.49314543627628       -3.35816537836303
H           -2.38942346729331       -1.81634676150733        1.38068863411799
H           -0.84001384748933       -2.66230453754168        1.29229358453794
H            0.23407131607379       -0.78212707410408        2.56835932580413
H           -1.23035740531028       -0.01911433328419        4.33235105860777
H           -2.69143990689567       -0.63491500827313        3.43993624214538
H           -0.82345840623908        0.95835447572846        0.83277632912475
H           -1.28220770817999        1.05048035924364       -0.85445246320950
H           -2.45786712224395        0.55958239238141        0.37645876494302
41
 energy: -48.943234085992 gnorm: 0.010442444012 xtb: 6.7.1 (edcfbbe)
C            1.34091111583363       -0.13521474480724       -0.56989653627853
C            0.49792018391681       -1.11177314077378       -0.28754327454173
C           -0.98567027656665       -0.97932349112108       -0.05562674312195
N           -1.72207909324839       -1.65308951860517       -1.25952671919829
C           -1.42237145509802       -3.12109562140888       -1.42920513693226
C           -1.74357721036959       -4.14336884139989       -0.36241412675543
C           -3.02674150346451       -4.38174814956641        0.11911571174846
C           -3.26114105498939       -5.40158995751369        1.02412833234866
C           -2.23120009606563       -6.23199810575940        1.42933158470089
C           -0.96167571625886       -6.04072715956392        0.91155707412695
C           -0.71991080630116       -5.00147801085816        0.03198339933041
C           -3.17306202023059       -1.42895522651589       -1.18642248067142
C           -1.25645836188946       -1.03955218198585       -2.51719198853000
C           -1.32574602474934       -1.69718223197934        1.26412724967673
C           -0.82923448548523       -0.93273414722712        2.46285523476169
C           -1.61226122250124       -0.50631853447554        3.43370874940550
C           -1.42425013231195        0.47608704605551        0.06860169146402
H            1.05379437054876        0.89408477768236       -0.69280012466261
H            2.39744760595416       -0.32738352388996       -0.63837402931748
H            0.88887941099077       -2.10711945608706       -0.12595042495754
H           -1.96277581198201       -3.42132759037516       -2.33248760892609
H           -0.35633854345802       -3.19900837270892       -1.64708303398780
H           -3.86575005533309       -3.79501151120606       -0.21685250283745
H           -4.26079415824508       -5.55944556261648        1.39640077823099
H           -2.42053160910634       -7.03242916712230        2.12544384701041
H           -0.15933357468588       -6.70699987897819        1.18409887430360
H            0.27565938225700       -4.87586205481387       -0.36987809261886
H           -3.40616686323057       -0.39079793543185       -1.40859609913512
H           -3.67554721828155       -2.05234237838622       -1.92403923373355
H           -3.56223818372090       -1.67072459585686       -0.20288328180736
H           -1.46103057671066        0.02646278263586       -2.53164434817026
H           -0.18708126803727       -1.18634627060569       -2.64804455837536
H           -1.77989635342003       -1.48964952374350       -3.35966089859493
H           -2.40109934302631       -1.82695889501375        1.37988855320313
H           -0.85735405389094       -2.68231816344966        1.28409784269454
H            0.24060804283531       -0.78383461345865        2.51881333750463
H           -1.21661099382358       -0.02214663483186        4.30784343723075
H           -2.67949780190039       -0.66315612040154        3.43206393184738
H           -0.81795386806404        0.93761193636737        0.84489763853919
H           -1.28365227742555        1.05380323646803       -0.83852394412808
H           -2.45719809846397        0.55699153333016        0.39047791915482
41
 energy: -48.943667672534 gnorm: 0.005103613544 xtb: 6.7.1 (edcfbbe)
C            1.33939727890630       -0.14187723092410       -0.55503306099109
C            0.49631909551673       -1.12192429397201       -0.27962471444875
C           -0.99149787568722       -0.98863455490479       -0.05647294983198
N           -1.72384593856197       -1.65232105406579       -1.26252093969591
C           -1.42457884418501       -3.11957368323097       -1.43210340234759
C           -1.74691540251323       -4.13687313088817       -0.36100323861311
C           -3.03184301617726       -4.38004336205967        0.11527776249560
C           -3.26437251420725       -5.40167943414910        1.02010205000301
C           -2.23053007639468       -6.22590753329818        1.43029787108426
C           -0.95689108711528       -6.02365934543619        0.92543903819247
C           -0.71668082662506       -4.98272741077344        0.04674561324468
C           -3.17750577978790       -1.42801534038307       -1.19203070687274
C           -1.25387513031047       -1.03346374203808       -2.52047584162754
C           -1.33095284554341       -1.71090732893980        1.26200098956625
C           -0.82264150433940       -0.94405234150454        2.45272875975234
C           -1.60119916076090       -0.51618349840215        3.42815629448962
C           -1.42661567578671        0.47083840613067        0.07669534928374
H            1.04275220156821        0.88273166900944       -0.69570169841468
H            2.39389496928379       -0.33595905703474       -0.64757265702316
H            0.88475592711160       -2.11984104580385       -0.12552847889915
H           -1.95893896784770       -3.42716779273579       -2.33692047891724
H           -0.35715460904549       -3.19602023102084       -1.64493880691425
H           -3.87246977220974       -3.79718357106210       -0.22450825602715
H           -4.26546735207089       -5.56463447610113        1.38836344059935
H           -2.41946939574387       -7.02967404196615        2.12353467980994
H           -0.14915119734425       -6.68047352288390        1.20753730136715
H            0.28294635086400       -4.84347890826725       -0.34305128042256
H           -3.41028019434593       -0.38775790594854       -1.40768400526159
H           -3.67966057080784       -2.04889981551027       -1.93273313712077
H           -3.56458454220084       -1.67462917593044       -0.20829309335534
H           -1.46068051966194        0.03285309137376       -2.53231001981389
H           -0.18174616723982       -1.17849867990466       -2.63933338374871
H           -1.76771847142115       -1.48479588333929       -3.36892911128869
H           -2.40620837076568       -1.83814613975792        1.38348888523733
H           -0.86700522819358       -2.69794116209058        1.28099149310616
H            0.24752005217369       -0.78532850999886        2.48933859706893
H           -1.20393350726208       -0.00377055106915        4.28662230225771
H           -2.66859731937964       -0.67152877750228        3.42513553748041
H           -0.81821326774057        0.92627181561597        0.85479963697374
H           -1.28773026446512        1.05529676226777       -0.82723244550806
H           -2.45964047968214        0.55161078850063        0.40153610513225
41
 energy: -48.943878277436 gnorm: 0.003265328777 xtb: 6.7.1 (edcfbbe)
C            1.33803121177759       -0.15158839071103       -0.55381279826757
C            0.49592065462573       -1.13115305313316       -0.27557432965447
C           -0.99539394183114       -0.99849797983707       -0.05886223476537
N           -1.72687876305127       -1.65250502878175       -1.26659227242071
C           -1.42840345583853       -3.11994345730484       -1.43875535766960
C           -1.75171865100844       -4.13597462256966       -0.36654480732135
C           -3.03772123174539       -4.38530727372121        0.10353924555535
C           -3.26737991098074       -5.40375915727539        1.01319502362466
C           -2.22943869652915       -6.21737474195814        1.43402301335431
C           -0.95213166001860       -6.00374978744393        0.94356051246892
C           -0.71534411459867       -4.96673725584286        0.05973089388543
C           -3.18320123447658       -1.42571962772046       -1.19988527209519
C           -1.25107003957798       -1.02725087044063       -2.52361617325921
C           -1.33285366616898       -1.71721557837228        1.26343879814401
C           -0.81448355771114       -0.95213030429509        2.44965020384491
C           -1.58691648469339       -0.52141003942698        3.42858339140904
C           -1.43063715498739        0.46196669738021        0.08248574893882
H            1.03593929775414        0.87174512146751       -0.69331751932790
H            2.39349314547674       -0.34321651747771       -0.64382498930706
H            0.88372340884974       -2.12885709752021       -0.11881855416283
H           -1.96132214714082       -3.42739507380826       -2.34462818559040
H           -0.36075761417376       -3.19554369967114       -1.65137783261062
H           -3.88053775211737       -3.80843201258167       -0.24157154147960
H           -4.26922869503782       -5.57181414808809        1.37760033102997
H           -2.41790327553327       -7.02308353934938        2.12554172473695
H           -0.13865917901993       -6.64781434255512        1.24036276637779
H            0.28771117746644       -4.81517606406330       -0.31685235984823
H           -3.41302925260872       -0.38354072044765       -1.40925831876270
H           -3.68272080725447       -2.04153866513705       -1.94635745413554
H           -3.57158280304785       -1.67806961080496       -0.21791290622493
H           -1.46351885181852        0.03787039264172       -2.53224471282623
H           -0.17720004893727       -1.16798623074997       -2.63474309629839
H           -1.75778012040753       -1.48069749931593       -3.37426186725253
H           -2.40782434922944       -1.84279044487846        1.38899008617807
H           -0.87389918604982       -2.70627292260016        1.28082520082681
H            0.25491706831276       -0.78873673538403        2.47009748932040
H           -1.18734336226618        0.01058009448098        4.27452674686049
H           -2.65357851117597       -0.67833619422031        3.42661753610868
H           -0.82047757085062        0.91510924408583        0.85950324965043
H           -1.29681790757980        1.04895974305913       -0.82038670120203
H           -2.46299196679615        0.53941739437309        0.41171732216881
41
 energy: -48.944030609068 gnorm: 0.003961619868 xtb: 6.7.1 (edcfbbe)
C            1.33751778169461       -0.15855977709776       -0.54753269669339
C            0.49478520089921       -1.13730859009664       -0.26983588203424
C           -0.99863148279427       -1.00440728012568       -0.05964955549866
N           -1.72751664134422       -1.65329721088262       -1.26890319741064
C           -1.43250005903740       -3.12132648319485       -1.44680391412736
C           -1.75522092383439       -4.13548520267428       -0.37269942620031
C           -3.04236426400366       -4.39204337940765        0.08944098894956
C           -3.27011983400016       -5.40648143171133        1.00446188818365
C           -2.22858688095533       -6.20787149049370        1.43907645820102
C           -0.94836789946565       -5.98404345496071        0.96161280562269
C           -0.71455765227373       -4.95215915093372        0.07135606305724
C           -3.18519621938068       -1.42440579190927       -1.20594593725490
C           -1.24875113389338       -1.02391890325010       -2.52475952244534
C           -1.33541379086704       -1.72229524360456        1.26462948646856
C           -0.80801227739499       -0.95470049844990        2.44532913798074
C           -1.57276135324263       -0.51872961925748        3.42769421854556
C           -1.43469127569456        0.45573878077064        0.08616208722063
H            1.03144027766692        0.86201917240208       -0.69723711770613
H            2.39256829919259       -0.34988298816246       -0.64034769899275
H            0.88111904616577       -2.13530985551582       -0.11153572789748
H           -1.96887253929127       -3.42538270406935       -2.35184109210524
H           -0.36565633353604       -3.19811465669415       -1.66287540263192
H           -3.88774848019514       -3.82423307199806       -0.26529073522109
H           -4.27283646799624       -5.58027156200499        1.36362253726649
H           -2.41594849519794       -7.01206807001138        2.13258246423332
H           -0.13030986692632       -6.61524307389396        1.27411759371061
H            0.29001037174506       -4.79261284551726       -0.29592298628758
H           -3.41203269976435       -0.38056565306539       -1.40918019226485
H           -3.68166955452247       -2.03363023658446       -1.95950181691697
H           -3.57713932948997       -1.68355859607795       -0.22717523679296
H           -1.46765713911844        0.03957148084900       -2.53252282837303
H           -0.17387455344951       -1.15870912101754       -2.63066754292639
H           -1.74928440476661       -1.47975320315601       -3.37674984878467
H           -2.41060725936623       -1.84411367484106        1.39269165197294
H           -0.88076410186552       -2.71326250903119        1.28249254891531
H            0.26091349877999       -0.79456456757210        2.45548301713153
H           -1.16791057427952        0.00919482016479        4.27202897925269
H           -2.63825828836022       -0.68298003387361        3.43391924638561
H           -0.82306238677311        0.90842706057778        0.86137545192482
H           -1.30712026665705        1.04410251935482       -0.81628975089154
H           -2.46592004640558        0.52826609701853        0.41998148443626
41
 energy: -48.944201893626 gnorm: 0.004282976265 xtb: 6.7.1 (edcfbbe)
C            1.33519452588665       -0.16553520514442       -0.54844751244447
C            0.49136866532128       -1.14260151046258       -0.26939861714566
C           -1.00193407055919       -1.00768632767146       -0.05948633713171
N           -1.72700516481048       -1.65434242170739       -1.27086590881959
C           -1.43678087125718       -3.12352897944755       -1.45554123490567
C           -1.75725595645401       -4.13519429921167       -0.37906764189753
C           -3.04612759464869       -4.40081566283746        0.07195009869148
C           -3.27301519863747       -5.40982551698804        0.99343238093065
C           -2.22792235119966       -6.19598416122182        1.44667717138396
C           -0.94534287624096       -5.96296148986839        0.98113893821901
C           -0.71372232990638       -4.93774317037038        0.08280267231377
C           -3.18496697080242       -1.42402449095352       -1.21078248876557
C           -1.24606674517354       -1.02227449270864       -2.52479898666168
C           -1.33905341142994       -1.72604623614829        1.26570894698586
C           -0.80190598724232       -0.96062838067941        2.44390487595007
C           -1.55649479371093       -0.52365174076597        3.43351746015827
C           -1.43919316924763        0.45139178429921        0.08766793714925
H            1.02887124135741        0.85454879619267       -0.69946860673543
H            2.39135585688697       -0.35464111879093       -0.62938582841702
H            0.87688142705986       -2.13957210380168       -0.10279329839856
H           -1.98154410996624       -3.42169770359081       -2.35749535619470
H           -0.37173398096982       -3.20352468915718       -1.67903186313671
H           -3.89411422034991       -3.84518638609632       -0.29714195535184
H           -4.27716356931522       -5.59097212924146        1.34455944814295
H           -2.41380701177076       -6.99544409851031        2.14580878450752
H           -0.12404823306709       -6.58116770941945        1.31029581249354
H            0.29142103476824       -4.77273206234490       -0.27744316718333
H           -3.40925789251190       -0.37825540473148       -1.40569027296946
H           -3.67838655311637       -2.02440185458752       -1.97317179794267
H           -3.58150516826457       -1.69287823873431       -0.23664531809413
H           -1.47220607364576        0.03936586041001       -2.53408962012383
H           -0.17041256368966       -1.14980594085518       -2.62559614715537
H           -1.73972721162271       -1.48111087961655       -3.37855479623373
H           -2.41471822255671       -1.84259416747563        1.39587777808328
H           -0.88833242137098       -2.71883735098917        1.28284505179134
H            0.26674230314116       -0.80211196439241        2.44357905565402
H           -1.14457549909248        0.00540864644014        4.27280145865738
H           -2.62216991914251       -0.68134406821073        3.44513489915367
H           -0.82442580666524        0.90522057818312        0.85932491551106
H           -1.31943996065980        1.03994660391528       -0.81529968680112
H           -2.46848914532242        0.51926968729337        0.42795875673501
41
 energy: -48.944396518023 gnorm: 0.003370589173 xtb: 6.7.1 (edcfbbe)
C            1.33300058752747       -0.17092084447728       -0.54673972602137
C            0.48812035712388       -1.14671074722559       -0.26665844033243
C           -1.00441887140321       -1.01051537220207       -0.06025817439039
N           -1.72780131426904       -1.65564759081717       -1.27432438926887
C           -1.44096976425702       -3.12604677594115       -1.46388757326089
C           -1.75771732540525       -4.13546955546947       -0.38567302515178
C           -3.04950662726304       -4.41268921124916        0.04964901224528
C           -3.27671141505940       -5.41390603105171        0.97931410007196
C           -2.22771735293814       -6.18047394539089        1.45757537083061
C           -0.94275237828827       -5.93899614987984        1.00351810361793
C           -0.71180689540666       -4.92236730428436        0.09520457793147
C           -3.18486137394280       -1.42561185334866       -1.21486207160316
C           -1.24360611323875       -1.02166461322265       -2.52453485032488
C           -1.34503700936251       -1.72677333488178        1.26512772441982
C           -0.79704616160746       -0.96495534819181        2.44145330891001
C           -1.53919632421833       -0.52734343346473        3.43992349063589
C           -1.44266388399635        0.44743038685008        0.08727670598401
H            1.02809108070251        0.84908988396281       -0.70105611344003
H            2.38933624561235       -0.35956984786856       -0.62210585299177
H            0.87227911664685       -2.14336409257778       -0.09557009275144
H           -1.99689137474414       -3.41805099839030       -2.36081555969240
H           -0.37827848740963       -3.20978531238377       -1.69724367014633
H           -3.89910658865789       -3.87171852500927       -0.33849248226930
H           -4.28340342176927       -5.60503743521945        1.31775987121967
H           -2.41231074857703       -6.97209683921384        2.16586761096240
H           -0.11974491159029       -6.54443681323734        1.34975508104543
H            0.29483566678341       -4.75161033878032       -0.25739840368664
H           -3.40804241883973       -0.37706425304877       -1.39594475816775
H           -3.67648855370985       -2.01406743541885       -1.98774336822884
H           -3.58469800922194       -1.70922812594895       -0.24641180172704
H           -1.47733079064036        0.03824854360803       -2.53757083082852
H           -0.16682017189605       -1.14113792425151       -2.61871339394611
H           -1.72861098744096       -1.48436960223681       -3.38136493449991
H           -2.42147403983058       -1.83452738399029        1.39724229827499
H           -0.90009771592375       -2.72203535884883        1.28197127476709
H            0.27240695863743       -0.81415961007737        2.43470725625157
H           -1.11564947390880       -0.00770829492850        4.27898154500034
H           -2.60552064682605       -0.68147887195278        3.46426150923468
H           -0.82284123030383        0.90345945743712        0.85407725988688
H           -1.33058057737255        1.03558185708709       -0.81678169392914
H           -2.46937705371426        0.51375904553732        0.43527510537182
41
 energy: -48.944579175665 gnorm: 0.002442326843 xtb: 6.7.1 (edcfbbe)
C            1.33039002547456       -0.17566557715724       -0.54523291935641
C            0.48404806163422       -1.15035859722419       -0.26471188046093
C           -1.00740538752757       -1.01157177256287       -0.06032472076638
N           -1.72871821402014       -1.65725036072152       -1.27794354981876
C           -1.44421186972450       -3.12858483739166       -1.47178784135238
C           -1.75726604779511       -4.13605014391818       -0.39206265138293