      -----------------------------------------------------------      
     |                   =====================                   |     
     |                           x T B                           |     
     |                   =====================                   |     
     |                         S. Grimme                         |     
     |          Mulliken Center for Theoretical Chemistry        |     
     |                    University of Bonn                     |     
      -----------------------------------------------------------      

   * xtb version 6.7.1 (edcfbbe) compiled by 'conda@3ef47c1a292c' on 2024-11-25

   xtb is free software: you can redistribute it and/or modify it under
   the terms of the GNU Lesser General Public License as published by
   the Free Software Foundation, either version 3 of the License, or
   (at your option) any later version.
   
   xtb is distributed in the hope that it will be useful,
   but WITHOUT ANY WARRANTY; without even the implied warranty of
   MERCHANTABILITY or FITNESS FOR A PARTICULAR PURPOSE.  See the
   GNU Lesser General Public License for more details.
   
   Cite this work as:
   * C. Bannwarth, E. Caldeweyher, S. Ehlert, A. Hansen, P. Pracht,
     J. Seibert, S. Spicher, S. Grimme, WIREs Comput. Mol. Sci., 2020, 11,
     e01493. DOI: 10.1002/wcms.1493
   
   for GFN2-xTB:
   * C. Bannwarth, S. Ehlert and S. Grimme., J. Chem. Theory Comput., 2019,
     15, 1652-1671. DOI: 10.1021/acs.jctc.8b01176
   for GFN1-xTB:
   * S. Grimme, C. Bannwarth, P. Shushkov, J. Chem. Theory Comput., 2017,
     13, 1989-2009. DOI: 10.1021/acs.jctc.7b00118
   for GFN0-xTB:
   * P. Pracht, E. Caldeweyher, S. Ehlert, S. Grimme, ChemRxiv, 2019, preprint.
     DOI: 10.26434/chemrxiv.8326202.v1
   for GFN-FF:
   * S. Spicher and S. Grimme, Angew. Chem. Int. Ed., 2020, 59, 15665-15673.
     DOI: 10.1002/anie.202004239
   
   for ALPB and GBSA implicit solvation:
   * S. Ehlert, M. Stahn, S. Spicher, S. Grimme, J. Chem. Theory Comput.,
     2021, 17, 4250-4261. DOI: 10.1021/acs.jctc.1c00471
   
   for ddCOSMO and CPCM-X implicit solvation:
   * M. Stahn, S. Ehlert, S. Grimme, J. Phys. Chem. A,
     2023, XX, XXXX-XXXX. DOI: 10.1021/acs.jpca.3c04382
   
   for DFT-D4:
   * E. Caldeweyher, C. Bannwarth and S. Grimme, J. Chem. Phys., 2017,
     147, 034112. DOI: 10.1063/1.4993215
   * E. Caldeweyher, S. Ehlert, A. Hansen, H. Neugebauer, S. Spicher,
     C. Bannwarth and S. Grimme, J. Chem. Phys., 2019, 150, 154122.
     DOI: 10.1063/1.5090222
   * E. Caldeweyher, J.-M. Mewes, S. Ehlert and S. Grimme, Phys. Chem. Chem. Phys.
     2020, 22, 8499-8512. DOI: 10.1039/D0CP00502A
   
   for sTDA-xTB:
   * S. Grimme and C. Bannwarth, J. Chem. Phys., 2016, 145, 054103.
     DOI: 10.1063/1.4959605
   
   in the mass-spec context:
   * V. Asgeirsson, C. Bauer and S. Grimme, Chem. Sci., 2017, 8, 4879.
     DOI: 10.1039/c7sc00601b
   * J. Koopman and S. Grimme, ACS Omega 2019, 4, 12, 15120-15133.
     DOI: 10.1021/acsomega.9b02011
   
   for metadynamics refer to:
   * S. Grimme, J. Chem. Theory Comput., 2019, 155, 2847-2862
     DOI: 10.1021/acs.jctc.9b00143
   
   for SPH calculations refer to:
   * S. Spicher and S. Grimme, J. Chem. Theory Comput., 2021, 17, 1701-1714
     DOI: 10.1021/acs.jctc.0c01306
   
   for ONIOM refer to:
   * C. Plett, A. Katbashev, S. Ehlert, S. Grimme, M. Bursch,
     Phys. Chem. Chem. Phys., 2023, 25, 17860-17868. DOI: 10.1039/D3CP02178E
   
   for DIPRO refer to:
   * J. Kohn, N. Gildemeister, S. Grimme, D. Fazzi, A. Hansen,
     J. Chem. Phys., 2023, just accepted.
   
   for PTB refer to:
   * S. Grimme, M. Mueller, A. Hansen, J. Chem. Phys., 2023, 158, 124111.
     DOI: 10.1063/5.0137838
   
   with help from (in alphabetical order)
   P. Atkinson, C. Bannwarth, F. Bohle, G. Brandenburg, E. Caldeweyher
   M. Checinski, S. Dohm, S. Ehlert, S. Ehrlich, I. Gerasimov, C. Hölzer
   A. Katbashev, J. Kohn, J. Koopman, C. Lavigne, S. Lehtola, F. März, M. Müller,
   F. Musil, H. Neugebauer, J. Pisarek, C. Plett, P. Pracht, F. Pultar,
   J. Seibert, P. Shushkov, S. Spicher, M. Stahn, M. Steiner, T. Strunk,
   J. Stückrath, T. Rose, and J. Unsleber
   
 * started run on 2024/12/20 at 07:19:29.737     
   ID    Z sym.   atoms
    1    6 C      1-3, 6-12, 16, 17, 20-26
    2    7 N      4, 13, 18, 27
    3    8 O      5, 14, 15, 19, 28, 29
    4    1 H      30-48

           -------------------------------------------------
          |                Calculation Setup                |
           -------------------------------------------------

          program call               : xtb C1320.xyz --opt --namespace C1320 --charge +1
          calculation namespace      : C1320
          coordinate file            : C1320.xyz
          omp threads                :                     8


           -------------------------------------------------
          |                 G F N 2 - x T B                 |
           -------------------------------------------------

        Reference                      10.1021/acs.jctc.8b01176
      * Hamiltonian:
        H0-scaling (s, p, d)           1.850000    2.230000    2.230000
        zeta-weighting                 0.500000
      * Dispersion:
        s8                             2.700000
        a1                             0.520000
        a2                             5.000000
        s9                             5.000000
      * Repulsion:
        kExp                           1.500000    1.000000
        rExp                           1.000000
      * Coulomb:
        alpha                          2.000000
        third order                    shell-resolved
        anisotropic                    true
        a3                             3.000000
        a5                             4.000000
        cn-shift                       1.200000
        cn-exp                         4.000000
        max-rad                        5.000000


          ...................................................
          :                      SETUP                      :
          :.................................................:
          :  # basis functions                 135          :
          :  # atomic orbitals                 135          :
          :  # shells                           77          :
          :  # electrons                       150          :
          :  max. iterations                   250          :
          :  Hamiltonian                  GFN2-xTB          :
          :  restarted?                      false          :
          :  GBSA solvation                  false          :
          :  PC potential                    false          :
          :  electronic temp.          300.0000000     K    :
          :  accuracy                    1.0000000          :
          :  -> integral cutoff          0.2500000E+02      :
          :  -> integral neglect         0.1000000E-07      :
          :  -> SCF convergence          0.1000000E-05 Eh   :
          :  -> wf. convergence          0.1000000E-03 e    :
          :  Broyden damping             0.4000000          :
          :  net charge                          1          :
          :  unpaired electrons                  0          :
          ...................................................

 iter      E             dE          RMSdq      gap      omega  full diag
   1    -86.3516912 -0.863517E+02  0.529E+00    2.99       0.0  T
   2    -86.7296460 -0.377955E+00  0.266E+00    2.82       1.0  T
   3    -86.7365974 -0.695135E-02  0.143E+00    2.81       1.0  T
   4    -86.7345952  0.200214E-02  0.385E-01    2.81       1.0  T
   5    -86.7389209 -0.432566E-02  0.108E-01    2.83       1.0  T
   6    -86.7391483 -0.227353E-03  0.578E-02    2.83       1.0  T
   7    -86.7391864 -0.380966E-04  0.235E-02    2.84       1.0  T
   8    -86.7391964 -0.100745E-04  0.997E-03    2.84       1.4  T
   9    -86.7391979 -0.144613E-05  0.306E-03    2.84       4.7  T
  10    -86.7391979 -0.421621E-07  0.161E-03    2.84       9.0  T
  11    -86.7391980 -0.425125E-07  0.675E-04    2.84      21.4  T
  12    -86.7391980 -0.817808E-08  0.222E-04    2.84      65.0  T

   *** convergence criteria satisfied after 12 iterations ***

         #    Occupation            Energy/Eh            Energy/eV
      -------------------------------------------------------------
         1        2.0000           -0.9172125             -24.9586
       ...           ...                  ...                  ...
        69        2.0000           -0.5474427             -14.8967
        70        2.0000           -0.5471117             -14.8877
        71        2.0000           -0.5428665             -14.7721
        72        2.0000           -0.5358655             -14.5816
        73        2.0000           -0.5325267             -14.4908
        74        2.0000           -0.5276601             -14.3584
        75        2.0000           -0.5246234             -14.2757 (HOMO)
        76                         -0.4203471             -11.4382 (LUMO)
        77                         -0.4193772             -11.4118
        78                         -0.4173985             -11.3580
        79                         -0.3957661             -10.7693
        80                         -0.3707320             -10.0881
       ...                                ...                  ...
       135                          0.4705995              12.8057
      -------------------------------------------------------------
                  HL-Gap            0.1042763 Eh            2.8375 eV
             Fermi-level           -0.4724853 Eh          -12.8570 eV

 SCC (total)                   0 d,  0 h,  0 min,  0.046 sec
 SCC setup                      ...        0 min,  0.000 sec (  0.467%)
 Dispersion                     ...        0 min,  0.001 sec (  1.602%)
 classical contributions        ...        0 min,  0.000 sec (  0.179%)
 integral evaluation            ...        0 min,  0.003 sec (  6.677%)
 iterations                     ...        0 min,  0.033 sec ( 72.111%)
 molecular gradient             ...        0 min,  0.009 sec ( 18.578%)
 printout                       ...        0 min,  0.000 sec (  0.346%)

         :::::::::::::::::::::::::::::::::::::::::::::::::::::
         ::                     SUMMARY                     ::
         :::::::::::::::::::::::::::::::::::::::::::::::::::::
         :: total energy             -85.763681428440 Eh    ::
         :: gradient norm              0.111158863333 Eh/a0 ::
         :: HOMO-LUMO gap              2.837502861764 eV    ::
         ::.................................................::
         :: SCC energy               -86.739006977412 Eh    ::
         :: -> isotropic ES            0.192546446320 Eh    ::
         :: -> anisotropic ES          0.007645986890 Eh    ::
         :: -> anisotropic XC          0.024568925979 Eh    ::
         :: -> dispersion             -0.048759849240 Eh    ::
         :: repulsion energy           0.975325548973 Eh    ::
         :: add. restraining           0.000000000000 Eh    ::
         :: total charge               1.000000000000 e     ::
         :::::::::::::::::::::::::::::::::::::::::::::::::::::

      ----------------------------------------------------------- 
     |                   =====================                   |
     |                        A N C O P T                        |
     |                   =====================                   |
     |               Approximate Normal Coordinate               |
     |                Rational Function Optimizer                |
      ----------------------------------------------------------- 
      ----------------------------------------------------------- 
     |                   =====================                   |
     |                        A N C O P T                        |
     |                   =====================                   |
     |               Approximate Normal Coordinate               |
     |                Rational Function Optimizer                |
      ----------------------------------------------------------- 

          ...................................................
          :                      SETUP                      :
          :.................................................:
          :   optimization level            normal          :
          :   max. optcycles                   200          :
          :   ANC micro-cycles                  20          :
          :   degrees of freedom               138          :
          :.................................................:
          :   RF solver                   davidson          :
          :   write xtbopt.log                true          :
          :   linear?                        false          :
          :   energy convergence         0.5000000E-05 Eh   :
          :   grad. convergence          0.1000000E-02 Eh/α :
          :   maxmium RF displ.          1.0000000          :
          :   Hlow (freq-cutoff)         0.1000000E-01      :
          :   Hmax (freq-cutoff)         5.0000000          :
          :   S6 in model hess.         20.0000000          :
          ...................................................

generating ANC from exact Hessian ...
Using Lindh-Hessian (1995)
 Shifting diagonal of input Hessian by    9.8631256852481485E-003
 Lowest  eigenvalues of input Hessian
    0.000000    0.000000    0.000000    0.000000    0.000000    0.000000
    0.010000    0.010065    0.010214    0.010374    0.010690    0.010893
    0.011682    0.011794    0.012692    0.013156    0.014747    0.016100
 Highest eigenvalues
    2.044736    2.045864    2.094776    2.121407    2.459261    2.460455


........................................................................
.............................. CYCLE    1 ..............................
........................................................................

 iter      E             dE          RMSdq      gap      omega  full diag
   1    -86.7391980 -0.867392E+02  0.102E-04    2.84       0.0  T
   2    -86.7391980 -0.818687E-10  0.646E-05    2.84     223.4  T
   3    -86.7391980 -0.414531E-10  0.427E-05    2.84     337.7  T
     SCC iter.                  ...        0 min,  0.008 sec
     gradient                   ...        0 min,  0.008 sec
 * total energy  :   -85.7636814 Eh     change       -0.3978897E-09 Eh
   gradient norm :     0.1111620 Eh/α   predicted     0.0000000E+00 (-100.00%)
   displ. norm   :     0.3069376 α      lambda       -0.1955725E-01
   maximum displ.:     0.1021913 α      in ANC's #74, #14, #39, ...

........................................................................
.............................. CYCLE    2 ..............................
........................................................................

 iter      E             dE          RMSdq      gap      omega  full diag
   1    -86.8086267 -0.868086E+02  0.241E-01    2.94       0.0  T
   2    -86.8092805 -0.653725E-03  0.126E-01    2.94       1.0  T
   3    -86.8092981 -0.176198E-04  0.668E-02    2.95       1.0  T
   4    -86.8092974  0.706067E-06  0.190E-02    2.96       1.0  T
   5    -86.8093075 -0.101194E-04  0.661E-03    2.96       2.2  T
   6    -86.8093081 -0.550227E-06  0.370E-03    2.95       3.9  T
   7    -86.8093081 -0.907867E-07  0.994E-04    2.95      14.5  T
   8    -86.8093082 -0.106433E-07  0.531E-04    2.95      27.2  T
     SCC iter.                  ...        0 min,  0.018 sec
     gradient                   ...        0 min,  0.008 sec
 * total energy  :   -85.7770794 Eh     change       -0.1339801E-01 Eh
   gradient norm :     0.0434211 Eh/α   predicted    -0.1070478E-01 ( -20.10%)
   displ. norm   :     0.2785689 α      lambda       -0.5484540E-02
   maximum displ.:     0.1177285 α      in ANC's #14, #10, #39, ...

........................................................................
.............................. CYCLE    3 ..............................
........................................................................

 iter      E             dE          RMSdq      gap      omega  full diag
   1    -86.8419112 -0.868419E+02  0.171E-01    3.01       0.0  T
   2    -86.8422214 -0.310241E-03  0.894E-02    3.00       1.0  T
   3    -86.8422327 -0.113417E-04  0.480E-02    3.01       1.0  T
   4    -86.8422338 -0.103467E-05  0.131E-02    3.01       1.1  T
   5    -86.8422395 -0.568324E-05  0.452E-03    3.01       3.2  T
   6    -86.8422398 -0.380326E-06  0.247E-03    3.01       5.9  T
   7    -86.8422399 -0.304463E-07  0.706E-04    3.01      20.4  T
   8    -86.8422399 -0.679930E-08  0.367E-04    3.01      39.4  T
     SCC iter.                  ...        0 min,  0.019 sec
     gradient                   ...        0 min,  0.008 sec
 * total energy  :   -85.7800316 Eh     change       -0.2952154E-02 Eh
   gradient norm :     0.0158799 Eh/α   predicted    -0.2956479E-02 (   0.15%)
   displ. norm   :     0.2315583 α      lambda       -0.1599977E-02
   maximum displ.:     0.1168446 α      in ANC's #10, #14, #12, ...

........................................................................
.............................. CYCLE    4 ..............................
........................................................................

 iter      E             dE          RMSdq      gap      omega  full diag
   1    -86.8463085 -0.868463E+02  0.105E-01    2.99       0.0  T
   2    -86.8463455 -0.370585E-04  0.596E-02    3.00       1.0  T
   3    -86.8463450  0.508394E-06  0.223E-02    3.00       1.0  T
   4    -86.8463492 -0.413554E-05  0.461E-03    3.00       3.1  T
   5    -86.8463497 -0.579474E-06  0.206E-03    3.00       7.0  T
   6    -86.8463498 -0.266773E-07  0.909E-04    3.00      15.9  T
   7    -86.8463498 -0.933569E-08  0.301E-04    3.00      48.0  T
     SCC iter.                  ...        0 min,  0.016 sec
     gradient                   ...        0 min,  0.008 sec
 * total energy  :   -85.7802653 Eh     change       -0.2336640E-03 Eh
   gradient norm :     0.0194461 Eh/α   predicted    -0.8428947E-03 ( 260.73%)
   displ. norm   :     0.1267774 α      lambda       -0.1183239E-02
   maximum displ.:     0.0698213 α      in ANC's #10, #14, #8, ...

........................................................................
.............................. CYCLE    5 ..............................
........................................................................

 iter      E             dE          RMSdq      gap      omega  full diag
   1    -86.8425260 -0.868425E+02  0.535E-02    3.00       0.0  T
   2    -86.8425326 -0.665930E-05  0.308E-02    3.00       1.0  T
   3    -86.8425318  0.838223E-06  0.102E-02    3.00       1.4  T
   4    -86.8425334 -0.166004E-05  0.245E-03    3.00       5.9  T
   5    -86.8425336 -0.126955E-06  0.958E-04    3.00      15.1  T
   6    -86.8425336 -0.798330E-08  0.562E-04    3.00      25.7  T
     SCC iter.                  ...        0 min,  0.014 sec
     gradient                   ...        0 min,  0.008 sec
 * total energy  :   -85.7809801 Eh     change       -0.7148892E-03 Eh
   gradient norm :     0.0048785 Eh/α   predicted    -0.6011314E-03 ( -15.91%)
   displ. norm   :     0.1419503 α      lambda       -0.2297387E-03
   maximum displ.:     0.0928877 α      in ANC's #10, #8, #12, ...

........................................................................
.............................. CYCLE    6 ..............................
........................................................................

 iter      E             dE          RMSdq      gap      omega  full diag
   1    -86.8411299 -0.868411E+02  0.334E-02    2.99       0.0  T
   2    -86.8411319 -0.194941E-05  0.193E-02    2.99       1.0  T
   3    -86.8411316  0.283721E-06  0.526E-03    2.99       2.7  T
   4    -86.8411322 -0.552657E-06  0.185E-03    2.99       7.8  T
   5    -86.8411323 -0.948113E-07  0.751E-04    2.99      19.2  T
   6    -86.8411323 -0.150905E-08  0.366E-04    2.99      39.4  T
     SCC iter.                  ...        0 min,  0.014 sec
     gradient                   ...        0 min,  0.008 sec
 * total energy  :   -85.7811480 Eh     change       -0.1678627E-03 Eh
   gradient norm :     0.0032952 Eh/α   predicted    -0.1171845E-03 ( -30.19%)
   displ. norm   :     0.2084725 α      lambda       -0.1910508E-03
   maximum displ.:     0.1317330 α      in ANC's #10, #8, #5, ...

........................................................................
.............................. CYCLE    7 ..............................
........................................................................

 iter      E             dE          RMSdq      gap      omega  full diag
   1    -86.8407263 -0.868407E+02  0.458E-02    2.99       0.0  T
   2    -86.8407279 -0.155697E-05  0.267E-02    2.99       1.0  T
   3    -86.8407274  0.537565E-06  0.558E-03    2.99       2.6  T
   4    -86.8407285 -0.111364E-05  0.203E-03    2.99       7.1  T
   5    -86.8407285 -0.561276E-07  0.987E-04    2.99      14.6  T
   6    -86.8407285 -0.620123E-08  0.313E-04    2.99      46.1  T
     SCC iter.                  ...        0 min,  0.015 sec
     gradient                   ...        0 min,  0.009 sec
 * total energy  :   -85.7812812 Eh     change       -0.1331816E-03 Eh
   gradient norm :     0.0039185 Eh/α   predicted    -0.9968035E-04 ( -25.15%)
   displ. norm   :     0.1868295 α      lambda       -0.1176335E-03
   maximum displ.:     0.1009284 α      in ANC's #10, #5, #4, ...

........................................................................
.............................. CYCLE    8 ..............................
........................................................................

 iter      E             dE          RMSdq      gap      omega  full diag
   1    -86.8413415 -0.868413E+02  0.415E-02    2.99       0.0  T
   2    -86.8413424 -0.976800E-06  0.242E-02    2.99       1.0  T
   3    -86.8413420  0.474446E-06  0.474E-03    2.99       3.0  T
   4    -86.8413429 -0.942602E-06  0.170E-03    2.99       8.5  T
   5    -86.8413429 -0.227508E-07  0.793E-04    2.99      18.2  T
   6    -86.8413429 -0.694126E-08  0.219E-04    2.99      66.0  T
     SCC iter.                  ...        0 min,  0.016 sec
     gradient                   ...        0 min,  0.008 sec
 * total energy  :   -85.7813716 Eh     change       -0.9041443E-04 Eh
   gradient norm :     0.0034613 Eh/α   predicted    -0.6087022E-04 ( -32.68%)
   displ. norm   :     0.2383772 α      lambda       -0.1319362E-03
   maximum displ.:     0.1166991 α      in ANC's #5, #10, #4, ...

........................................................................
.............................. CYCLE    9 ..............................
........................................................................

 iter      E             dE          RMSdq      gap      omega  full diag
   1    -86.8422792 -0.868423E+02  0.544E-02    2.99       0.0  T
   2    -86.8422808 -0.157470E-05  0.318E-02    2.99       1.0  T
   3    -86.8422799  0.949956E-06  0.619E-03    2.99       2.3  T
   4    -86.8422816 -0.170474E-05  0.209E-03    2.99       6.9  T
   5    -86.8422816 -0.351879E-07  0.102E-03    2.99      14.2  T
   6    -86.8422816 -0.960097E-08  0.329E-04    2.99      43.9  T
   7    -86.8422816 -0.268578E-08  0.104E-04    2.99     139.2  T
     SCC iter.                  ...        0 min,  0.016 sec
     gradient                   ...        0 min,  0.012 sec
 * total energy  :   -85.7814656 Eh     change       -0.9399978E-04 Eh
   gradient norm :     0.0030893 Eh/α   predicted    -0.6971858E-04 ( -25.83%)
   displ. norm   :     0.2657983 α      lambda       -0.1387649E-03
   maximum displ.:     0.1442454 α      in ANC's #5, #4, #3, ...

........................................................................
.............................. CYCLE   10 ..............................
........................................................................

 iter      E             dE          RMSdq      gap      omega  full diag
   1    -86.8428881 -0.868429E+02  0.636E-02    2.99       0.0  T
   2    -86.8428910 -0.286010E-05  0.374E-02    2.99       1.0  T
   3    -86.8428882  0.280638E-05  0.106E-02    2.99       1.4  T
   4    -86.8428924 -0.417982E-05  0.243E-03    2.99       5.9  T
   5    -86.8428924 -0.493988E-07  0.143E-03    2.99      10.1  T
   6    -86.8428925 -0.305103E-07  0.347E-04    2.99      41.6  T
   7    -86.8428925 -0.181197E-08  0.119E-04    2.99     121.0  T
     SCC iter.                  ...        0 min,  0.017 sec
     gradient                   ...        0 min,  0.009 sec
 * total energy  :   -85.7815281 Eh     change       -0.6248883E-04 Eh
   gradient norm :     0.0045381 Eh/α   predicted    -0.7428548E-04 (  18.88%)
   displ. norm   :     0.1465993 α      lambda       -0.1013795E-03
   maximum displ.:     0.0901211 α      in ANC's #5, #3, #4, ...

........................................................................
.............................. CYCLE   11 ..............................
........................................................................

 iter      E             dE          RMSdq      gap      omega  full diag
   1    -86.8431098 -0.868431E+02  0.373E-02    2.99       0.0  T
   2    -86.8431110 -0.119700E-05  0.220E-02    2.98       1.0  T
   3    -86.8431098  0.127832E-05  0.717E-03    2.98       2.0  T
   4    -86.8431116 -0.185518E-05  0.145E-03    2.98      10.0  T
   5    -86.8431116 -0.295835E-07  0.865E-04    2.98      16.7  T
   6    -86.8431116 -0.847763E-08  0.145E-04    2.98      99.6  T
     SCC iter.                  ...        0 min,  0.014 sec
     gradient                   ...        0 min,  0.008 sec
 * total energy  :   -85.7815987 Eh     change       -0.7063416E-04 Eh
   gradient norm :     0.0023228 Eh/α   predicted    -0.5178375E-04 ( -26.69%)
   displ. norm   :     0.1421326 α      lambda       -0.6542194E-04
   maximum displ.:     0.0896341 α      in ANC's #5, #3, #1, ...

........................................................................
.............................. CYCLE   12 ..............................
........................................................................

 iter      E             dE          RMSdq      gap      omega  full diag
   1    -86.8429658 -0.868430E+02  0.362E-02    2.98       0.0  T
   2    -86.8429666 -0.782576E-06  0.213E-02    2.98       1.0  T
   3    -86.8429659  0.675080E-06  0.509E-03    2.98       2.8  T
   4    -86.8429670 -0.109170E-05  0.140E-03    2.98      10.3  T
   5    -86.8429670 -0.102769E-07  0.781E-04    2.98      18.5  T
   6    -86.8429671 -0.106404E-07  0.154E-04    2.98      93.4  T
     SCC iter.                  ...        0 min,  0.014 sec
     gradient                   ...        0 min,  0.009 sec
 * total energy  :   -85.7816528 Eh     change       -0.5405931E-04 Eh
   gradient norm :     0.0023518 Eh/α   predicted    -0.3337320E-04 ( -38.27%)
   displ. norm   :     0.2090768 α      lambda       -0.8979126E-04
   maximum displ.:     0.1281578 α      in ANC's #5, #3, #1, ...

........................................................................
.............................. CYCLE   13 ..............................
........................................................................

 iter      E             dE          RMSdq      gap      omega  full diag
   1    -86.8423879 -0.868424E+02  0.531E-02    2.98       0.0  T
   2    -86.8423893 -0.137618E-05  0.311E-02    2.98       1.0  T
   3    -86.8423887  0.562237E-06  0.548E-03    2.98       2.6  T
   4    -86.8423900 -0.128811E-05  0.199E-03    2.98       7.3  T
   5    -86.8423900 -0.195916E-07  0.937E-04    2.98      15.4  T
   6    -86.8423900 -0.134403E-07  0.255E-04    2.98      56.6  T
     SCC iter.                  ...        0 min,  0.018 sec
     gradient                   ...        0 min,  0.008 sec
 * total energy  :   -85.7817263 Eh     change       -0.7349722E-04 Eh
   gradient norm :     0.0031291 Eh/α   predicted    -0.4685967E-04 ( -36.24%)
   displ. norm   :     0.2889290 α      lambda       -0.1026468E-03
   maximum displ.:     0.1757926 α      in ANC's #5, #3, #1, ...

........................................................................
.............................. CYCLE   14 ..............................
........................................................................

 iter      E             dE          RMSdq      gap      omega  full diag
   1    -86.8413085 -0.868413E+02  0.729E-02    2.97       0.0  T
   2    -86.8413107 -0.224438E-05  0.427E-02    2.97       1.0  T
   3    -86.8413105  0.243320E-06  0.603E-03    2.97       2.4  T
   4    -86.8413119 -0.138405E-05  0.258E-03    2.97       5.6  T
   5    -86.8413119 -0.414890E-07  0.116E-03    2.97      12.4  T
   6    -86.8413119 -0.173811E-07  0.319E-04    2.97      45.3  T
   7    -86.8413119 -0.241502E-08  0.124E-04    2.97     116.7  T
     SCC iter.                  ...        0 min,  0.016 sec
     gradient                   ...        0 min,  0.008 sec
 * total energy  :   -85.7818077 Eh     change       -0.8139656E-04 Eh
   gradient norm :     0.0039696 Eh/α   predicted    -0.5561004E-04 ( -31.68%)
   displ. norm   :     0.3561997 α      lambda       -0.1075709E-03
   maximum displ.:     0.2168802 α      in ANC's #5, #3, #1, ...

........................................................................
.............................. CYCLE   15 ..............................
........................................................................

 iter      E             dE          RMSdq      gap      omega  full diag
   1    -86.8404204 -0.868404E+02  0.906E-02    2.98       0.0  T
   2    -86.8404231 -0.274484E-05  0.531E-02    2.97       1.0  T
   3    -86.8404231  0.330012E-07  0.649E-03    2.97       2.2  T
   4    -86.8404246 -0.148123E-05  0.287E-03    2.97       5.0  T
   5    -86.8404246 -0.336308E-07  0.125E-03    2.97      11.6  T
   6    -86.8404246 -0.282434E-07  0.297E-04    2.97      48.5  T
   7    -86.8404246 -0.179938E-08  0.140E-04    2.97     103.3  T
     SCC iter.                  ...        0 min,  0.016 sec
     gradient                   ...        0 min,  0.008 sec
 * total energy  :   -85.7818882 Eh     change       -0.8048112E-04 Eh
   gradient norm :     0.0042774 Eh/α   predicted    -0.6061513E-04 ( -24.68%)
   displ. norm   :     0.3322059 α      lambda       -0.9617084E-04
   maximum displ.:     0.1998526 α      in ANC's #5, #3, #1, ...

........................................................................
.............................. CYCLE   16 ..............................
........................................................................

 iter      E             dE          RMSdq      gap      omega  full diag
   1    -86.8406265 -0.868406E+02  0.858E-02    2.98       0.0  T
   2    -86.8406286 -0.214283E-05  0.503E-02    2.98       1.0  T
   3    -86.8406287 -0.991256E-07  0.555E-03    2.98       2.6  T
   4    -86.8406298 -0.101240E-05  0.248E-03    2.98       5.8  T
   5    -86.8406298 -0.186848E-07  0.111E-03    2.98      13.0  T
   6    -86.8406298 -0.242854E-07  0.282E-04    2.98      51.1  T
   7    -86.8406298 -0.176104E-08  0.121E-04    2.98     119.3  T
     SCC iter.                  ...        0 min,  0.016 sec
     gradient                   ...        0 min,  0.008 sec
 * total energy  :   -85.7819608 Eh     change       -0.7262769E-04 Eh
   gradient norm :     0.0036621 Eh/α   predicted    -0.5339440E-04 ( -26.48%)
   displ. norm   :     0.3005540 α      lambda       -0.9087544E-04
   maximum displ.:     0.1791818 α      in ANC's #5, #3, #1, ...

........................................................................
.............................. CYCLE   17 ..............................
........................................................................

 iter      E             dE          RMSdq      gap      omega  full diag
   1    -86.8420157 -0.868420E+02  0.795E-02    2.98       0.0  T
   2    -86.8420175 -0.178316E-05  0.467E-02    2.98       1.0  T
   3    -86.8420174  0.683712E-07  0.499E-03    2.98       2.9  T
   4    -86.8420183 -0.896015E-06  0.220E-03    2.98       6.6  T
   5    -86.8420183 -0.417910E-07  0.105E-03    2.98      13.7  T
   6    -86.8420183 -0.910666E-08  0.364E-04    2.98      39.7  T
   7    -86.8420183 -0.371490E-08  0.102E-04    2.98     141.3  T
     SCC iter.                  ...        0 min,  0.016 sec
     gradient                   ...        0 min,  0.008 sec
 * total energy  :   -85.7820279 Eh     change       -0.6708527E-04 Eh
   gradient norm :     0.0027210 Eh/α   predicted    -0.4954498E-04 ( -26.15%)
   displ. norm   :     0.3786912 α      lambda       -0.7639890E-04
   maximum displ.:     0.2324144 α      in ANC's #5, #3, #1, ...

........................................................................
.............................. CYCLE   18 ..............................
........................................................................

 iter      E             dE          RMSdq      gap      omega  full diag
   1    -86.8407639 -0.868408E+02  0.101E-01    2.97       0.0  T
   2    -86.8407677 -0.376638E-05  0.591E-02    2.97       1.0  T
   3    -86.8407683 -0.645418E-06  0.605E-03    2.97       2.4  T
   4    -86.8407692 -0.866761E-06  0.327E-03    2.97       4.4  T
   5    -86.8407693 -0.155147E-06  0.151E-03    2.97       9.5  T
   6    -86.8407693 -0.903879E-08  0.444E-04    2.97      32.5  T
   7    -86.8407693 -0.583002E-08  0.149E-04    2.97      96.8  T
     SCC iter.                  ...        0 min,  0.016 sec
     gradient                   ...        0 min,  0.008 sec
 * total energy  :   -85.7820712 Eh     change       -0.4333674E-04 Eh
   gradient norm :     0.0052594 Eh/α   predicted    -0.4367917E-04 (   0.79%)
   displ. norm   :     0.2671650 α      lambda       -0.1150898E-03
   maximum displ.:     0.1529429 α      in ANC's #5, #3, #1, ...

........................................................................
.............................. CYCLE   19 ..............................
........................................................................

 iter      E             dE          RMSdq      gap      omega  full diag
   1    -86.8448402 -0.868448E+02  0.774E-02    2.99       0.0  T
   2    -86.8448464 -0.615769E-05  0.453E-02    2.98       1.0  T
   3    -86.8448437  0.263776E-05  0.108E-02    2.98       1.3  T
   4    -86.8448473 -0.351949E-05  0.287E-03    2.98       5.0  T
   5    -86.8448476 -0.284381E-06  0.119E-03    2.98      12.2  T
   6    -86.8448476 -0.178987E-07  0.659E-04    2.98      21.9  T
   7    -86.8448476 -0.404114E-08  0.120E-04    2.98     120.8  T
     SCC iter.                  ...        0 min,  0.017 sec
     gradient                   ...        0 min,  0.008 sec
 * total energy  :   -85.7821201 Eh     change       -0.4892177E-04 Eh
   gradient norm :     0.0044710 Eh/α   predicted    -0.6165417E-04 (  26.03%)
   displ. norm   :     0.2671537 α      lambda       -0.5792010E-04
   maximum displ.:     0.1722269 α      in ANC's #5, #3, #1, ...

........................................................................
.............................. CYCLE   20 ..............................
........................................................................

 iter      E             dE          RMSdq      gap      omega  full diag
   1    -86.8425290 -0.868425E+02  0.745E-02    2.98       0.0  T
   2    -86.8425314 -0.232890E-05  0.437E-02    2.98       1.0  T
   3    -86.8425302  0.112841E-05  0.746E-03    2.98       1.9  T
   4    -86.8425323 -0.209016E-05  0.228E-03    2.97       6.3  T
   5    -86.8425324 -0.501924E-07  0.122E-03    2.97      11.8  T
   6    -86.8425324 -0.141203E-07  0.474E-04    2.97      30.5  T
   7    -86.8425324 -0.466933E-08  0.107E-04    2.97     134.3  T
     SCC iter.                  ...        0 min,  0.016 sec
     gradient                   ...        0 min,  0.008 sec
 * total energy  :   -85.7821629 Eh     change       -0.4278813E-04 Eh
   gradient norm :     0.0034610 Eh/α   predicted    -0.3102856E-04 ( -27.48%)
   displ. norm   :     0.3145597 α      lambda       -0.1140240E-03
   maximum displ.:     0.1969742 α      in ANC's #5, #3, #7, ...
 * RMSD in coord.:     0.5601510 α      energy gain  -0.1848150E-01 Eh

generating ANC from exact Hessian ...
Using Lindh-Hessian (1995)
 Shifting diagonal of input Hessian by    9.8560642480972176E-003
 Lowest  eigenvalues of input Hessian
    0.000000    0.000000    0.000000    0.000000    0.000000    0.000000
    0.010000    0.010085    0.010254    0.010405    0.010767    0.010994
    0.011786    0.012058    0.013121    0.013420    0.015233    0.016688
 Highest eigenvalues
    2.180634    2.192373    2.263569    2.294514    2.660954    2.676259


........................................................................
.............................. CYCLE   21 ..............................
........................................................................

 iter      E             dE          RMSdq      gap      omega  full diag
   1    -86.8409701 -0.868410E+02  0.939E-02    2.95       0.0  T
   2    -86.8409775 -0.737100E-05  0.549E-02    2.95       1.0  T
   3    -86.8409780 -0.500702E-06  0.697E-03    2.95       2.1  T
   4    -86.8409786 -0.636382E-06  0.347E-03    2.95       4.2  T
   5    -86.8409789 -0.305345E-06  0.166E-03    2.95       8.7  T
   6    -86.8409789 -0.380869E-08  0.654E-04    2.95      22.1  T
   7    -86.8409790 -0.129447E-07  0.153E-04    2.95      94.3  T
     SCC iter.                  ...        0 min,  0.017 sec
     gradient                   ...        0 min,  0.008 sec
 * total energy  :   -85.7822132 Eh     change       -0.5030964E-04 Eh
   gradient norm :     0.0071739 Eh/α   predicted     0.0000000E+00 (-100.00%)
   displ. norm   :     0.0403938 α      lambda       -0.5978614E-04
   maximum displ.:     0.0253363 α      in ANC's #4, #5, #6, ...

........................................................................
.............................. CYCLE   22 ..............................
........................................................................

 iter      E             dE          RMSdq      gap      omega  full diag
   1    -86.8430994 -0.868431E+02  0.160E-02    2.97       0.0  T
   2    -86.8431017 -0.228508E-05  0.875E-03    2.97       1.6  T
   3    -86.8431018 -0.571982E-07  0.409E-03    2.97       3.5  T
   4    -86.8431018  0.691885E-08  0.141E-03    2.97      10.2  T
   5    -86.8431018 -0.666037E-07  0.435E-04    2.97      33.2  T
   6    -86.8431018 -0.553129E-09  0.242E-04    2.97      59.7  T
     SCC iter.                  ...        0 min,  0.014 sec
     gradient                   ...        0 min,  0.008 sec
 * total energy  :   -85.7822628 Eh     change       -0.4955942E-04 Eh
   gradient norm :     0.0021313 Eh/α   predicted    -0.3560979E-04 ( -28.15%)
   displ. norm   :     0.0750387 α      lambda       -0.4743897E-04
   maximum displ.:     0.0485493 α      in ANC's #4, #5, #6, ...

........................................................................
.............................. CYCLE   23 ..............................
........................................................................

 iter      E             dE          RMSdq      gap      omega  full diag
   1    -86.8446134 -0.868446E+02  0.206E-02    2.99       0.0  T
   2    -86.8446149 -0.150818E-05  0.118E-02    2.98       1.2  T
   3    -86.8446149 -0.323695E-07  0.360E-03    2.98       4.0  T
   4    -86.8446150 -0.566180E-07  0.128E-03    2.98      11.2  T
   5    -86.8446150 -0.558274E-07  0.507E-04    2.98      28.5  T
   6    -86.8446150 -0.481833E-09  0.263E-04    2.98      54.9  T
     SCC iter.                  ...        0 min,  0.014 sec
     gradient                   ...        0 min,  0.008 sec
 * total energy  :   -85.7822886 Eh     change       -0.2584122E-04 Eh
   gradient norm :     0.0029926 Eh/α   predicted    -0.2386840E-04 (  -7.63%)
   displ. norm   :     0.0932765 α      lambda       -0.4242187E-04
   maximum displ.:     0.0577785 α      in ANC's #4, #5, #6, ...

........................................................................
.............................. CYCLE   24 ..............................
........................................................................

 iter      E             dE          RMSdq      gap      omega  full diag
   1    -86.8450701 -0.868451E+02  0.233E-02    2.99       0.0  T
   2    -86.8450706 -0.468813E-06  0.136E-02    2.99       1.1  T
   3    -86.8450706 -0.428087E-07  0.184E-03    2.99       7.9  T
   4    -86.8450707 -0.596776E-07  0.978E-04    2.99      14.8  T
   5    -86.8450707 -0.276834E-07  0.483E-04    2.99      29.9  T
     SCC iter.                  ...        0 min,  0.012 sec
     gradient                   ...        0 min,  0.008 sec
 * total energy  :   -85.7823177 Eh     change       -0.2905648E-04 Eh
   gradient norm :     0.0045650 Eh/α   predicted    -0.2139888E-04 ( -26.35%)
   displ. norm   :     0.1236073 α      lambda       -0.4823074E-04
   maximum displ.:     0.0743144 α      in ANC's #4, #5, #6, ...

........................................................................
.............................. CYCLE   25 ..............................
........................................................................

 iter      E             dE          RMSdq      gap      omega  full diag
   1    -86.8444992 -0.868445E+02  0.293E-02    2.99       0.0  T
   2    -86.8444997 -0.493760E-06  0.172E-02    2.99       1.0  T
   3    -86.8444998 -0.950341E-07  0.222E-03    2.99       6.5  T
   4    -86.8444999 -0.110315E-06  0.119E-03    2.99      12.1  T
   5    -86.8445000 -0.193359E-07  0.544E-04    2.99      26.6  T
   6    -86.8445000 -0.150793E-08  0.151E-04    2.99      95.8  T
     SCC iter.                  ...        0 min,  0.015 sec
     gradient                   ...        0 min,  0.008 sec
 * total energy  :   -85.7823623 Eh     change       -0.4459819E-04 Eh
   gradient norm :     0.0039345 Eh/α   predicted    -0.2448446E-04 ( -45.10%)
   displ. norm   :     0.3035499 α      lambda       -0.1195079E-03
   maximum displ.:     0.1784335 α      in ANC's #4, #5, #6, ...

........................................................................
.............................. CYCLE   26 ..............................
........................................................................

 iter      E             dE          RMSdq      gap      omega  full diag
   1    -86.8423303 -0.868423E+02  0.732E-02    2.98       0.0  T
   2    -86.8423342 -0.389393E-05  0.429E-02    2.98       1.0  T
   3    -86.8423349 -0.766705E-06  0.563E-03    2.98       2.6  T
   4    -86.8423354 -0.492115E-06  0.314E-03    2.98       4.6  T
   5    -86.8423356 -0.159985E-06  0.152E-03    2.98       9.5  T
   6    -86.8423356 -0.769730E-08  0.442E-04    2.98      32.7  T
   7    -86.8423356 -0.625963E-08  0.139E-04    2.98     103.8  T
     SCC iter.                  ...        0 min,  0.016 sec
     gradient                   ...        0 min,  0.008 sec
 * total energy  :   -85.7824580 Eh     change       -0.9574449E-04 Eh
   gradient norm :     0.0029985 Eh/α   predicted    -0.6525961E-04 ( -31.84%)
   displ. norm   :     0.3566383 α      lambda       -0.1020405E-03
   maximum displ.:     0.2121141 α      in ANC's #4, #5, #6, ...

........................................................................
.............................. CYCLE   27 ..............................
........................................................................

 iter      E             dE          RMSdq      gap      omega  full diag
   1    -86.8400549 -0.868401E+02  0.871E-02    2.98       0.0  T
   2    -86.8400589 -0.404277E-05  0.510E-02    2.98       1.0  T
   3    -86.8400598 -0.928876E-06  0.610E-03    2.98       2.4  T
   4    -86.8400605 -0.657805E-06  0.341E-03    2.98       4.2  T
   5    -86.8400606 -0.152068E-06  0.157E-03    2.98       9.2  T
   6    -86.8400606 -0.982919E-08  0.425E-04    2.98      33.9  T
   7    -86.8400607 -0.548869E-08  0.157E-04    2.98      91.8  T
     SCC iter.                  ...        0 min,  0.021 sec
     gradient                   ...        0 min,  0.009 sec
 * total energy  :   -85.7825309 Eh     change       -0.7285109E-04 Eh
   gradient norm :     0.0060842 Eh/α   predicted    -0.5750879E-04 ( -21.06%)
   displ. norm   :     0.2711179 α      lambda       -0.8915387E-04
   maximum displ.:     0.1667394 α      in ANC's #4, #5, #6, ...

........................................................................
.............................. CYCLE   28 ..............................
........................................................................

 iter      E             dE          RMSdq      gap      omega  full diag
   1    -86.8396527 -0.868397E+02  0.671E-02    2.98       0.0  T
   2    -86.8396544 -0.164358E-05  0.394E-02    2.98       1.0  T
   3    -86.8396542  0.164928E-06  0.539E-03    2.98       2.7  T
   4    -86.8396552 -0.947849E-06  0.218E-03    2.98       6.6  T
   5    -86.8396552 -0.230080E-07  0.105E-03    2.98      13.8  T
   6    -86.8396552 -0.159215E-07  0.309E-04    2.98      46.7  T
   7    -86.8396552 -0.238742E-08  0.106E-04    2.98     135.8  T
     SCC iter.                  ...        0 min,  0.043 sec
     gradient                   ...        0 min,  0.012 sec
 * total energy  :   -85.7826044 Eh     change       -0.7349417E-04 Eh
   gradient norm :     0.0067833 Eh/α   predicted    -0.4785450E-04 ( -34.89%)
   displ. norm   :     0.4488599 α      lambda       -0.2071555E-03
   maximum displ.:     0.2824696 α      in ANC's #4, #5, #6, ...

........................................................................
.............................. CYCLE   29 ..............................
........................................................................

 iter      E             dE          RMSdq      gap      omega  full diag
   1    -86.8410521 -0.868411E+02  0.114E-01    2.97       0.0  T
   2    -86.8410602 -0.813659E-05  0.669E-02    2.97       1.0  T
   3    -86.8410554  0.483771E-05  0.150E-02    2.97       1.0  T
   4    -86.8410627 -0.730553E-05  0.338E-03    2.98       4.3  T
   5    -86.8410628 -0.139720E-06  0.191E-03    2.98       7.6  T
   6    -86.8410629 -0.330828E-07  0.906E-04    2.98      15.9  T
   7    -86.8410629 -0.132480E-07  0.186E-04    2.98      77.7  T
     SCC iter.                  ...        0 min,  0.036 sec
     gradient                   ...        0 min,  0.009 sec
 * total energy  :   -85.7827578 Eh     change       -0.1534649E-03 Eh
   gradient norm :     0.0064837 Eh/α   predicted    -0.1244441E-03 ( -18.91%)
   displ. norm   :     0.5983077 α      lambda       -0.2448210E-03
   maximum displ.:     0.3740095 α      in ANC's #4, #5, #6, ...

........................................................................
.............................. CYCLE   30 ..............................
........................................................................

 iter      E             dE          RMSdq      gap      omega  full diag
   1    -86.8404574 -0.868405E+02  0.152E-01    3.01       0.0  T
   2    -86.8404675 -0.101037E-04  0.895E-02    3.00       1.0  T
   3    -86.8404595  0.796277E-05  0.175E-02    2.99       1.0  T
   4    -86.8404717 -0.121739E-04  0.474E-03    2.99       3.0  T
   5    -86.8404719 -0.244046E-06  0.262E-03    2.99       5.5  T
   6    -86.8404720 -0.839638E-07  0.935E-04    2.99      15.4  T
   7    -86.8404720 -0.128452E-07  0.232E-04    2.99      62.1  T
     SCC iter.                  ...        0 min,  0.017 sec
     gradient                   ...        0 min,  0.009 sec
 * total energy  :   -85.7829514 Eh     change       -0.1935549E-03 Eh
   gradient norm :     0.0054699 Eh/α   predicted    -0.1662265E-03 ( -14.12%)
   displ. norm   :     0.5131081 α      lambda       -0.2369134E-03
   maximum displ.:     0.3247052 α      in ANC's #4, #5, #6, ...

........................................................................
.............................. CYCLE   31 ..............................
........................................................................

 iter      E             dE          RMSdq      gap      omega  full diag
   1    -86.8439771 -0.868440E+02  0.134E-01    3.02       0.0  T
   2    -86.8439830 -0.597696E-05  0.789E-02    3.01       1.0  T
   3    -86.8439796  0.344705E-05  0.114E-02    3.01       1.3  T
   4    -86.8439849 -0.534035E-05  0.354E-03    3.01       4.1  T
   5    -86.8439852 -0.235441E-06  0.180E-03    3.01       8.0  T
   6    -86.8439852 -0.194983E-07  0.781E-04    3.01      18.5  T
   7    -86.8439852 -0.121816E-07  0.170E-04    3.01      84.9  T
     SCC iter.                  ...        0 min,  0.017 sec
     gradient                   ...        0 min,  0.009 sec
 * total energy  :   -85.7831210 Eh     change       -0.1696465E-03 Eh
   gradient norm :     0.0067374 Eh/α   predicted    -0.1496421E-03 ( -11.79%)
   displ. norm   :     0.7321033 α      lambda       -0.2529311E-03
   maximum displ.:     0.4512789 α      in ANC's #4, #5, #6, ...

........................................................................
.............................. CYCLE   32 ..............................
........................................................................

 iter      E             dE          RMSdq      gap      omega  full diag
   1    -86.8364959 -0.868365E+02  0.196E-01    3.03       0.0  T
   2    -86.8365100 -0.140919E-04  0.115E-01    3.03       1.0  T
   3    -86.8365090  0.976420E-06  0.134E-02    3.02       1.1  T
   4    -86.8365141 -0.515745E-05  0.543E-03    3.02       2.7  T
   5    -86.8365145 -0.396586E-06  0.269E-03    3.02       5.4  T
   6    -86.8365146 -0.147199E-07  0.114E-03    3.02      12.7  T
   7    -86.8365146 -0.325822E-07  0.288E-04    3.02      50.2  T
   8    -86.8365146 -0.526597E-09  0.145E-04    3.02      99.6  T
     SCC iter.                  ...        0 min,  0.021 sec
     gradient                   ...        0 min,  0.009 sec
 * total energy  :   -85.7832158 Eh     change       -0.9471813E-04 Eh
   gradient norm :     0.0123205 Eh/α   predicted    -0.1942443E-03 ( 105.08%)
   displ. norm   :     0.1664054 α      lambda       -0.3944478E-03
   maximum displ.:     0.0705750 α      in ANC's #4, #12, #10, ...

........................................................................
.............................. CYCLE   33 ..............................
........................................................................

 iter      E             dE          RMSdq      gap      omega  full diag
   1    -86.8456166 -0.868456E+02  0.653E-02    3.00       0.0  T
   2    -86.8456443 -0.276942E-04  0.397E-02    3.00       1.0  T
   3    -86.8456480 -0.368503E-05  0.212E-02    3.01       1.0  T
   4    -86.8456517 -0.364354E-05  0.440E-03    3.01       3.3  T
   5    -86.8456524 -0.691631E-06  0.168E-03    3.01       8.6  T
   6    -86.8456524 -0.845225E-07  0.809E-04    3.01      17.8  T
   7    -86.8456524 -0.210292E-08  0.245E-04    3.01      59.0  T
     SCC iter.                  ...        0 min,  0.017 sec
     gradient                   ...        0 min,  0.009 sec
 * total energy  :   -85.7833682 Eh     change       -0.1524695E-03 Eh
   gradient norm :     0.0105873 Eh/α   predicted    -0.2026873E-03 (  32.94%)
   displ. norm   :     0.3514552 α      lambda       -0.2248027E-03
   maximum displ.:     0.2129415 α      in ANC's #4, #5, #6, ...

........................................................................
.............................. CYCLE   34 ..............................
........................................................................

 iter      E             dE          RMSdq      gap      omega  full diag
   1    -86.8440220 -0.868440E+02  0.102E-01    3.02       0.0  T
   2    -86.8440415 -0.195169E-04  0.608E-02    3.02       1.0  T
   3    -86.8440323  0.924569E-05  0.268E-02    3.02       1.0  T
   4    -86.8440486 -0.162957E-04  0.371E-03    3.02       3.9  T
   5    -86.8440492 -0.631098E-06  0.152E-03    3.02       9.5  T
   6    -86.8440492 -0.925502E-08  0.497E-04    3.02      29.0  T
   7    -86.8440492 -0.221711E-08  0.183E-04    3.02      79.1  T
     SCC iter.                  ...        0 min,  0.017 sec
     gradient                   ...        0 min,  0.009 sec
 * total energy  :   -85.7835213 Eh     change       -0.1531003E-03 Eh
   gradient norm :     0.0042828 Eh/α   predicted    -0.1262878E-03 ( -17.51%)
   displ. norm   :     0.5232015 α      lambda       -0.1884987E-03
   maximum displ.:     0.3080229 α      in ANC's #4, #5, #6, ...

........................................................................
.............................. CYCLE   35 ..............................
........................................................................

 iter      E             dE          RMSdq      gap      omega  full diag
   1    -86.8404545 -0.868405E+02  0.152E-01    3.04       0.0  T
   2    -86.8404663 -0.118951E-04  0.893E-02    3.03       1.0  T
   3    -86.8404543  0.120062E-04  0.200E-02    3.02       1.0  T
   4    -86.8404701 -0.157110E-04  0.415E-03    3.02       3.5  T
   5    -86.8404704 -0.368723E-06  0.223E-03    3.02       6.5  T
   6    -86.8404705 -0.725571E-07  0.106E-03    3.02      13.6  T
   7    -86.8404705 -0.111539E-07  0.206E-04    3.02      70.1  T
   8    -86.8404705 -0.351037E-09  0.115E-04    3.02     125.6  T
     SCC iter.                  ...        0 min,  0.020 sec
     gradient                   ...        0 min,  0.009 sec
 * total energy  :   -85.7836363 Eh     change       -0.1149697E-03 Eh
   gradient norm :     0.0089314 Eh/α   predicted    -0.1200518E-03 (   4.42%)
   displ. norm   :     0.2460956 α      lambda       -0.1644134E-03
   maximum displ.:     0.1318065 α      in ANC's #5, #4, #10, ...

........................................................................
.............................. CYCLE   36 ..............................
........................................................................

 iter      E             dE          RMSdq      gap      omega  full diag
   1    -86.8429827 -0.868430E+02  0.797E-02    3.03       0.0  T
   2    -86.8429842 -0.149851E-05  0.468E-02    3.03       1.0  T
   3    -86.8429826  0.154734E-05  0.716E-03    3.03       2.0  T
   4    -86.8429847 -0.205804E-05  0.138E-03    3.03      10.5  T
   5    -86.8429847 -0.292201E-07  0.790E-04    3.03      18.3  T
   6    -86.8429847 -0.776015E-08  0.301E-04    3.03      48.0  T
     SCC iter.                  ...        0 min,  0.014 sec
     gradient                   ...        0 min,  0.009 sec
 * total energy  :   -85.7837670 Eh     change       -0.1307364E-03 Eh
   gradient norm :     0.0091896 Eh/α   predicted    -0.8718642E-04 ( -33.31%)
   displ. norm   :     0.5116091 α      lambda       -0.3074989E-03
   maximum displ.:     0.2921525 α      in ANC's #5, #4, #6, ...

........................................................................
.............................. CYCLE   37 ..............................
........................................................................

 iter      E             dE          RMSdq      gap      omega  full diag
   1    -86.8435777 -0.868436E+02  0.172E-01    3.03       0.0  T
   2    -86.8435913 -0.135369E-04  0.101E-01    3.03       1.0  T
   3    -86.8435773  0.139777E-04  0.219E-02    3.03       1.0  T
   4    -86.8435949 -0.175731E-04  0.308E-03    3.03       4.7  T
   5    -86.8435951 -0.254750E-06  0.160E-03    3.03       9.0  T
   6    -86.8435952 -0.487466E-07  0.826E-04    3.03      17.5  T
   7    -86.8435952 -0.466191E-08  0.205E-04    3.03      70.4  T
     SCC iter.                  ...        0 min,  0.017 sec
     gradient                   ...        0 min,  0.009 sec
 * total energy  :   -85.7839856 Eh     change       -0.2185628E-03 Eh
   gradient norm :     0.0067669 Eh/α   predicted    -0.1939961E-03 ( -11.24%)
   displ. norm   :     0.3911450 α      lambda       -0.3218447E-03
   maximum displ.:     0.2440896 α      in ANC's #5, #4, #1, ...

........................................................................
.............................. CYCLE   38 ..............................
........................................................................

 iter      E             dE          RMSdq      gap      omega  full diag
   1    -86.8502237 -0.868502E+02  0.140E-01    3.03       0.0  T
   2    -86.8502313 -0.766865E-05  0.819E-02    3.03       1.0  T
   3    -86.8502233  0.804884E-05  0.163E-02    3.03       1.0  T
   4    -86.8502337 -0.103586E-04  0.283E-03    3.03       5.1  T
   5    -86.8502338 -0.183882E-06  0.157E-03    3.03       9.2  T
   6    -86.8502339 -0.284123E-07  0.674E-04    3.03      21.4  T
   7    -86.8502339 -0.564333E-08  0.146E-04    3.03      98.6  T
     SCC iter.                  ...        0 min,  0.017 sec
     gradient                   ...        0 min,  0.009 sec
 * total energy  :   -85.7841392 Eh     change       -0.1535499E-03 Eh
   gradient norm :     0.0074968 Eh/α   predicted    -0.1855445E-03 (  20.84%)
   displ. norm   :     0.6593480 α      lambda       -0.3629097E-03
   maximum displ.:     0.3735014 α      in ANC's #5, #4, #6, ...

........................................................................
.............................. CYCLE   39 ..............................
........................................................................

 iter      E             dE          RMSdq      gap      omega  full diag
   1    -86.8406965 -0.868407E+02  0.219E-01    3.04       0.0  T
   2    -86.8407040 -0.754122E-05  0.128E-01    3.04       1.0  T
   3    -86.8406959  0.811643E-05  0.147E-02    3.03       1.0  T
   4    -86.8407070 -0.111393E-04  0.377E-03    3.03       3.8  T
   5    -86.8407072 -0.195808E-06  0.198E-03    3.03       7.3  T
   6    -86.8407072 -0.285273E-07  0.787E-04    3.03      18.4  T
   7    -86.8407073 -0.127612E-07  0.193E-04    3.03      74.7  T
     SCC iter.                  ...        0 min,  0.017 sec
     gradient                   ...        0 min,  0.009 sec
 * total energy  :   -85.7843256 Eh     change       -0.1864393E-03 Eh
   gradient norm :     0.0095011 Eh/α   predicted    -0.2603444E-03 (  39.64%)
   displ. norm   :     0.1198196 α      lambda       -0.2176082E-03
   maximum displ.:     0.0502020 α      in ANC's #5, #1, #7, ...

........................................................................
.............................. CYCLE   40 ..............................
........................................................................

 iter      E             dE          RMSdq      gap      omega  full diag
   1    -86.8424410 -0.868424E+02  0.440E-02    3.03       0.0  T
   2    -86.8424450 -0.401529E-05  0.257E-02    3.03       1.0  T
   3    -86.8424437  0.134950E-05  0.911E-03    3.03       1.6  T
   4    -86.8424457 -0.200462E-05  0.206E-03    3.04       7.0  T
   5    -86.8424458 -0.137501E-06  0.857E-04    3.04      16.8  T
   6    -86.8424458 -0.145759E-07  0.462E-04    3.04      31.2  T
     SCC iter.                  ...        0 min,  0.015 sec
     gradient                   ...        0 min,  0.010 sec
 * total energy  :   -85.7844720 Eh     change       -0.1463908E-03 Eh
   gradient norm :     0.0063967 Eh/α   predicted    -0.1103666E-03 ( -24.61%)
   displ. norm   :     0.4443647 α      lambda       -0.3323264E-03
   maximum displ.:     0.2710780 α      in ANC's #5, #4, #1, ...

........................................................................
.............................. CYCLE   41 ..............................
........................................................................

 iter      E             dE          RMSdq      gap      omega  full diag
   1    -86.8433607 -0.868434E+02  0.160E-01    3.04       0.0  T
   2    -86.8433665 -0.581965E-05  0.940E-02    3.04       1.0  T
   3    -86.8433615  0.503431E-05  0.129E-02    3.03       1.1  T
   4    -86.8433687 -0.717379E-05  0.321E-03    3.03       4.5  T
   5    -86.8433688 -0.128962E-06  0.185E-03    3.03       7.8  T
   6    -86.8433689 -0.384320E-07  0.562E-04    3.03      25.7  T
   7    -86.8433689 -0.706024E-08  0.168E-04    3.03      86.1  T
     SCC iter.                  ...        0 min,  0.017 sec
     gradient                   ...        0 min,  0.009 sec
 * total energy  :   -85.7846492 Eh     change       -0.1771801E-03 Eh
   gradient norm :     0.0091439 Eh/α   predicted    -0.1989753E-03 (  12.30%)
   displ. norm   :     0.4039774 α      lambda       -0.3298283E-03
   maximum displ.:     0.2147983 α      in ANC's #5, #1, #7, ...

........................................................................
.............................. CYCLE   42 ..............................
........................................................................

 iter      E             dE          RMSdq      gap      omega  full diag
   1    -86.8445766 -0.868446E+02  0.137E-01    3.03       0.0  T
   2    -86.8445808 -0.422576E-05  0.802E-02    3.03       1.0  T
   3    -86.8445791  0.170009E-05  0.990E-03    3.03       1.5  T
   4    -86.8445825 -0.339995E-05  0.283E-03    3.03       5.1  T
   5    -86.8445825 -0.147612E-07  0.159E-03    3.03       9.1  T
   6    -86.8445825 -0.375744E-07  0.448E-04    3.03      32.2  T
   7    -86.8445825 -0.378611E-08  0.151E-04    3.03      95.3  T
     SCC iter.                  ...        0 min,  0.041 sec
     gradient                   ...        0 min,  0.009 sec
 * total energy  :   -85.7848631 Eh     change       -0.2139082E-03 Eh
   gradient norm :     0.0074106 Eh/α   predicted    -0.1918274E-03 ( -10.32%)
   displ. norm   :     0.5772160 α      lambda       -0.3450576E-03
   maximum displ.:     0.3092793 α      in ANC's #5, #1, #4, ...
 * RMSD in coord.:     1.0759213 α      energy gain  -0.2700146E-02 Eh

generating ANC from exact Hessian ...
Using Lindh-Hessian (1995)
 Shifting diagonal of input Hessian by    9.8635251604886533E-003
 Lowest  eigenvalues of input Hessian
    0.000000    0.000000    0.000000    0.000000    0.000000    0.000000
    0.010000    0.010093    0.010310    0.010365    0.010802    0.010932
    0.011840    0.012303    0.012609    0.013903    0.015380    0.015784
 Highest eigenvalues
    2.187242    2.191094    2.261128    2.292732    2.664748    2.668235


........................................................................
.............................. CYCLE   43 ..............................
........................................................................

 iter      E             dE          RMSdq      gap      omega  full diag
   1    -86.8405830 -0.868406E+02  0.200E-01    3.02       0.0  T
   2    -86.8405928 -0.978143E-05  0.117E-01    3.02       1.0  T
   3    -86.8405872  0.564272E-05  0.148E-02    3.02       1.0  T
   4    -86.8405962 -0.904189E-05  0.385E-03    3.02       3.7  T
   5    -86.8405963 -0.854811E-07  0.207E-03    3.02       7.0  T
   6    -86.8405964 -0.439423E-07  0.838E-04    3.02      17.2  T
   7    -86.8405964 -0.204350E-07  0.218E-04    3.02      66.3  T
     SCC iter.                  ...        0 min,  0.017 sec
     gradient                   ...        0 min,  0.009 sec
 * total energy  :   -85.7849536 Eh     change       -0.9053677E-04 Eh
   gradient norm :     0.0133473 Eh/α   predicted     0.0000000E+00 (-100.00%)
   displ. norm   :     0.0627722 α      lambda       -0.3358238E-03
   maximum displ.:     0.0333647 α      in ANC's #5, #3, #1, ...

........................................................................
.............................. CYCLE   44 ..............................
........................................................................

 iter      E             dE          RMSdq      gap      omega  full diag
   1    -86.8457777 -0.868458E+02  0.337E-02    3.03       0.0  T
   2    -86.8457804 -0.277016E-05  0.195E-02    3.03       1.0  T
   3    -86.8457799  0.543338E-06  0.676E-03    3.03       2.1  T
   4    -86.8457808 -0.888517E-06  0.170E-03    3.03       8.5  T
   5    -86.8457808 -0.781864E-07  0.689E-04    3.03      20.9  T
   6    -86.8457808 -0.463054E-08  0.373E-04    3.03      38.7  T
     SCC iter.                  ...        0 min,  0.015 sec
     gradient                   ...        0 min,  0.009 sec
 * total energy  :   -85.7851565 Eh     change       -0.2028890E-03 Eh
   gradient norm :     0.0050196 Eh/α   predicted    -0.1685739E-03 ( -16.91%)
   displ. norm   :     0.0853161 α      lambda       -0.1445041E-03
   maximum displ.:     0.0540109 α      in ANC's #5, #3, #1, ...

........................................................................
.............................. CYCLE   45 ..............................
........................................................................

 iter      E             dE          RMSdq      gap      omega  full diag
   1    -86.8488479 -0.868488E+02  0.343E-02    3.03       0.0  T
   2    -86.8488493 -0.146554E-05  0.200E-02    3.04       1.0  T
   3    -86.8488487  0.629199E-06  0.533E-03    3.04       2.7  T
   4    -86.8488496 -0.943468E-06  0.150E-03    3.04       9.6  T
   5    -86.8488497 -0.533401E-07  0.752E-04    3.04      19.2  T
   6    -86.8488497 -0.284818E-08  0.347E-04    3.04      41.6  T
     SCC iter.                  ...        0 min,  0.015 sec
     gradient                   ...        0 min,  0.009 sec
 * total energy  :   -85.7851906 Eh     change       -0.3406626E-04 Eh
   gradient norm :     0.0050735 Eh/α   predicted    -0.7277853E-04 ( 113.64%)
   displ. norm   :     0.0552968 α      lambda       -0.8675301E-04
   maximum displ.:     0.0374977 α      in ANC's #5, #3, #1, ...

........................................................................
.............................. CYCLE   46 ..............................
........................................................................

 iter      E             dE          RMSdq      gap      omega  full diag
   1    -86.8483453 -0.868483E+02  0.202E-02    3.04       0.0  T
   2    -86.8483457 -0.340735E-06  0.119E-02    3.04       1.2  T
   3    -86.8483455  0.213821E-06  0.325E-03    3.04       4.4  T
   4    -86.8483458 -0.345836E-06  0.761E-04    3.04      19.0  T
   5    -86.8483458 -0.322703E-08  0.456E-04    3.04      31.6  T
     SCC iter.                  ...        0 min,  0.012 sec
     gradient                   ...        0 min,  0.009 sec
 * total energy  :   -85.7852515 Eh     change       -0.6098070E-04 Eh
   gradient norm :     0.0027334 Eh/α   predicted    -0.4350994E-04 ( -28.65%)
   displ. norm   :     0.1054729 α      lambda       -0.6652493E-04
   maximum displ.:     0.0719241 α      in ANC's #5, #3, #1, ...

........................................................................
.............................. CYCLE   47 ..............................
........................................................................

 iter      E             dE          RMSdq      gap      omega  full diag
   1    -86.8472475 -0.868472E+02  0.353E-02    3.04       0.0  T
   2    -86.8472481 -0.662698E-06  0.207E-02    3.04       1.0  T
   3    -86.8472480  0.181130E-06  0.366E-03    3.03       3.9  T
   4    -86.8472484 -0.463304E-06  0.132E-03    3.03      10.9  T
   5    -86.8472484 -0.798532E-08  0.700E-04    3.03      20.6  T
   6    -86.8472484 -0.727687E-08  0.233E-04    3.03      61.9  T
     SCC iter.                  ...        0 min,  0.015 sec
     gradient                   ...        0 min,  0.009 sec
 * total energy  :   -85.7853050 Eh     change       -0.5348638E-04 Eh
   gradient norm :     0.0024085 Eh/α   predicted    -0.3363312E-04 ( -37.12%)
   displ. norm   :     0.1707359 α      lambda       -0.7854660E-04
   maximum displ.:     0.1116197 α      in ANC's #5, #3, #1, ...

........................................................................
.............................. CYCLE   48 ..............................
........................................................................

 iter      E             dE          RMSdq      gap      omega  full diag
   1    -86.8460815 -0.868461E+02  0.555E-02    3.03       0.0  T
   2    -86.8460827 -0.125282E-05  0.325E-02    3.03       1.0  T
   3    -86.8460829 -0.140528E-06  0.404E-03    3.03       3.6  T
   4    -86.8460833 -0.452359E-06  0.205E-03    3.03       7.0  T
   5    -86.8460834 -0.339875E-07  0.898E-04    3.03      16.1  T
   6    -86.8460834 -0.856272E-08  0.300E-04    3.03      48.0  T
     SCC iter.                  ...        0 min,  0.014 sec
     gradient                   ...        0 min,  0.009 sec
 * total energy  :   -85.7853703 Eh     change       -0.6525765E-04 Eh
   gradient norm :     0.0036610 Eh/α   predicted    -0.4041851E-04 ( -38.06%)
   displ. norm   :     0.2226053 α      lambda       -0.8993908E-04
   maximum displ.:     0.1420515 α      in ANC's #5, #3, #1, ...

........................................................................
.............................. CYCLE   49 ..............................
........................................................................

 iter      E             dE          RMSdq      gap      omega  full diag
   1    -86.8452477 -0.868452E+02  0.717E-02    3.03       0.0  T
   2    -86.8452494 -0.170259E-05  0.419E-02    3.03       1.0  T
   3    -86.8452500 -0.577687E-06  0.411E-03    3.03       3.5  T
   4    -86.8452503 -0.290587E-06  0.245E-03    3.03       5.9  T
   5    -86.8452503 -0.601235E-07  0.857E-04    3.03      16.8  T
   6    -86.8452503 -0.838386E-08  0.304E-04    3.03      47.5  T
     SCC iter.                  ...        0 min,  0.015 sec
     gradient                   ...        0 min,  0.009 sec
 * total energy  :   -85.7854456 Eh     change       -0.7531205E-04 Eh
   gradient norm :     0.0048577 Eh/α   predicted    -0.4719843E-04 ( -37.33%)
   displ. norm   :     0.2893862 α      lambda       -0.1149298E-03
   maximum displ.:     0.1833737 α      in ANC's #5, #3, #1, ...

........................................................................
.............................. CYCLE   50 ..............................
........................................................................

 iter      E             dE          RMSdq      gap      omega  full diag
   1    -86.8447774 -0.868448E+02  0.931E-02    3.03       0.0  T
   2    -86.8447798 -0.237414E-05  0.545E-02    3.03       1.0  T
   3    -86.8447805 -0.702049E-06  0.527E-03    3.03       2.7  T
   4    -86.8447811 -0.612257E-06  0.288E-03    3.03       5.0  T
   5    -86.8447811 -0.239070E-07  0.827E-04    3.03      17.4  T
   6    -86.8447811 -0.227367E-07  0.270E-04    3.03      53.6  T
     SCC iter.                  ...        0 min,  0.014 sec
     gradient                   ...        0 min,  0.009 sec
 * total energy  :   -85.7855408 Eh     change       -0.9518757E-04 Eh
   gradient norm :     0.0055445 Eh/α   predicted    -0.6227925E-04 ( -34.57%)
   displ. norm   :     0.4081779 α      lambda       -0.1661164E-03
   maximum displ.:     0.2594725 α      in ANC's #5, #3, #1, ...

........................................................................
.............................. CYCLE   51 ..............................
........................................................................

 iter      E             dE          RMSdq      gap      omega  full diag
   1    -86.8444890 -0.868445E+02  0.132E-01    3.03       0.0  T
   2    -86.8444927 -0.371300E-05  0.771E-02    3.03       1.0  T
   3    -86.8444935 -0.790383E-06  0.684E-03    3.03       2.1  T
   4    -86.8444948 -0.129945E-05  0.366E-03    3.03       3.9  T
   5    -86.8444948 -0.368510E-07  0.124E-03    3.03      11.7  T
   6    -86.8444949 -0.588653E-07  0.305E-04    3.03      47.4  T
   7    -86.8444949 -0.783515E-09  0.157E-04    3.03      91.7  T
     SCC iter.                  ...        0 min,  0.017 sec
     gradient                   ...        0 min,  0.009 sec
 * total energy  :   -85.7856733 Eh     change       -0.1324914E-03 Eh
   gradient norm :     0.0058452 Eh/α   predicted    -0.9689785E-04 ( -26.86%)
   displ. norm   :     0.4367592 α      lambda       -0.2039690E-03
   maximum displ.:     0.2740231 α      in ANC's #5, #1, #3, ...

........................................................................
.............................. CYCLE   52 ..............................
........................................................................

 iter      E             dE          RMSdq      gap      omega  full diag
   1    -86.8454867 -0.868455E+02  0.139E-01    3.03       0.0  T
   2    -86.8454908 -0.414007E-05  0.817E-02    3.03       1.0  T
   3    -86.8454910 -0.134740E-06  0.699E-03    3.03       2.1  T
   4    -86.8454926 -0.158633E-05  0.349E-03    3.03       4.1  T
   5    -86.8454927 -0.162228E-06  0.168E-03    3.03       8.6  T
   6    -86.8454927 -0.183358E-07  0.577E-04    3.03      25.0  T
   7    -86.8454928 -0.104264E-07  0.155E-04    3.03      93.0  T
     SCC iter.                  ...        0 min,  0.017 sec
     gradient                   ...        0 min,  0.009 sec
 * total energy  :   -85.7858354 Eh     change       -0.1620774E-03 Eh
   gradient norm :     0.0044306 Eh/α   predicted    -0.1214416E-03 ( -25.07%)
   displ. norm   :     0.5223939 α      lambda       -0.2239506E-03
   maximum displ.:     0.3254015 α      in ANC's #5, #1, #3, ...

........................................................................
.............................. CYCLE   53 ..............................
........................................................................

 iter      E             dE          RMSdq      gap      omega  full diag
   1    -86.8458198 -0.868458E+02  0.163E-01    3.04       0.0  T
   2    -86.8458269 -0.712803E-05  0.955E-02    3.03       1.0  T
   3    -86.8458187  0.827538E-05  0.163E-02    3.03       1.0  T
   4    -86.8458309 -0.122071E-04  0.441E-03    3.03       3.3  T
   5    -86.8458309 -0.587536E-07  0.242E-03    3.03       6.0  T
   6    -86.8458310 -0.115290E-06  0.452E-04    3.03      31.9  T
   7    -86.8458311 -0.236906E-08  0.194E-04    3.03      74.5  T
     SCC iter.                  ...        0 min,  0.018 sec
     gradient                   ...        0 min,  0.009 sec
 * total energy  :   -85.7860031 Eh     change       -0.1677821E-03 Eh
   gradient norm :     0.0060899 Eh/α   predicted    -0.1425374E-03 ( -15.05%)
   displ. norm   :     0.4702217 α      lambda       -0.3093282E-03
   maximum displ.:     0.2673857 α      in ANC's #5, #1, #3, ...

........................................................................
.............................. CYCLE   54 ..............................
........................................................................

 iter      E             dE          RMSdq      gap      omega  full diag
   1    -86.8513597 -0.868514E+02  0.138E-01    3.02       0.0  T
   2    -86.8513706 -0.108807E-04  0.807E-02    3.02       1.0  T
   3    -86.8513699  0.674082E-06  0.923E-03    3.03       1.6  T
   4    -86.8513718 -0.187374E-05  0.409E-03    3.03       3.5  T
   5    -86.8513722 -0.487790E-06  0.169E-03    3.03       8.6  T
   6    -86.8513722  0.611806E-09  0.793E-04    3.03      18.2  T
   7    -86.8513723 -0.153266E-07  0.171E-04    3.03      84.2  T
     SCC iter.                  ...        0 min,  0.017 sec
     gradient                   ...        0 min,  0.009 sec
 * total energy  :   -85.7861419 Eh     change       -0.1387556E-03 Eh
   gradient norm :     0.0079259 Eh/α   predicted    -0.1888638E-03 (  36.11%)
   displ. norm   :     0.6870300 α      lambda       -0.3205544E-03
   maximum displ.:     0.4297605 α      in ANC's #5, #1, #3, ...

........................................................................
.............................. CYCLE   55 ..............................
........................................................................

 iter      E             dE          RMSdq      gap      omega  full diag
   1    -86.8419212 -0.868419E+02  0.217E-01    3.03       0.0  T
   2    -86.8419526 -0.313887E-04  0.127E-01    3.04       1.0  T
   3    -86.8419515  0.107487E-05  0.162E-02    3.03       1.0  T
   4    -86.8419580 -0.645232E-05  0.724E-03    3.03       2.0  T
   5    -86.8419592 -0.125252E-05  0.357E-03    3.03       4.0  T
   6    -86.8419592  0.188817E-07  0.159E-03    3.03       9.1  T
   7    -86.8419593 -0.102434E-06  0.334E-04    3.03      43.2  T
   8    -86.8419593 -0.432522E-09  0.157E-04    3.03      91.8  T
     SCC iter.                  ...        0 min,  0.019 sec
     gradient                   ...        0 min,  0.009 sec
 * total energy  :   -85.7861744 Eh     change       -0.3251182E-04 Eh
   gradient norm :     0.0143222 Eh/α   predicted    -0.2359313E-03 ( 625.68%)
   displ. norm   :     0.0819844 α      lambda       -0.3488635E-03
   maximum displ.:     0.0519522 α      in ANC's #5, #3, #2, ...

........................................................................
.............................. CYCLE   56 ..............................
........................................................................

 iter      E             dE          RMSdq      gap      omega  full diag
   1    -86.8465711 -0.868466E+02  0.412E-02    3.02       0.0  T
   2    -86.8465833 -0.122032E-04  0.237E-02    3.03       1.0  T
   3    -86.8465837 -0.417331E-06  0.120E-02    3.03       1.2  T
   4    -86.8465850 -0.130110E-05  0.360E-03    3.03       4.0  T
   5    -86.8465852 -0.261157E-06  0.134E-03    3.03      10.8  T
   6    -86.8465853 -0.369417E-07  0.756E-04    3.03      19.1  T
   7    -86.8465853 -0.501035E-08  0.169E-04    3.03      85.3  T
     SCC iter.                  ...        0 min,  0.017 sec
     gradient                   ...        0 min,  0.009 sec
 * total energy  :   -85.7863431 Eh     change       -0.1687171E-03 Eh
   gradient norm :     0.0055936 Eh/α   predicted    -0.1756062E-03 (   4.08%)
   displ. norm   :     0.2063025 α      lambda       -0.1011825E-03
   maximum displ.:     0.1179579 α      in ANC's #1, #3, #5, ...

........................................................................
.............................. CYCLE   57 ..............................
........................................................................

 iter      E             dE          RMSdq      gap      omega  full diag
   1    -86.8483627 -0.868484E+02  0.544E-02    3.03       0.0  T
   2    -86.8483639 -0.126012E-05  0.319E-02    3.03       1.0  T
   3    -86.8483632  0.700144E-06  0.590E-03    3.03       2.4  T
   4    -86.8483644 -0.116939E-05  0.135E-03    3.03      10.7  T
   5    -86.8483644 -0.472102E-08  0.747E-04    3.03      19.3  T
   6    -86.8483644 -0.483280E-08  0.229E-04    3.03      63.1  T
     SCC iter.                  ...        0 min,  0.015 sec
     gradient                   ...        0 min,  0.009 sec
 * total energy  :   -85.7864249 Eh     change       -0.8181020E-04 Eh
   gradient norm :     0.0036279 Eh/α   predicted    -0.5274465E-04 ( -35.53%)
   displ. norm   :     0.6706378 α      lambda       -0.2090443E-03
   maximum displ.:     0.3730077 α      in ANC's #1, #5, #3, ...

........................................................................
.............................. CYCLE   58 ..............................
........................................................................

[...]

          ...................................................
          :                      SETUP                      :
          :.................................................:
          :  # basis functions                 135          :
          :  # atomic orbitals                 135          :
          :  # shells                           77          :
          :  # electrons                       150          :
          :  max. iterations                   250          :
          :  Hamiltonian                  GFN2-xTB          :
          :  restarted?                      false          :
          :  GBSA solvation                  false          :
          :  PC potential                    false          :
          :  electronic temp.          300.0000000     K    :
          :  accuracy                    1.0000000          :
          :  -> integral cutoff          0.2500000E+02      :
          :  -> integral neglect         0.1000000E-07      :
          :  -> SCF convergence          0.1000000E-05 Eh   :
          :  -> wf. convergence          0.1000000E-03 e    :
          :  Broyden damping             0.4000000          :
          :  net charge                          1          :
          :  unpaired electrons                  0          :
          ...................................................

 iter      E             dE          RMSdq      gap      omega  full diag
   1    -86.8494747 -0.868495E+02  0.177E-04    3.05       0.0  T
   2    -86.8494747 -0.503491E-09  0.110E-04    3.05     131.3  T
   3    -86.8494747 -0.258794E-09  0.626E-05    3.05     230.7  T

   *** convergence criteria satisfied after 3 iterations ***

         #    Occupation            Energy/Eh            Energy/eV
      -------------------------------------------------------------
         1        2.0000           -0.9270158             -25.2254
       ...           ...                  ...                  ...
        69        2.0000           -0.5513512             -15.0030
        70        2.0000           -0.5509928             -14.9933
        71        2.0000           -0.5503939             -14.9770
        72        2.0000           -0.5391649             -14.6714
        73        2.0000           -0.5387272             -14.6595
        74        2.0000           -0.5277240             -14.3601
        75        2.0000           -0.5272595             -14.3475 (HOMO)
        76                         -0.4152953             -11.3008 (LUMO)
        77                         -0.4148872             -11.2897
        78                         -0.4070234             -11.0757
        79                         -0.3842827             -10.4569
        80                         -0.3688851             -10.0379
       ...                                ...                  ...
       135                          0.5095691              13.8661
      -------------------------------------------------------------
                  HL-Gap            0.1119642 Eh            3.0467 eV
             Fermi-level           -0.4712774 Eh          -12.8241 eV

 SCC (total)                   0 d,  0 h,  0 min,  0.032 sec
 SCC setup                      ...        0 min,  0.000 sec (  0.338%)
 Dispersion                     ...        0 min,  0.000 sec (  0.908%)
 classical contributions        ...        0 min,  0.000 sec (  0.152%)
 integral evaluation            ...        0 min,  0.002 sec (  6.886%)
 iterations                     ...        0 min,  0.020 sec ( 63.043%)
 molecular gradient             ...        0 min,  0.009 sec ( 26.939%)
 printout                       ...        0 min,  0.001 sec (  1.682%)

         :::::::::::::::::::::::::::::::::::::::::::::::::::::
         ::                     SUMMARY                     ::
         :::::::::::::::::::::::::::::::::::::::::::::::::::::
         :: total energy             -85.787170817986 Eh    ::
         :: gradient norm              0.000775348322 Eh/a0 ::
         :: HOMO-LUMO gap              3.046700917560 eV    ::
         ::.................................................::
         :: SCC energy               -86.848842472156 Eh    ::
         :: -> isotropic ES            0.189275726024 Eh    ::
         :: -> anisotropic ES          0.012113246474 Eh    ::
         :: -> anisotropic XC          0.018944751483 Eh    ::
         :: -> dispersion             -0.050487673794 Eh    ::
         :: repulsion energy           1.061671654170 Eh    ::
         :: add. restraining           0.000000000000 Eh    ::
         :: total charge               1.000000000000 e     ::
         :::::::::::::::::::::::::::::::::::::::::::::::::::::

           -------------------------------------------------
          |                Property Printout                |
           -------------------------------------------------

    * Orbital Energies and Occupations

         #    Occupation            Energy/Eh            Energy/eV
      -------------------------------------------------------------
         1        2.0000           -0.9270158             -25.2254
       ...           ...                  ...                  ...
        63        2.0000           -0.5747921             -15.6409
        64        2.0000           -0.5636167             -15.3368
        65        2.0000           -0.5629599             -15.3189
        66        2.0000           -0.5587978             -15.2057
        67        2.0000           -0.5583407             -15.1932
        68        2.0000           -0.5518127             -15.0156
        69        2.0000           -0.5513512             -15.0030
        70        2.0000           -0.5509928             -14.9933
        71        2.0000           -0.5503939             -14.9770
        72        2.0000           -0.5391649             -14.6714
        73        2.0000           -0.5387272             -14.6595
        74        2.0000           -0.5277240             -14.3601
        75        2.0000           -0.5272595             -14.3475 (HOMO)
        76                         -0.4152953             -11.3008 (LUMO)
        77                         -0.4148872             -11.2897
        78                         -0.4070234             -11.0757
        79                         -0.3842827             -10.4569
        80                         -0.3688851             -10.0379
        81                         -0.3683100             -10.0222
        82                         -0.3469158              -9.4401
        83                         -0.3466661              -9.4333
        84                         -0.2875232              -7.8239
        85                         -0.2378629              -6.4726
        86                         -0.2347804              -6.3887
       ...                                ...                  ...
       135                          0.5095691              13.8661
      -------------------------------------------------------------
                  HL-Gap            0.1119642 Eh            3.0467 eV
             Fermi-level           -0.4712774 Eh          -12.8241 eV

     #   Z          covCN         q      C6AA      α(0)
     1   6 C        3.754    -0.116    22.784     6.806
     2   6 C        3.803    -0.067    21.777     6.644
     3   6 C        3.071     0.074    26.271     8.404
     4   7 N        2.910     0.182    18.207     6.337
     5   8 O        1.768    -0.194    17.223     5.604
     6   6 C        3.689     0.052    19.883     6.382
     7   6 C        2.969     0.000    28.021     8.683
     8   6 C        2.924    -0.032    28.800     8.801
     9   6 C        2.918    -0.019    28.487     8.752
    10   6 C        2.918     0.008    27.833     8.651
    11   6 C        2.918    -0.017    28.435     8.744
    12   6 C        2.923    -0.036    28.892     8.815
    13   7 N        2.758     0.553    13.453     5.447
    14   8 O        0.930    -0.365    20.961     6.140
    15   8 O        0.930    -0.360    20.873     6.127
    16   6 C        3.038    -0.035    28.837     8.808
    17   6 C        3.037    -0.035    28.841     8.809
    18   7 N        2.911     0.183    18.187     6.334
    19   8 O        1.768    -0.191    17.186     5.598
    20   6 C        3.689     0.052    19.886     6.382
    21   6 C        2.968     0.000    28.014     8.682
    22   6 C        2.924    -0.032    28.804     8.801
    23   6 C        2.917    -0.020    28.499     8.754
    24   6 C        2.917     0.008    27.840     8.652
    25   6 C        2.917    -0.017    28.428     8.743
    26   6 C        2.923    -0.036    28.891     8.815
    27   7 N        2.758     0.553    13.451     5.447
    28   8 O        0.930    -0.365    20.969     6.141
    29   8 O        0.930    -0.360    20.869     6.127
    30   1 H        0.925     0.060     2.194     2.317
    31   1 H        0.925     0.082     1.959     2.189
    32   1 H        0.925     0.062     2.174     2.306
    33   1 H        0.925     0.096     1.823     2.112
    34   1 H        0.924     0.098     1.801     2.099
    35   1 H        0.924     0.069     2.100     2.266
    36   1 H        0.924     0.118     1.630     1.997
    37   1 H        0.926     0.060     2.198     2.318
    38   1 H        0.926     0.096     1.823     2.111
    39   1 H        0.926     0.099     1.790     2.092
    40   1 H        0.926     0.061     2.192     2.315
    41   1 H        0.927     0.115     1.652     2.010
    42   1 H        0.927     0.115     1.655     2.012
    43   1 H        0.924     0.069     2.099     2.266
    44   1 H        0.924     0.118     1.631     1.997
    45   1 H        0.926     0.058     2.226     2.333
    46   1 H        0.926     0.095     1.827     2.114
    47   1 H        0.926     0.100     1.787     2.090
    48   1 H        0.926     0.062     2.181     2.309

 Mol. C6AA /au·bohr⁶  :      27756.701548
 Mol. C8AA /au·bohr⁸  :     659027.259806
 Mol. α(0) /au        :        257.683484


Wiberg/Mayer (AO) data.
largest (>0.10) Wiberg bond orders for each atom

 ---------------------------------------------------------------------------
     #   Z sym  total        # sym  WBO       # sym  WBO       # sym  WBO
 ---------------------------------------------------------------------------
     1   6 C    3.981 --    30 H    0.987    32 H    0.985     2 C    0.980
                            31 H    0.978
     2   6 C    3.971 --     3 C    1.029     1 C    0.980    33 H    0.962
                            34 H    0.948
     3   6 C    3.923 --     4 N    1.287    18 N    1.286     2 C    1.029
     4   7 N    3.710 --     3 C    1.287    16 C    1.216     5 O    1.004
     5   8 O    2.144 --     4 N    1.004     6 C    0.940
     6   6 C    3.902 --     7 C    0.998    35 H    0.962     5 O    0.940
                            36 H    0.935
     7   6 C    3.986 --     8 C    1.408    12 C    1.407     6 C    0.998
     8   6 C    3.990 --     9 C    1.450     7 C    1.408    37 H    0.966
                            11 C    0.108
     9   6 C    3.983 --     8 C    1.450    10 C    1.394    38 H    0.958
                            12 C    0.108
    10   6 C    3.970 --    11 C    1.395     9 C    1.394    13 N    0.942
    11   6 C    3.982 --    12 C    1.449    10 C    1.395    39 H    0.957
                             8 C    0.108
    12   6 C    3.989 --    11 C    1.449     7 C    1.407    40 H    0.966
                             9 C    0.108
    13   7 N    3.915 --    15 O    1.470    14 O    1.465    10 C    0.942
    14   8 O    1.956 --    13 N    1.465    15 O    0.380
    15   8 O    1.962 --    13 N    1.470    14 O    0.380
    16   6 C    3.935 --    17 C    1.545     4 N    1.216    41 H    0.955
    17   6 C    3.936 --    16 C    1.545    18 N    1.217    42 H    0.955
    18   7 N    3.710 --     3 C    1.286    17 C    1.217    19 O    1.004
    19   8 O    2.147 --    18 N    1.004    20 C    0.942
    20   6 C    3.903 --    21 C    0.998    43 H    0.961    19 O    0.942
                            44 H    0.935
    21   6 C    3.986 --    22 C    1.409    26 C    1.406    20 C    0.998
    22   6 C    3.990 --    23 C    1.449    21 C    1.409    45 H    0.966
                            25 C    0.108
    23   6 C    3.983 --    22 C    1.449    24 C    1.395    46 H    0.958
                            26 C    0.108
    24   6 C    3.970 --    23 C    1.395    25 C    1.394    27 N    0.942
    25   6 C    3.982 --    26 C    1.451    24 C    1.394    47 H    0.957
                            22 C    0.108
    26   6 C    3.989 --    25 C    1.451    21 C    1.406    48 H    0.966
                            23 C    0.108
    27   7 N    3.915 --    29 O    1.470    28 O    1.465    24 C    0.942
    28   8 O    1.956 --    27 N    1.465    29 O    0.380
    29   8 O    1.962 --    27 N    1.470    28 O    0.380
    30   1 H    0.996 --     1 C    0.987
    31   1 H    0.992 --     1 C    0.978
    32   1 H    0.996 --     1 C    0.985
    33   1 H    0.990 --     2 C    0.962
    34   1 H    0.990 --     2 C    0.948
    35   1 H    0.995 --     6 C    0.962
    36   1 H    0.984 --     6 C    0.935
    37   1 H    0.996 --     8 C    0.966
    38   1 H    0.990 --     9 C    0.958
    39   1 H    0.990 --    11 C    0.957
    40   1 H    0.996 --    12 C    0.966
    41   1 H    0.987 --    16 C    0.955
    42   1 H    0.986 --    17 C    0.955
    43   1 H    0.995 --    20 C    0.961
    44   1 H    0.984 --    20 C    0.935
    45   1 H    0.996 --    22 C    0.966
    46   1 H    0.991 --    23 C    0.958
    47   1 H    0.990 --    25 C    0.957
    48   1 H    0.996 --    26 C    0.966
 ---------------------------------------------------------------------------

Topologies differ in total number of bonds
Writing topology from bond orders to xtbtopo.mol

molecular dipole:
                 x           y           z       tot (Debye)
 q only:        2.063      -0.249      -4.831
   full:        2.056      -0.300      -4.974      13.701
molecular quadrupole (traceless):
                xx          xy          yy          xz          yz          zz
 q only:      -52.558       8.172      29.875     -28.857     -15.161      22.683
  q+dip:      -54.366       5.685      30.184     -29.426     -15.859      24.182
   full:      -54.904       9.321      32.905     -29.990     -17.016      22.000

           -------------------------------------------------
          |                Geometry Summary                 |
           -------------------------------------------------

      molecular mass/u    :      399.3780987
   center of mass at/Å    :        1.5753239      -0.9500620      -4.5028511
  moments of inertia/u·Å² :        0.2145760E+04   0.7339838E+04   0.8270285E+04
rotational constants/cm⁻¹ :        0.7856251E-02   0.2296731E-02   0.2038338E-02

 * 46 selected distances

     #   Z          #   Z                                           value/Å
     1   6 C        2   6 C                                       1.5339165 (max)
     2   6 C        3   6 C                                       1.4789713
     3   6 C        4   7 N                                       1.3399806
     4   7 N        5   8 O                                       1.3634870
     5   8 O        6   6 C                                       1.4241415
     7   6 C        8   6 C                                       1.3916330
     8   6 C        9   6 C                                       1.3813209
     9   6 C       10   6 C                                       1.3876276
    10   6 C       11   6 C                                       1.3876311
     7   6 C       12   6 C                                       1.3913244
    11   6 C       12   6 C                                       1.3821809
    13   7 N       14   8 O                                       1.2079799
    13   7 N       15   8 O                                       1.2068869
     4   7 N       16   6 C                                       1.3568865
    16   6 C       17   6 C                                       1.3662561
     3   6 C       18   7 N                                       1.3402322
    17   6 C       18   7 N                                       1.3565790
    18   7 N       19   8 O                                       1.3629551
    19   8 O       20   6 C                                       1.4234976
    21   6 C       22   6 C                                       1.3916244
    22   6 C       23   6 C                                       1.3814210
    23   6 C       24   6 C                                       1.3875601
    24   6 C       25   6 C                                       1.3878803
    21   6 C       26   6 C                                       1.3916972
    25   6 C       26   6 C                                       1.3820575
    27   7 N       28   8 O                                       1.2078371
    27   7 N       29   8 O                                       1.2065678
     1   6 C       30   1 H                                       1.0865601
     1   6 C       31   1 H                                       1.0850248
     1   6 C       32   1 H                                       1.0861712
     2   6 C       33   1 H                                       1.0900621
     2   6 C       34   1 H                                       1.0920313
     6   6 C       35   1 H                                       1.0963916
     6   6 C       36   1 H                                       1.0947824
     8   6 C       37   1 H                                       1.0797221
     9   6 C       38   1 H                                       1.0791411
    11   6 C       39   1 H                                       1.0792106
    12   6 C       40   1 H                                       1.0796261
    16   6 C       41   1 H                                       1.0699074 (min)
    17   6 C       42   1 H                                       1.0699876
    20   6 C       43   1 H                                       1.0965401
    20   6 C       44   1 H                                       1.0948719
    22   6 C       45   1 H                                       1.0795452
    23   6 C       46   1 H                                       1.0791578
    25   6 C       47   1 H                                       1.0791662
    26   6 C       48   1 H                                       1.0794375

 * 5 distinct bonds (by element types)

   Z      Z             #   av. dist./Å        max./Å        min./Å
   1 H    6 C          19     1.0840704     1.0965401     1.0699074
   6 C    6 C          15     1.4015402     1.5339165     1.3662561
   6 C    7 N           4     1.3484196     1.3568865     1.3399806
   6 C    8 O           2     1.4238196     1.4241415     1.4234976
   7 N    8 O           6     1.2592856     1.3634870     1.2065678


optimized geometry written to: xtbopt.xyz


           -------------------------------------------------
          | TOTAL ENERGY              -85.787170817986 Eh   |
          | GRADIENT NORM               0.000775348322 Eh/α |
          | HOMO-LUMO GAP               3.046700917560 eV   |
           -------------------------------------------------

------------------------------------------------------------------------
 * finished run on 2024/12/20 at 07:19:32.281     
------------------------------------------------------------------------
 total:
 * wall-time:     0 d,  0 h,  0 min,  2.544 sec
 *  cpu-time:     0 d,  0 h,  0 min, 20.080 sec
 * ratio c/w:     7.892 speedup
 SCF:
 * wall-time:     0 d,  0 h,  0 min,  0.046 sec
 *  cpu-time:     0 d,  0 h,  0 min,  0.363 sec
 * ratio c/w:     7.921 speedup
 ANC optimizer:
 * wall-time:     0 d,  0 h,  0 min,  2.479 sec
 *  cpu-time:     0 d,  0 h,  0 min, 19.580 sec
 * ratio c/w:     7.897 speedup

