21
 energy: -22.462521280952 gnorm: 0.056677313950 xtb: 6.7.1 (edcfbbe)
C            1.03199000000000       -0.01494000000000        0.06908000000000
C            0.33131000000000       -1.02279000000000        0.60792000000000
C           -1.15883000000000       -1.15351000000000        0.54610000000000
N           -1.67708000000000       -2.26806000000000       -0.37173000000000
C           -1.20963000000000       -3.63359000000000        0.10903000000000
C           -3.20288000000000       -2.23667000000000       -0.34468000000000
C           -1.20983000000000       -2.04322000000000       -1.80417000000000
H            0.56373000000000        0.79671000000000       -0.48126000000000
H            2.11367000000000        0.03171000000000        0.18074000000000
H            0.87410000000000       -1.77680000000000        1.17461000000000
H           -1.54898000000000       -1.35580000000000        1.55102000000000
H           -1.61663000000000       -0.21994000000000        0.19515000000000
H           -1.52192000000000       -3.76098000000000        1.14972000000000
H           -1.67076000000000       -4.39881000000000       -0.52300000000000
H           -0.12114000000000       -3.68956000000000        0.02295000000000
H           -3.53716000000000       -1.25986000000000       -0.70695000000000
H           -3.57921000000000       -3.03197000000000       -0.99520000000000
H           -3.53471000000000       -2.39847000000000        0.68528000000000
H           -1.51541000000000       -1.04015000000000       -2.11613000000000
H           -0.12246000000000       -2.14911000000000       -1.84695000000000
H           -1.67931000000000       -2.79882000000000       -2.44167000000000
21
 energy: -22.467625713326 gnorm: 0.026321140845 xtb: 6.7.1 (edcfbbe)
C            1.01429636442158       -0.03863749108696        0.06037921900843
C            0.32847338509114       -1.04382203598649        0.58361111434556
C           -1.16204277938591       -1.15975450837851        0.53349162711093
N           -1.67739640336589       -2.26265896456412       -0.36950115610406
C           -1.21276697256887       -3.60223724704477        0.10310400033118
C           -3.17476354158676       -2.23501859201414       -0.34354642034303
C           -1.21325358613381       -2.04316398816643       -1.77353797253935
H            0.54640143474813        0.77204266474853       -0.47713217496648
H            2.08361012532225        0.02705256234137        0.18556423598258
H            0.85827752249857       -1.79672577299779        1.15349498040083
H           -1.54725410501943       -1.36576981103232        1.53663700500878
H           -1.60224360246404       -0.22347087943087        0.17946865996100
H           -1.51585314133168       -3.74873060051704        1.13766469121473
H           -1.65987933912109       -4.37803761715477       -0.51596339469667
H           -0.13009789849884       -3.66583101526799        0.02642745587073
H           -3.52900826743841       -1.27098615465798       -0.70212616851325
H           -3.56485748815664       -3.02188735720796       -0.98562180207790
H           -3.52575412841106       -2.39441496020140        0.67379203453521
H           -1.51142894897491       -1.05058759348193       -2.10276140343884
H           -0.13024448936657       -2.13140039941632       -1.82017138950210
H           -1.66535414025776       -2.79059023848213       -2.42341314158829
21
 energy: -22.468768222523 gnorm: 0.006180277310 xtb: 6.7.1 (edcfbbe)
C            0.99858442031029       -0.04692661337536        0.07003690344707
C            0.32352175843955       -1.05761479477570        0.58306289526194
C           -1.16972714497301       -1.16951827446040        0.52504622569944
N           -1.68100176854383       -2.26034735091523       -0.36966388229161
C           -1.21464638103439       -3.57491277249072        0.09993769722010
C           -3.15312902110295       -2.23463355805718       -0.34456049845718
C           -1.21437222213072       -2.03970920201889       -1.74724969999735
H            0.52769064210670        0.75083235947624       -0.47837248660602
H            2.06780084588204        0.00748023127637        0.15395849255788
H            0.84418649748397       -1.83013281293724        1.13013766295473
H           -1.55359084941954       -1.36783369410648        1.52842916046354
H           -1.59143964200830       -0.22789964521381        0.16856113912171
H           -1.51390889535782       -3.73587021323377        1.13278333643893
H           -1.64750706324584       -4.36223614404515       -0.51296524736588
H           -0.13252445666893       -3.63983880154306        0.03221868434841
H           -3.52177749591090       -1.27599917455807       -0.70094372202020
H           -3.55329432336900       -3.01816116257353       -0.98306781409329
H           -3.51779370230104       -2.39292799267264        0.66740851934785
H           -1.51469339055083       -1.05411452623267       -2.09313800417154
H           -0.13013987411310       -2.10652825919217       -1.79143017387756
H           -1.64337793349235       -2.78773759835054       -2.41032918798099
21
 energy: -22.468858497191 gnorm: 0.004484844781 xtb: 6.7.1 (edcfbbe)
C            1.00016519488334       -0.06411525721955        0.04729751321584
C            0.32466464171125       -1.07020487849805        0.57160110078538
C           -1.17206466512715       -1.16948832504948        0.52499187735033
N           -1.68317354338736       -2.25981244853506       -0.36803669387528
C           -1.21431812389241       -3.57294061433890        0.10206085949378
C           -3.15437072232973       -2.23487112521114       -0.34462123672243
C           -1.21313818233697       -2.03655214892426       -1.74392722496352
H            0.52052286608620        0.75430165273983       -0.46488250001597
H            2.06665637509014        0.01159072029400        0.15855663194010
H            0.84182832567203       -1.84094137054352        1.12447706954641
H           -1.55465973309112       -1.35932065827877        1.53102794244001
H           -1.58691837829800       -0.22524419760890        0.16596232928108
H           -1.51513966771126       -3.73485815156501        1.13545222285101
H           -1.64267094368305       -4.36326570025712       -0.51201186059493
H           -0.13075391759916       -3.63483298497869        0.03660107798173
H           -3.52404895459991       -1.27541458345798       -0.70131571949079
H           -3.55418681189673       -3.01921601859688       -0.98448679352020
H           -3.52073212341875       -2.39370306507529        0.66792617814999
H           -1.52221632142731       -1.05355646083807       -2.09386231494583
H           -0.12658437582450       -2.09154490602718       -1.78327543171257
H           -1.63000093881956       -2.79063947803001       -2.40967502719416
21
 energy: -22.468935530154 gnorm: 0.001361113222 xtb: 6.7.1 (edcfbbe)
C            1.00016239934339       -0.06069209004762        0.05414755493385
C            0.32487120748664       -1.06909297376087        0.57604230314955
C           -1.17230763796230       -1.16819690364508        0.52674159243727
N           -1.68332913743804       -2.25893285777824       -0.36722450623976
C           -1.21399673213810       -3.57420046809452        0.10322429519148
C           -3.15682381484120       -2.23545579687596       -0.34533881908304
C           -1.21186788211626       -2.03438605512734       -1.74480609559598
H            0.51951445598827        0.75068227639233       -0.46787938282725
H            2.06966361660003        0.00510748944962        0.14696286344448
H            0.84231763393379       -1.84489015062681        1.12212616318783
H           -1.55650565480224       -1.35725063006361        1.53245156197800
H           -1.58648367573269       -0.22346750515243        0.16772225252118
H           -1.51638806047523       -3.73540061571832        1.13663615613752
H           -1.64121074124802       -4.36451285665643       -0.51214201907720
H           -0.12990864252367       -3.63457331456166        0.03855777170627
H           -3.52607282846088       -1.27535468537167       -0.70190196199302
H           -3.55519357310906       -3.02010915005126       -0.98649484349725
H           -3.52317850655118       -2.39523005775482        0.66748822745742
H           -1.52821182879754       -1.05364063435091       -2.09593172592009
H           -0.12434668655960       -2.08168953964438       -1.78074275565683
H           -1.62184391059611       -2.79334348056002       -2.40977863225447
21
 energy: -22.468963006146 gnorm: 0.001479585532 xtb: 6.7.1 (edcfbbe)
C            1.00061423467267       -0.06344348414639        0.05502117544500
C            0.32581559196979       -1.07172823346874        0.57745313730654
C           -1.17250621979358       -1.16758184852377        0.52748608682669
N           -1.68399048692086       -2.25763167836669       -0.36596112177422
C           -1.21442430401078       -3.57324895011125        0.10455186874271
C           -3.15776266444306       -2.23588694462729       -0.34607374465739
C           -1.21102966520002       -2.03127370059766       -1.74310390612278
H            0.51636704400769        0.74625632258906       -0.46638624428339
H            2.07170539789821       -0.00184157365262        0.13522107807987
H            0.84124306345659       -1.85220583742598        1.11826605387996
H           -1.55867689173436       -1.35307135852784        1.53314269450297
H           -1.58323055836146       -0.22204852870202        0.16682901359451
H           -1.51856865979456       -3.73458208266145        1.13758865113386
H           -1.63981126831434       -4.36335271563933       -0.51210094127305
H           -0.13006084111529       -3.63246488533755        0.04137522311723
H           -3.52765080424671       -1.27541438718418       -0.70150068874663
H           -3.55390122015694       -3.02002694350164       -0.98957674786697
H           -3.52534506195569       -2.39815523739375        0.66609180843956
H           -1.54343416774823       -1.05724981665546       -2.09925472379712
H           -0.12220904841485       -2.05911524919844       -1.77291100088820
H           -1.60428346979421       -2.80056286686705       -2.40629767165918
21
 energy: -22.468982839989 gnorm: 0.001142760542 xtb: 6.7.1 (edcfbbe)
C            1.00228930739386       -0.06728010016178        0.05337071515475
C            0.32654096608921       -1.07406300255297        0.57715003802898
C           -1.17222524972724       -1.16685416985873        0.52759322018438
N           -1.68415791761634       -2.25666460536766       -0.36538227132638
C           -1.21504000435065       -3.57270645338287        0.10485280615399
C           -3.15798691922301       -2.23542146871915       -0.34584510814263
C           -1.21118069802346       -2.02987797617095       -1.74251855804015
H            0.51689811993056        0.74266882866193       -0.46627440219565
H            2.07272675479958       -0.00432889385645        0.13376814027076
H            0.83981208164235       -1.85557406283019        1.11784929434894
H           -1.55962690410007       -1.35035734407665        1.53308468173431
H           -1.58064882190786       -0.22102191501122        0.16538414551323
H           -1.51928489744657       -3.73372632439890        1.13773447764785
H           -1.64101199744610       -4.36216500317582       -0.51174953563835
H           -0.13093829570906       -3.63242141364032        0.04149498967922
H           -3.52825688332666       -1.27429347902836       -0.69852787900188
H           -3.55262081898498       -3.01775708238875       -0.99225514224390
H           -3.52604116516603       -2.40130546594109        0.66533812472641
H           -1.56083118190495       -1.06435370752202       -2.10517718959785
H           -0.12211522053680       -2.03701582672980       -1.76788448312795
H           -1.58744025438576       -2.81011053384828       -2.40214606412811
21
 energy: -22.468997797218 gnorm: 0.000720416386 xtb: 6.7.1 (edcfbbe)
C            1.00494097939599       -0.07000752918918        0.05386874248771
C            0.32677683012397       -1.07468279891778        0.57842928340431
C           -1.17156392623441       -1.16604003831446        0.52635336401907
N           -1.68452862033267       -2.25615158736471       -0.36601735892625
C           -1.21535120059317       -3.57204360996518        0.10420574392317
C           -3.15824668783560       -2.23462896051344       -0.34520861826974
C           -1.21252931393346       -2.03011285883314       -1.74340061657836
H            0.52140759027576        0.74036228056941       -0.46689466675133
H            2.07500648161551       -0.00750912785542        0.13693016944917
H            0.83811632869586       -1.85481119090353        1.12288720428069
H           -1.56029927473669       -1.34875499771060        1.53135134643715
H           -1.57872502898040       -0.22033858001881        0.16252509977543
H           -1.51671867075839       -3.73189173106108        1.13795281447246
H           -1.64462009785260       -4.36138977996142       -0.51015704851817
H           -0.13174961871821       -3.63328318614462        0.03750960772836
H           -3.52857296038474       -1.27165190091093       -0.69212161245795
H           -3.55338130636795       -3.01313640691833       -0.99570758426978
H           -3.52543965504616       -2.40597962886307        0.66511036384617
H           -1.58159070060025       -1.07544650417445       -2.11473777336554
H           -0.12398339313981       -2.01413127480707       -1.76530560852637
H           -1.57008775459257       -2.82300058814223       -2.39771285216024
21
 energy: -22.469004608627 gnorm: 0.000406406687 xtb: 6.7.1 (edcfbbe)
C            1.00710789701920       -0.07243674157245        0.05517765255828
C            0.32579695577945       -1.07505541987337        0.58002594107599
C           -1.17234352846413       -1.16455701785893        0.52526579631488
N           -1.68478416681775       -2.25562091234510       -0.36693352099431
C           -1.21452309184989       -3.57096372015201        0.10345604289754
C           -3.15838552030167       -2.23431099281507       -0.34433355076084
C           -1.21407417120473       -2.03056935467652       -1.74487710096562
H            0.52761361179850        0.73675196952035       -0.47117002379601
H            2.07682322202579       -0.01035779365265        0.14457456670324
H            0.83566602717545       -1.85433481463992        1.12765861572005
H           -1.56290193272727       -1.34624382479852        1.52981795885755
H           -1.57811095046434       -0.21886437650218        0.15955408785150
H           -1.51091037393282       -3.72886398799870        1.13903461199791
H           -1.64756596453871       -4.36144958662998       -0.50717706545188
H           -0.13120437599490       -3.63308112704992        0.03145125875126
H           -3.52920737637869       -1.26922990970782       -0.68525909351822
H           -3.55434349850910       -3.00903641035231       -0.99887707758179
H           -3.52455538239301       -2.41130040708383        0.66553974030266
H           -1.59583398881190       -1.08358871138900       -2.12231736854273
H           -0.12600396690049       -1.99964202392425       -1.76534469601629
H           -1.55939942450898       -2.83187483649785       -2.39540677540321
21
 energy: -22.469009021442 gnorm: 0.000487996572 xtb: 6.7.1 (edcfbbe)
C            1.00928575423301       -0.07442825257723        0.05676634219707
C            0.32499011894850       -1.07473267686682        0.58217828388733
C           -1.17286056806263       -1.16330871313629        0.52318386748135
N           -1.68542315574697       -2.25549920814988       -0.36789235685855
C           -1.21322712379541       -3.56981829271853        0.10297234020726
C           -3.15891825881375       -2.23507726273894       -0.34394902590791
C           -1.21580759401166       -2.03087236763599       -1.74616722995156
H            0.53349914801163        0.73553005638928       -0.47203214276835
H            2.07902890372820       -0.01495880405828        0.14939588527992
H            0.83289465508849       -1.85197547547890        1.13459422566633
H           -1.56596267981287       -1.34290652493884        1.52713479599333
H           -1.57699194188164       -0.21789520131093        0.15492419894453
H           -1.50342474774949       -3.72520887646745        1.14073893411637
H           -1.65052000705424       -4.36153142947502       -0.50313432166331
H           -0.13030382625713       -3.63287161223363        0.02454849050925
H           -3.53047490699237       -1.26824324229985       -0.67929529866763
H           -3.55560388347085       -3.00642454290269       -1.00202225809684
H           -3.52396436902501       -2.41725897265004        0.66548149379000
H           -1.60414122646319       -1.08828095903919       -2.12679806106250
H           -0.12822132572500       -1.99241477799425       -1.76654848900274
H           -1.55499296514758       -2.83645286371655       -2.39421967409341
